 Q-Chem 4.4, Q-Chem, Inc., Pleasanton, CA (2016)
 Q-Chem 4.4.2 for Intel X86 Linux

User input:
--------------------------------------------------------------
$comment
SP
$end

$rem
MEM_STATIC 5000
MEM_TOTAL 20000
JOBTYPE SP
EXCHANGE B3LYP
BASIS 6-31g(d,p)
$end

$molecule
0 1
C           0.902000     14.124000     -4.074000
C           1.259000     14.301000     -5.398000
N           1.206000     14.985000     -3.187000
C           2.109000     15.418000     -5.704000
C           2.141000     15.902000     -3.393000
C           2.696000     16.163000     -4.661000
C           3.595000     17.311000     -4.926000
C           3.335000     18.282000     -5.985000
C           4.655000     17.736000     -4.082000
N           3.803000     19.550000     -6.026000
N           5.262000     16.893000     -3.255000
C           5.282000     19.005000     -4.188000
C           4.734000     19.937000     -5.144000
S           6.455000     17.745000     -2.541000
N           6.402000     19.159000     -3.363000
C           5.204000     21.306000     -5.275000
S           5.405000     22.157000     -6.781000
C           5.715000     22.004000     -4.173000
C           6.113000     23.563000     -5.927000
S           5.516000     21.705000     -2.513000
C           6.187000     23.290000     -4.584000
C           6.433000     24.835000     -6.503000
C           6.083000     23.402000     -2.224000
C           6.372000     24.077000     -3.384000
N           6.957000     25.817000     -5.760000
S           6.240000     25.139000     -8.200000
C           7.159000     26.922000     -6.524000
C           6.865000     26.765000     -7.784000
C          -0.185000     13.098000     -3.784000
H           0.869000     13.643000     -6.169000
H           2.376000     15.641000     -6.733000
H           2.562000     16.488000     -2.578000
H           2.473000     18.185000     -6.644000
H           6.260000     23.744000     -1.212000
H           6.730000     25.100000     -3.384000
H           7.492000     27.802000     -5.990000
H           6.926000     27.516000     -8.561000
H          -0.130000     12.299000     -4.534000
C          -1.579000     13.791000     -3.680000
H           0.163000     12.561000     -2.892000
H          -1.782000     14.335000     -4.611000
H          -1.631000     14.585000     -2.925000
C          -2.734000     12.783000     -3.413000
H          -2.515000     11.888000     -4.008000
C          -4.020000     13.444000     -3.772000
H          -2.759000     12.556000     -2.340000
H          -3.901000     14.114000     -4.633000
H          -4.259000     14.108000     -2.932000
C          -5.339000     12.613000     -3.848000
H          -6.197000     13.294000     -3.923000
C          -5.443000     11.709000     -2.561000
H          -5.148000     11.943000     -4.695000
H          -4.762000     10.854000     -2.651000
H          -6.421000     11.238000     -2.721000
H          -5.513000     12.222000     -1.594000
C          20.737000     18.281000     -0.759000
C          20.687000     19.469000     -1.555000
N          19.761000     17.990000      0.085000
C          19.611000     20.337000     -1.486000
C          18.733000     18.799000      0.163000
C          18.546000     20.009000     -0.615000
C          17.319000     20.790000     -0.459000
C          16.109000     20.204000     -0.049000
C          17.307000     22.229000     -0.608000
N          14.990000     20.916000      0.073000
N          18.389000     23.031000     -0.812000
C          16.139000     22.949000     -0.389000
C          14.952000     22.303000     -0.083000
S          17.883000     24.529000     -0.893000
N          16.274000     24.273000     -0.533000
C          13.600000     22.937000     -0.091000
S          13.299000     24.655000     -0.341000
C          12.421000     22.277000      0.001000
C          11.582000     24.424000     -0.226000
S          12.138000     20.597000      0.393000
C          11.300000     23.073000     -0.022000
C          10.567000     25.420000     -0.154000
C          10.400000     21.031000      0.512000
C          10.146000     22.360000      0.309000
N          11.033000     26.662000     -0.022000
S           8.826000     25.206000     -0.393000
C           9.951000     27.508000     -0.252000
C           8.728000     26.887000     -0.479000
C          21.917000     17.358000     -0.753000
H          21.530000     19.627000     -2.222000
H          19.585000     21.275000     -2.032000
H          17.899000     18.549000      0.817000
H          15.950000     19.130000      0.032000
H           9.718000     20.251000      0.825000
H           9.134000     22.749000      0.347000
H          10.167000     28.568000     -0.241000
H           7.709000     27.244000     -0.543000
H          22.770000     18.046000     -0.793000
C          22.071000     16.353000     -1.950000
H          21.994000     16.942000      0.259000
H          23.067000     15.895000     -1.931000
H          21.873000     16.794000     -2.935000
C          21.073000     15.170000     -1.782000
H          21.048000     14.763000     -0.763000
C          21.333000     14.061000     -2.786000
H          20.065000     15.591000     -1.872000
H          22.416000     13.891000     -2.806000
H          20.999000     14.362000     -3.787000
C          20.529000     12.737000     -2.388000
H          21.175000     12.347000     -1.592000
C          20.363000     11.697000     -3.509000
H          19.576000     13.110000     -1.991000
H          21.319000     11.710000     -4.047000
H          19.611000     12.013000     -4.242000
H          20.249000     10.706000     -3.053000
$end

--------------------------------------------------------------

             Standard Nuclear Orientation (Angstroms)
    I     Atom           X                Y                Z
 ----------------------------------------------------------------
    1      C      -9.7327787389    -4.3349903842     0.2274828554
    2      C      -9.6069386716    -4.1679689699    -1.1392732035
    3      N      -9.1131436813    -3.5811792176     1.0449956202
    4      C      -8.6398147487    -3.2089206203    -1.5961348685
    5      C      -8.0818384858    -2.8382190033     0.6682069346
    6      C      -7.7389695588    -2.6264538732    -0.6814472539
    7      C      -6.7111136001    -1.6474611386    -1.1073760669
    8      C      -6.9841897123    -0.6010161371    -2.0883471652
    9      C      -5.4506042138    -1.4555864800    -0.4821871334
   10      N      -6.3075099044     0.5633950378    -2.2099204080
   11      N      -4.8633034797    -2.4283135046     0.2047677292
   12      C      -4.6327078687    -0.3158392512    -0.6983995824
   13      C      -5.1712017122     0.7393593257    -1.5226837227
   14      S      -3.4206773242    -1.8349290212     0.6798189162
   15      N      -3.3677416140    -0.4002553051    -0.1055460555
   16      C      -4.4910919980     2.0065568016    -1.7321672156
   17      S      -4.4263361474     2.8718006390    -3.2420671399
   18      C      -3.6610020158     2.5538842262    -0.7451959335
   19      C      -3.3231238882     4.0904656670    -2.5312969515
   20      S      -3.5931710936     2.2242440191     0.9195377689
   21      C      -3.0473052751     3.7511733719    -1.2303515910
   22      C      -2.8898881087     5.3082727145    -3.1488831839
   23      C      -2.6795870902     3.7784440837     1.1056705932
   24      C      -2.4967051417     4.4400818130    -0.0832514851
   25      N      -2.0631229848     6.1478559620    -2.5144476864
   26      S      -3.3419009525     5.7145344619    -4.7737246474
   27      C      -1.8100378116     7.2306988939    -3.2947835626
   28      C      -2.3613474427     7.1831140120    -4.4748167696
   29      C     -10.9147976027    -5.1615121109     0.7153744836
   30      H     -10.2502159059    -4.7118468658    -1.8247629803
   31      H      -8.5363950383    -2.9932635403    -2.6556892028
   32      H      -7.4135534436    -2.3725481816     1.3902926554
   33      H      -7.9583642586    -0.5138549622    -2.5680563303
   34      H      -2.2541398005     4.0394571703     2.0665575648
   35      H      -1.9633797901     5.3815878718    -0.1450852174
   36      H      -1.2258663005     8.0131686600    -2.8290264254
   37      H      -2.3117891768     7.9437776262    -5.2431824666
   38      H     -11.1508051246    -5.9244830310    -0.0370229013
   39      C     -12.1122230776    -4.2354643849     1.0934073411
   40      H     -10.5087357722    -5.7899275636     1.5187080436
   41      H     -12.3845391820    -3.6244284460     0.2237033566
   42      H     -11.8732930983    -3.4781596158     1.8500888802
   43      C     -13.3608804455    -5.0311417650     1.5720828934
   44      H     -13.4269674318    -5.9244699939     0.9391467309
   45      C     -14.5478029019    -4.1359685306     1.4747280645
   46      H     -13.2232830362    -5.2959078635     2.6277574958
   47      H     -14.4731173984    -3.4616871072     0.6120875614
   48      H     -14.4970145805    -3.4766494298     2.3501341815
   49      C     -15.9871361680    -4.7135917180     1.6501395885
   50      H     -16.7037298117    -3.8875207280     1.7483753722
   51      C     -16.0095976588    -5.6388699211     2.9259752865
   52      H     -16.0866507172    -5.3699218674     0.7771461237
   53      H     -15.5269864063    -6.5972206866     2.6989594517
   54      H     -17.0697907377    -5.9200215229     2.9554610847
   55      H     -15.7994841693    -5.1636605451     3.8919910060
   56      C      10.7907591624    -3.9392702641    -0.3425141597
   57      C      10.8099778832    -2.7283935436    -1.1046612640
   58      N       9.9559318246    -4.0869981158     0.6727852039
   59      C       9.9447951294    -1.6857087543    -0.8214153770
   60      C       9.1279071592    -3.1112789261     0.9550903869
   61      C       9.0224450775    -1.8550460974     0.2373788645
   62      C       8.0121256512    -0.8746060698     0.6346420131
   63      C       6.8150980865    -1.2517929393     1.2674540505
   64      C       8.2367975892     0.5483853724     0.5016612783
   65      N       5.8898164844    -0.3570321019     1.6098660839
   66      N       9.3891266402     1.1519284444     0.0974119512
   67      C       7.2841162437     1.4556057354     0.9488015996
   68      C       6.0785262753     1.0197982087     1.4746776571
   69      S       9.1610699228     2.7183521893     0.1275414218
   70      N       7.6303808175     2.7390511111     0.7913029886
   71      C       4.8895310506     1.8851534903     1.7342438185
   72      S       4.8675936839     3.6384171738     1.5604329777
   73      C       3.6485108534     1.4433505209     2.0485430493
   74      C       3.1908827601     3.7135361390     2.0050368675
   75      S       3.1410841182    -0.1742043515     2.4753771425
   76      C       2.7092488121     2.4272668705     2.2497430366
   77      C       2.4086306386     4.8709965005     2.2803405725
   78      C       1.5671072997     0.5581499682     2.9329961164
   79      C       1.5279124112     1.9186257194     2.7932266952
   80      N       3.1114021733     6.0027745113     2.3286593495
   81      S       0.6447801958     4.9823312508     2.3824884489
   82      C       2.1797002360     7.0377574086     2.3196093605
   83      C       0.8429298997     6.6558680421     2.3298357858
   84      C      11.7603606769    -5.0578419349    -0.5728081470
   85      H      11.5256380199    -2.6952127823    -1.9215037248
   86      H       9.9886090804    -0.7356020319    -1.3448784166
   87      H       8.4015527914    -3.2359407532     1.7567391637
   88      H       6.4796922583    -2.2825045861     1.3697009659
   89      H       0.8252896750    -0.1000005644     3.3666290120
   90      H       0.6305379805     2.4803697788     3.0300214226
   91      H       2.5849521808     8.0405587531     2.2964290944
   92      H      -0.0864163593     7.1917937244     2.4676951122
   93      H      12.7019576201    -4.5324400764    -0.7725607027
   94      C      11.4972270495    -6.0217956032    -1.7844615709
   95      H      11.9500332543    -5.5240057495     0.4017915715
   96      H      12.3772936795    -6.6509497443    -1.9627556921
   97      H      11.2005635070    -5.5105755618    -2.7088829097
   98      C      10.3490613479    -7.0133144046    -1.4347145365
   99      H      10.4433358071    -7.4526879582    -0.4333663420
  100      C      10.2056410728    -8.1067474655    -2.4784251123
  101      H       9.4371587361    -6.4153311785    -1.3240136422
  102      H      11.2151613452    -8.4667022890    -2.7097049099
  103      H       9.7490386422    -7.7081243255    -3.3931774354
  104      C       9.2622793420    -9.2814447827    -1.9418145854
  105      H       9.9645820508    -9.8145464743    -1.2894301193
  106      C       8.6984800178   -10.2258290024    -3.0170195741
  107      H       8.4869338802    -8.7614088773    -1.3644506863
  108      H       9.5209350555   -10.3609296255    -3.7303669878
  109      H       7.8922825873    -9.7492116632    -3.5875724769
  110      H       8.4928302797   -11.1991217777    -2.5550429959
 ----------------------------------------------------------------

    9   -5663.5045518619      8.61E-06 Convergence criterion met
 Total energy in the final basis set = -5663.5045518619

                    Orbital Energies (a.u.)
 --------------------------------------------------------------

 Alpha MOs
 -- Occupied --
-88.990 -88.990 -88.929 -88.929 -88.925 -88.922 -88.910 -88.907
-14.394 -14.384 -14.382 -14.381 -14.353 -14.348 -14.344 -14.336
-14.325 -14.323 -10.268 -10.265 -10.263 -10.262 -10.262 -10.259
-10.257 -10.248 -10.244 -10.240 -10.239 -10.238 -10.237 -10.235
-10.233 -10.231 -10.229 -10.229 -10.228 -10.228 -10.227 -10.225
-10.224 -10.223 -10.222 -10.221 -10.220 -10.220 -10.218 -10.215
-10.212 -10.211 -10.207 -10.201 -10.200 -10.199 -10.199 -10.197
-10.187 -10.186 -10.184 -10.184 -10.183 -10.177 -10.176 -10.174
-10.173 -10.172 -10.170 -10.169  -8.046  -8.046  -7.991  -7.988
 -7.986  -7.980  -7.971  -7.966  -6.011  -6.011  -6.005  -6.005
 -6.004  -6.004  -5.955  -5.952  -5.952  -5.950  -5.949  -5.948
 -5.947  -5.945  -5.944  -5.943  -5.941  -5.937  -5.936  -5.932
 -5.930  -5.927  -5.927  -5.922  -1.041  -1.038  -0.970  -0.967
 -0.962  -0.958  -0.951  -0.948  -0.917  -0.913  -0.904  -0.902
 -0.845  -0.845  -0.834  -0.832  -0.819  -0.810  -0.808  -0.808
 -0.802  -0.800  -0.797  -0.797  -0.786  -0.782  -0.766  -0.766
 -0.751  -0.744  -0.743  -0.738  -0.725  -0.725  -0.713  -0.712
 -0.696  -0.690  -0.676  -0.675  -0.655  -0.653  -0.646  -0.646
 -0.642  -0.633  -0.631  -0.625  -0.611  -0.606  -0.599  -0.595
 -0.594  -0.591  -0.588  -0.580  -0.579  -0.574  -0.569  -0.557
 -0.550  -0.545  -0.541  -0.540  -0.526  -0.524  -0.519  -0.515
 -0.510  -0.506  -0.506  -0.501  -0.489  -0.487  -0.476  -0.476
 -0.474  -0.472  -0.470  -0.469  -0.465  -0.461  -0.450  -0.448
 -0.445  -0.439  -0.438  -0.436  -0.436  -0.434  -0.433  -0.430
 -0.428  -0.427  -0.426  -0.421  -0.418  -0.415  -0.414  -0.411
 -0.410  -0.408  -0.408  -0.405  -0.402  -0.400  -0.399  -0.398
 -0.397  -0.396  -0.391  -0.390  -0.388  -0.386  -0.384  -0.382
 -0.377  -0.375  -0.375  -0.374  -0.365  -0.362  -0.362  -0.361
 -0.357  -0.354  -0.352  -0.349  -0.348  -0.346  -0.344  -0.341
 -0.340  -0.338  -0.335  -0.334  -0.331  -0.327  -0.324  -0.321
 -0.316  -0.312  -0.311  -0.308  -0.306  -0.305  -0.302  -0.298
 -0.295  -0.294  -0.293  -0.291  -0.289  -0.288  -0.288  -0.279
 -0.279  -0.270  -0.268  -0.264  -0.256  -0.250  -0.247  -0.245
 -0.244  -0.242  -0.233  -0.228  -0.195  -0.190

          Ground-State Mulliken Net Atomic Charges

     Atom                 Charge (a.u.)
  ----------------------------------------
      1 C                     0.267789
      2 C                    -0.113556
      3 N                    -0.460131
      4 C                    -0.097835
      5 C                     0.090472
      6 C                     0.053564
      7 C                     0.025730
      8 C                     0.054467
      9 C                     0.194320
     10 N                    -0.493134
     11 N                    -0.521738
     12 C                     0.186399
     13 C                     0.260637
     14 S                     0.608961
     15 N                    -0.532138
     16 C                    -0.194990
     17 S                     0.316686
     18 C                    -0.120039
     19 C                    -0.223753
     20 S                     0.267371
     21 C                     0.145645
     22 C                     0.072313
     23 C                    -0.301962
     24 C                    -0.046315
     25 N                    -0.455456
     26 S                     0.251791
     27 C                     0.161594
     28 C                    -0.315207
     29 C                    -0.224077
     30 H                     0.093281
     31 H                     0.097514
     32 H                     0.103982
     33 H                     0.111112
     34 H                     0.123739
     35 H                     0.127477
     36 H                     0.114778
     37 H                     0.120875
     38 H                     0.089922
     39 C                    -0.173491
     40 H                     0.109408
     41 H                     0.092776
     42 H                     0.118090
     43 C                    -0.167447
     44 H                     0.084401
     45 C                    -0.175709
     46 H                     0.105838
     47 H                     0.081023
     48 H                     0.087462
     49 C                    -0.184126
     50 H                     0.097455
     51 C                    -0.324707
     52 H                     0.094464
     53 H                     0.111755
     54 H                     0.098212
     55 H                     0.106858
     56 C                     0.274816
     57 C                    -0.124319
     58 N                    -0.473422
     59 C                    -0.056098
     60 C                     0.079475
     61 C                     0.028184
     62 C                     0.022472
     63 C                     0.069219
     64 C                     0.227613
     65 N                    -0.541226
     66 N                    -0.539853
     67 C                     0.220216
     68 C                     0.306191
     69 S                     0.608727
     70 N                    -0.589093
     71 C                    -0.229088
     72 S                     0.365788
     73 C                    -0.114288
     74 C                    -0.215731
     75 S                     0.285333
     76 C                     0.147947
     77 C                     0.045790
     78 C                    -0.312233
     79 C                    -0.073529
     80 N                    -0.426171
     81 S                     0.302522
     82 C                     0.111190
     83 C                    -0.321108
     84 C                    -0.237114
     85 H                     0.086555
     86 H                     0.116459
     87 H                     0.091850
     88 H                     0.124632
     89 H                     0.123451
     90 H                     0.108602
     91 H                     0.111479
     92 H                     0.139248
     93 H                     0.096410
     94 C                    -0.181740
     95 H                     0.120704
     96 H                     0.095908
     97 H                     0.099743
     98 C                    -0.176408
     99 H                     0.096726
    100 C                    -0.180502
    101 H                     0.100736
    102 H                     0.086136
    103 H                     0.086848
    104 C                    -0.181922
    105 H                     0.095712
    106 C                    -0.320063
    107 H                     0.098294
    108 H                     0.103496
    109 H                     0.106958
    110 H                     0.106128
  ----------------------------------------
  Sum of atomic charges =     0.000000

                    Cartesian Multipole Moments
 -----------------------------------------------------------------
    Charge (ESU x 10^10)
                 0.0000
    Dipole Moment (Debye)
         X      -1.5748      Y       1.3458      Z      -2.3359
       Tot       3.1221
    Quadrupole Moments (Debye-Ang)
        XX    -417.2672     XY       9.0185     YY    -417.5389
        XZ     -13.7535     YZ       1.6059     ZZ    -437.4247

 Total job time:  84.31s(wall), 912.62s(cpu)
        *  Thank you very much for using Q-Chem.  Have a nice day.  *
