 Q-Chem 4.4, Q-Chem, Inc., Pleasanton, CA (2016)
 Q-Chem 4.4.2 for Intel X86 Linux

User input:
--------------------------------------------------------------
$comment
SP
$end

$rem
MEM_STATIC 5000
MEM_TOTAL 20000
JOBTYPE SP
EXCHANGE B3LYP
BASIS 6-31g(d,p)
$end

$molecule
0 1
C           2.241000     18.856000     10.678000
C           3.570000     19.191000     10.754000
N           1.723000     18.268000      9.609000
C           4.441000     19.018000      9.700000
C           2.505000     17.939000      8.607000
C           3.864000     18.345000      8.551000
C           4.750000     17.919000      7.451000
C           6.040000     17.460000      7.664000
C           4.439000     18.010000      6.089000
N           6.887000     16.921000      6.703000
N           3.253000     18.485000      5.672000
C           5.322000     17.608000      5.082000
C           6.562000     17.011000      5.440000
S           3.266000     18.360000      4.063000
N           4.750000     17.717000      3.848000
C           7.647000     16.519000      4.571000
S           9.015000     15.631000      5.263000
C           8.063000     16.959000      3.348000
C           9.886000     15.554000      3.688000
S           7.378000     18.203000      2.383000
C           9.327000     16.449000      2.860000
C          11.151000     15.000000      3.552000
C           8.644000     17.926000      1.206000
C           9.539000     16.923000      1.579000
N          11.801000     15.030000      2.432000
S          11.976000     14.379000      5.006000
C          13.047000     14.472000      2.591000
C          13.272000     13.979000      3.863000
C           1.254000     19.160000     11.854000
H           3.910000     19.669000     11.668000
H           5.500000     19.220000      9.829000
H           2.083000     17.512000      7.698000
H           6.369000     17.350000      8.697000
H           8.520000     18.305000      0.200000
H          10.426000     16.656000      1.016000
H          13.751000     14.457000      1.769000
H          14.127000     13.456000      4.271000
H           1.659000     19.968000     12.477000
C           0.857000     17.983000     12.724000
H           0.352000     19.361000     11.262000
H           1.715000     17.685000     13.340000
H           0.718000     17.184000     11.986000
C          -0.316000     18.265000     13.653000
H          -0.247000     19.199000     14.225000
C          -0.708000     17.063000     14.593000
H          -1.151000     18.505000     12.984000
H          -0.564000     16.094000     14.099000
H          -1.747000     17.059000     14.945000
C           0.115000     17.079000     15.901000
H           1.175000     17.251000     15.676000
C          -0.029000     15.768000     16.792000
H          -0.248000     17.939000     16.477000
H          -1.009000     15.801000     17.285000
H           0.642000     15.822000     17.657000
H           0.118000     14.822000     16.256000
C          20.737000     18.281000     -0.759000
C          20.687000     19.469000     -1.555000
N          19.761000     17.990000      0.085000
C          19.611000     20.337000     -1.486000
C          18.733000     18.799000      0.163000
C          18.546000     20.009000     -0.615000
C          17.319000     20.790000     -0.459000
C          16.109000     20.204000     -0.049000
C          17.307000     22.229000     -0.608000
N          14.990000     20.916000      0.073000
N          18.389000     23.031000     -0.812000
C          16.139000     22.949000     -0.389000
C          14.952000     22.303000     -0.083000
S          17.883000     24.529000     -0.893000
N          16.274000     24.273000     -0.533000
C          13.600000     22.937000     -0.091000
S          13.299000     24.655000     -0.341000
C          12.421000     22.277000      0.001000
C          11.582000     24.424000     -0.226000
S          12.138000     20.597000      0.393000
C          11.300000     23.073000     -0.022000
C          10.567000     25.420000     -0.154000
C          10.400000     21.031000      0.512000
C          10.146000     22.360000      0.309000
N          11.033000     26.662000     -0.022000
S           8.826000     25.206000     -0.393000
C           9.951000     27.508000     -0.252000
C           8.728000     26.887000     -0.479000
C          21.917000     17.358000     -0.753000
H          21.530000     19.627000     -2.222000
H          19.585000     21.275000     -2.032000
H          17.899000     18.549000      0.817000
H          15.950000     19.130000      0.032000
H           9.718000     20.251000      0.825000
H           9.134000     22.749000      0.347000
H          10.167000     28.568000     -0.241000
H           7.709000     27.244000     -0.543000
H          22.770000     18.046000     -0.793000
C          22.071000     16.353000     -1.950000
H          21.994000     16.942000      0.259000
H          23.067000     15.895000     -1.931000
H          21.873000     16.794000     -2.935000
C          21.073000     15.170000     -1.782000
H          21.048000     14.763000     -0.763000
C          21.333000     14.061000     -2.786000
H          20.065000     15.591000     -1.872000
H          22.416000     13.891000     -2.806000
H          20.999000     14.362000     -3.787000
C          20.529000     12.737000     -2.388000
H          21.175000     12.347000     -1.592000
C          20.363000     11.697000     -3.509000
H          19.576000     13.110000     -1.991000
H          21.319000     11.710000     -4.047000
H          19.611000     12.013000     -4.242000
H          20.249000     10.706000     -3.053000
$end

--------------------------------------------------------------

             Standard Nuclear Orientation (Angstroms)
    I     Atom           X                Y                Z
 ----------------------------------------------------------------
    1      C     -11.3183021576    -0.3078654735    -1.2738751193
    2      C     -10.2644474620    -0.2324066994    -2.1501959817
    3      N     -11.1594718719    -0.1562319634     0.0332626772
    4      C      -8.9603801695    -0.0775040273    -1.7319859162
    5      C      -9.9717244054     0.1314491962     0.5131215171
    6      C      -8.8096605539     0.1180276988    -0.3019125119
    7      C      -7.4895393786     0.5018598461     0.2332743389
    8      C      -6.6199477331     1.3381463458    -0.4483305763
    9      C      -6.9301697138     0.0097055641     1.4185741916
   10      N      -5.4232122596     1.8491171550     0.0397104453
   11      N      -7.5947512095    -0.8606357857     2.1976424623
   12      C      -5.6649668215     0.3922690527     1.8749170654
   13      C      -4.9334075137     1.3773301648     1.1561343553
   14      S      -6.6494239591    -1.1197669575     3.4797822462
   15      N      -5.3889828213    -0.1590521176     3.0921675733
   16      C      -3.5952313716     1.9323850519     1.4311774160
   17      S      -2.9837525810     3.3027238965     0.4893190722
   18      C      -2.5015681061     1.3501208829     2.0032386882
   19      C      -1.3645319456     3.2454600133     1.2767455014
   20      S      -2.3711735769    -0.2261644413     2.6713014423
   21      C      -1.2452524091     2.0614855899     1.8956695330
   22      C      -0.3184369382     4.0810224022     0.9118376638
   23      C      -0.6868110573     0.1064248728     3.0135312637
   24      C      -0.2783213054     1.3771735968     2.6079492089
   25      N       0.8653408437     3.9698894569     1.4257633701
   26      S      -0.5671407601     5.2313119478    -0.4280736654
   27      C       1.7223097059     4.8734084602     0.8440256458
   28      C       1.1101270080     5.6947941144    -0.0845301961
   29      C     -12.7754032656    -0.5882616002    -1.7716656105
   30      H     -10.4851902220    -0.3676208226    -3.2049328090
   31      H      -8.1667948187     0.0592265064    -2.4603079961
   32      H      -9.8151727511     0.1975504790     1.5891401972
   33      H      -6.9730949068     1.7754721931    -1.3818524973
   34      H      -0.1602869194    -0.5180394685     3.7233690048
   35      H       0.7412763039     1.7397596837     2.6710288778
   36      H       2.7701260964     4.8894155983     1.1148569276
   37      H       1.5096258456     6.5156836445    -0.6655285249
   38      H     -12.7426997743    -1.0812776560    -2.7519123399
   39      C     -13.7133508068     0.6024122224    -1.8205354201
   40      H     -13.1338014194    -1.1657242912    -0.9099483693
   41      H     -13.4132658327     1.2636250573    -2.6434391783
   42      H     -13.4638356449     1.1339057663    -0.8944561596
   43      C     -15.1766685773     0.2325848365    -2.0215896598
   44      H     -15.3725101500    -0.4832023387    -2.8300423784
   45      C     -16.1540437479     1.4644242591    -2.1184267020
   46      H     -15.4323852025    -0.3807115028    -1.1493152719
   47      H     -15.8360906714     2.2904056330    -1.4700490257
   48      H     -17.1963957462     1.2622168220    -1.8426451508
   49      C     -16.2604464266     1.9865672989    -3.5691141652
   50      H     -15.2605998751     2.0680951652    -4.0134890976
   51      C     -17.0196359176     3.3773158334    -3.7200705515
   52      H     -16.8125519728     1.2205218228    -4.1272349355
   53      H     -18.0941258218     3.1902828713    -3.5974813314
   54      H     -16.9841948246     3.7174218044    -4.7614416944
   55      H     -16.6724755080     4.1728163025    -3.0488927407
   56      C      10.2194833552     2.6750820489    -1.9546315255
   57      C      10.7556900122     1.3673207027    -1.7316905414
   58      N       8.9122578154     2.8735866374    -1.9913781805
   59      C       9.9294967415     0.2761160403    -1.5252006770
   60      C       8.1139696785     1.8527903700    -1.7962883785
   61      C       8.5314975732     0.4906929678    -1.5229495336
   62      C       7.5248628490    -0.5409780349    -1.2736154718
   63      C       6.2579469731    -0.2350925735    -0.7473510441
   64      C       7.7339712560    -1.9194497003    -1.6598220769
   65      N       5.3518127880    -1.1804934988    -0.5041907491
   66      N       8.7965537480    -2.4135247455    -2.3543379496
   67      C       6.7321413825    -2.8630668148    -1.4687497195
   68      C       5.5394052614    -2.5194201632    -0.8529506255
   69      S       8.5740531019    -3.9682639560    -2.5540388501
   70      N       7.0459640377    -4.0923989123    -1.8955927061
   71      C       4.5153720124    -3.4876015906    -0.3590836105
   72      S       4.5770530973    -5.2300353886    -0.6135338088
   73      C       3.4536449427    -3.1791209852     0.4230163483
   74      C       3.1085370597    -5.4652109013     0.2824729576
   75      S       2.8425942797    -1.6009847615     0.8614865830
   76      C       2.6388337400    -4.2374684977     0.7497719860
   77      C       2.3412644626    -6.6579445770     0.4093750486
   78      C       1.4154451794    -2.4603172790     1.5307802929
   79      C       1.4518095468    -3.8163639483     1.3525078513
   80      N       2.7512984422    -7.6538499207    -0.3762385217
   81      S       1.0632015512    -6.9990409382     1.5858980900
   82      C       2.0941238342    -8.7966929375     0.0725056967
   83      C       1.1881980633    -8.6119332330     1.1108030286
   84      C      11.0801342666     3.8640925607    -2.2544631642
   85      H      11.8398179098     1.2973982746    -1.7149706213
   86      H      10.3151825400    -0.7332571309    -1.4200899444
   87      H       7.0363367442     2.0078239424    -1.7752206210
   88      H       5.9846684652     0.7399164101    -0.3473581204
   89      H       0.6122156513    -1.8498300968     1.9227250921
   90      H       0.6516330108    -4.4510252292     1.7183378248
   91      H       2.3578274176    -9.7211377912    -0.4237191842
   92      H       0.4394675279    -9.2427772286     1.5705251603
   93      H      11.8518472915     3.4511518074    -2.9151385319
   94      C      11.8162851479     4.5607218263    -1.0547383849
   95      H      10.5089393246     4.5113582259    -2.9311554849
   96      H      12.5637939101     5.2686202764    -1.4319007302
   97      H      12.2766397891     3.8628957846    -0.3440890903
   98      C      10.8076624451     5.4244632497    -0.2421203953
   99      H      10.1512004651     6.0366378707    -0.8737333324
  100      C      11.5060162187     6.2928899411     0.7892059781
  101      H      10.0888944892     4.7309529098     0.2093450343
  102      H      12.3726201099     6.7475962319     0.2948084813
  103      H      11.8537298519     5.6838515767     1.6331997576
  104      C      10.5051843452     7.3960697356     1.3715511523
  105      H      10.5206564732     8.1264269044     0.5534001766
  106      C      10.9362876705     8.0542292882     2.6932065258
  107      H       9.5398323326     6.8773075172     1.4342269255
  108      H      12.0221469940     8.1811494317     2.6018292481
  109      H      10.7918367149     7.3781560919     3.5445043318
  110      H      10.4861940847     9.0528244064     2.7500972454
 ----------------------------------------------------------------

    9   -5663.5259242990      9.88E-06 Convergence criterion met
 Total energy in the final basis set = -5663.5259242990

                    Orbital Energies (a.u.)
 --------------------------------------------------------------

 Alpha MOs
 -- Occupied --
-88.993 -88.990 -88.928 -88.921 -88.920 -88.916 -88.911 -88.905
-14.389 -14.383 -14.381 -14.381 -14.354 -14.347 -14.344 -14.341
-14.330 -14.325 -10.268 -10.264 -10.262 -10.262 -10.262 -10.257
-10.257 -10.248 -10.241 -10.240 -10.238 -10.236 -10.232 -10.231
-10.231 -10.231 -10.230 -10.229 -10.229 -10.228 -10.228 -10.228
-10.227 -10.225 -10.224 -10.224 -10.221 -10.220 -10.219 -10.218
-10.212 -10.207 -10.205 -10.200 -10.198 -10.198 -10.197 -10.197
-10.188 -10.187 -10.185 -10.182 -10.181 -10.180 -10.179 -10.178
-10.176 -10.174 -10.173 -10.171  -8.049  -8.046  -7.991  -7.981
 -7.980  -7.975  -7.972  -7.964  -6.014  -6.011  -6.008  -6.007
 -6.005  -6.004  -5.954  -5.951  -5.948  -5.944  -5.944  -5.941
 -5.940  -5.940  -5.937  -5.937  -5.936  -5.936  -5.933  -5.931
 -5.929  -5.929  -5.925  -5.921  -1.045  -1.041  -0.973  -0.968
 -0.966  -0.954  -0.951  -0.948  -0.917  -0.916  -0.907  -0.902
 -0.850  -0.843  -0.840  -0.832  -0.818  -0.811  -0.808  -0.807
 -0.806  -0.803  -0.799  -0.796  -0.786  -0.782  -0.771  -0.766
 -0.752  -0.747  -0.743  -0.737  -0.723  -0.718  -0.713  -0.710
 -0.696  -0.690  -0.676  -0.675  -0.661  -0.653  -0.648  -0.646
 -0.640  -0.632  -0.631  -0.625  -0.617  -0.606  -0.600  -0.598
 -0.594  -0.592  -0.588  -0.584  -0.579  -0.574  -0.570  -0.567
 -0.556  -0.546  -0.544  -0.539  -0.526  -0.526  -0.518  -0.514
 -0.513  -0.506  -0.506  -0.500  -0.490  -0.489  -0.478  -0.476
 -0.475  -0.472  -0.470  -0.469  -0.461  -0.461  -0.456  -0.449
 -0.447  -0.440  -0.439  -0.437  -0.435  -0.434  -0.431  -0.428
 -0.428  -0.426  -0.423  -0.420  -0.420  -0.417  -0.415  -0.414
 -0.411  -0.410  -0.408  -0.405  -0.402  -0.402  -0.399  -0.398
 -0.397  -0.397  -0.392  -0.390  -0.389  -0.386  -0.384  -0.383
 -0.378  -0.376  -0.376  -0.375  -0.368  -0.363  -0.363  -0.358
 -0.356  -0.352  -0.349  -0.348  -0.347  -0.345  -0.340  -0.339
 -0.338  -0.333  -0.333  -0.333  -0.332  -0.330  -0.324  -0.322
 -0.316  -0.314  -0.311  -0.310  -0.308  -0.305  -0.301  -0.301
 -0.300  -0.294  -0.293  -0.293  -0.290  -0.288  -0.288  -0.286
 -0.282  -0.273  -0.267  -0.264  -0.255  -0.252  -0.249  -0.248
 -0.243  -0.242  -0.236  -0.227  -0.195  -0.190

          Ground-State Mulliken Net Atomic Charges

     Atom                 Charge (a.u.)
  ----------------------------------------
      1 C                     0.269980
      2 C                    -0.113561
      3 N                    -0.473075
      4 C                    -0.066263
      5 C                     0.097783
      6 C                     0.006217
      7 C                     0.064356
      8 C                     0.031332
      9 C                     0.200165
     10 N                    -0.520857
     11 N                    -0.546150
     12 C                     0.225914
     13 C                     0.317205
     14 S                     0.611398
     15 N                    -0.556229
     16 C                    -0.209390
     17 S                     0.300571
     18 C                    -0.140486
     19 C                    -0.227813
     20 S                     0.280136
     21 C                     0.181620
     22 C                     0.088532
     23 C                    -0.322619
     24 C                    -0.070651
     25 N                    -0.452752
     26 S                     0.252654
     27 C                     0.128127
     28 C                    -0.305349
     29 C                    -0.218485
     30 H                     0.085032
     31 H                     0.108764
     32 H                     0.117419
     33 H                     0.107778
     34 H                     0.137851
     35 H                     0.130608
     36 H                     0.117668
     37 H                     0.129694
     38 H                     0.091472
     39 C                    -0.171399
     40 H                     0.121273
     41 H                     0.087554
     42 H                     0.113556
     43 C                    -0.178770
     44 H                     0.091084
     45 C                    -0.174655
     46 H                     0.092193
     47 H                     0.093376
     48 H                     0.090851
     49 C                    -0.177389
     50 H                     0.092860
     51 C                    -0.328132
     52 H                     0.093433
     53 H                     0.102845
     54 H                     0.101646
     55 H                     0.106926
     56 C                     0.273973
     57 C                    -0.124430
     58 N                    -0.473983
     59 C                    -0.055987
     60 C                     0.078982
     61 C                     0.028333
     62 C                     0.022278
     63 C                     0.069253
     64 C                     0.227392
     65 N                    -0.539478
     66 N                    -0.540702
     67 C                     0.220669
     68 C                     0.305992
     69 S                     0.607770
     70 N                    -0.588598
     71 C                    -0.230066
     72 S                     0.363632
     73 C                    -0.112422
     74 C                    -0.217285
     75 S                     0.285829
     76 C                     0.146615
     77 C                     0.052745
     78 C                    -0.315282
     79 C                    -0.079332
     80 N                    -0.426420
     81 S                     0.292476
     82 C                     0.109748
     83 C                    -0.315418
     84 C                    -0.236239
     85 H                     0.086512
     86 H                     0.116538
     87 H                     0.091356
     88 H                     0.123475
     89 H                     0.123649
     90 H                     0.110207
     91 H                     0.111508
     92 H                     0.139052
     93 H                     0.096525
     94 C                    -0.182714
     95 H                     0.120167
     96 H                     0.096101
     97 H                     0.100052
     98 C                    -0.175835
     99 H                     0.096116
    100 C                    -0.180402
    101 H                     0.100328
    102 H                     0.086449
    103 H                     0.087029
    104 C                    -0.182024
    105 H                     0.095746
    106 C                    -0.320138
    107 H                     0.097361
    108 H                     0.103856
    109 H                     0.107078
    110 H                     0.106116
  ----------------------------------------
  Sum of atomic charges =     0.000000

                    Cartesian Multipole Moments
 -----------------------------------------------------------------
    Charge (ESU x 10^10)
                 0.0000
    Dipole Moment (Debye)
         X       0.3143      Y      -1.5723      Z      -0.1068
       Tot       1.6069
    Quadrupole Moments (Debye-Ang)
        XX    -407.2596     XY      13.8996     YY    -426.2658
        XZ      12.1076     YZ     -13.7796     ZZ    -439.3741

 Total job time:  84.93s(wall), 912.06s(cpu)
        *  Thank you very much for using Q-Chem.  Have a nice day.  *
