 Q-Chem 4.4, Q-Chem, Inc., Pleasanton, CA (2016)
 Q-Chem 4.4.2 for Intel X86 Linux

User input:
--------------------------------------------------------------
$comment
SP
$end

$rem
MEM_STATIC 5000
MEM_TOTAL 20000
JOBTYPE SP
EXCHANGE B3LYP
BASIS 6-31g(d,p)
$end

$molecule
0 1
C          27.523000     30.063000      0.479000
C          26.341000     29.792000      1.137000
N          27.942000     29.432000     -0.659000
C          25.454000     28.844000      0.668000
C          27.079000     28.500000     -1.140000
C          25.801000     28.158000     -0.534000
C          24.812000     27.160000     -1.150000
C          25.266000     25.863000     -1.607000
C          23.433000     27.335000     -1.336000
N          24.455000     24.959000     -2.223000
N          22.887000     28.485000     -0.926000
C          22.576000     26.430000     -1.980000
C          23.177000     25.215000     -2.419000
S          21.384000     28.352000     -1.420000
N          21.360000     26.903000     -2.176000
C          22.428000     24.216000     -3.240000
S          20.737000     24.311000     -3.586000
C          22.945000     23.119000     -3.933000
C          20.794000     23.059000     -4.830000
S          24.594000     22.679000     -4.177000
C          22.092000     22.543000     -4.818000
C          19.705000     22.572000     -5.713000
C          24.032000     21.456000     -5.288000
C          22.658000     21.447000     -5.544000
N          18.496000     23.197000     -5.578000
S          19.680000     21.073000     -6.664000
C          17.613000     22.587000     -6.386000
C          18.035000     21.491000     -7.115000
C          28.544000     31.051000      1.101000
H          26.188000     30.346000      2.059000
H          24.494000     28.728000      1.164000
H          27.414000     27.890000     -1.977000
H          26.292000     25.576000     -1.384000
H          24.707000     20.769000     -5.781000
H          22.247000     20.873000     -6.366000
H          16.682000     23.112000     -6.554000
H          17.494000     20.869000     -7.816000
H          29.142000     31.598000      0.361000
C          29.471000     30.226000      2.006000
H          28.009000     31.843000      1.639000
H          29.985000     29.409000      1.484000
H          28.791000     29.750000      2.723000
C          30.574000     31.125000      2.628000
H          31.140000     31.562000      1.797000
C          31.558000     30.376000      3.539000
H          30.084000     31.898000      3.233000
H          32.258000     29.873000      2.861000
H          31.019000     29.586000      4.078000
C          32.271000     31.343000      4.470000
H          32.812000     32.091000      3.876000
C          33.107000     30.695000      5.601000
H          31.418000     31.732000      5.039000
H          32.541000     30.029000      6.264000
H          33.724000     31.457000      6.093000
H          33.790000     29.947000      5.179000
C          15.276000      8.453000     -3.146000
C          14.006000      9.084000     -3.257000
N          16.464000      9.031000     -3.022000
C          14.049000     10.520000     -3.144000
C          16.358000     10.352000     -2.907000
C          15.236000     11.203000     -2.972000
C          15.362000     12.634000     -2.726000
C          16.407000     13.421000     -3.280000
C          14.291000     13.429000     -2.104000
N          16.465000     14.752000     -3.160000
N          13.142000     12.986000     -1.626000
C          14.338000     14.829000     -2.091000
C          15.468000     15.440000     -2.605000
S          12.290000     14.187000     -0.995000
N          13.289000     15.365000     -1.568000
C          15.669000     16.923000     -2.728000
S          14.400000     18.157000     -2.410000
C          16.798000     17.584000     -3.233000
C          15.343000     19.488000     -2.946000
S          18.359000     17.064000     -3.656000
C          16.563000     18.978000     -3.320000
C          14.839000     20.760000     -3.300000
C          18.730000     18.745000     -4.166000
C          17.655000     19.595000     -4.013000
N          15.635000     21.737000     -3.690000
S          13.086000     21.198000     -3.222000
C          14.923000     22.903000     -3.925000
C          13.549000     22.797000     -3.698000
C          15.266000      7.019000     -3.254000
H          13.067000      8.616000     -3.536000
H          13.071000     10.993000     -3.162000
H          17.298000     10.865000     -2.707000
H          17.222000     12.900000     -3.780000
H          19.661000     18.966000     -4.672000
H          17.782000     20.651000     -4.222000
H          15.513000     23.737000     -4.284000
H          12.825000     23.601000     -3.677000
H          16.217000      6.514000     -3.040000
C          14.820000      6.619000     -4.671000
H          14.523000      6.634000     -2.545000
H          15.223000      7.221000     -5.496000
H          13.743000      6.781000     -4.800000
C          15.102000      5.108000     -5.031000
H          16.158000      4.812000     -5.010000
C          14.495000      4.661000     -6.349000
H          14.770000      4.463000     -4.209000
H          13.398000      4.673000     -6.351000
H          14.945000      3.671000     -6.490000
C          14.888000      5.402000     -7.600000
H          14.549000      6.446000     -7.612000
C          14.341000      4.771000     -8.915000
H          15.983000      5.443000     -7.648000
H          13.255000      4.919000     -8.963000
H          14.634000      3.726000     -9.074000
H          14.708000      5.373000     -9.755000
$end

--------------------------------------------------------------

             Standard Nuclear Orientation (Angstroms)
    I     Atom           X                Y                Z
 ----------------------------------------------------------------
    1      C     -12.9834086073    -1.0470144718    -0.4134627371
    2      C     -12.2407501998    -0.4415761761    -1.4061519936
    3      N     -12.4793793485    -1.4771550007     0.7822377403
    4      C     -10.8904779631    -0.1995552398    -1.2524485349
    5      C     -11.1529567752    -1.2415919026     0.9550589887
    6      C     -10.2895086756    -0.5911509846    -0.0190395645
    7      C      -8.8134048784    -0.2650538654     0.2424164527
    8      C      -7.9236135144    -1.2711552463     0.7839008381
    9      C      -8.1566924594     0.9510866041     0.0045232892
   10      N      -6.6219691940    -1.0281228948     1.1017849985
   11      N      -8.8673365905     1.9533832833    -0.5237780317
   12      C      -6.8233055974     1.2357518659     0.3350609799
   13      C      -6.0846801653     0.1594242723     0.9061112250
   14      S      -7.8319308117     3.1569468957    -0.5136043454
   15      N      -6.4960162849     2.5023492998     0.1635569090
   16      C      -4.6999139144     0.3463729769     1.4357484708
   17      S      -3.7745040329     1.7950229856     1.2533979742
   18      C      -3.9603630618    -0.5364913789     2.2260408633
   19      C      -2.5466449625     1.3065831628     2.4247551541
   20      S      -4.4667948853    -2.0174136570     2.9490436395
   21      C      -2.8481173387    -0.0060340111     2.7953689167
   22      C      -1.3765085055     2.0719012902     2.9225983383
   23      C      -2.9467152184    -2.0393826003     3.8062304172
   24      C      -2.1299360251    -0.9186628236     3.6320123602
   25      N      -1.2414711937     3.3451084791     2.4417247805
   26      S       0.0389112160     1.4341612282     3.7839354531
   27      C      -0.1003020670     3.8610039710     2.9277678504
   28      C       0.6980170143     3.0608372615     3.7234819205
   29      C     -14.4702735089    -1.4052048327    -0.6711474858
   30      H     -12.7867568773    -0.2127426569    -2.3171519544
   31      H     -10.3640402720     0.3621198501    -2.0195576866
   32      H     -10.6788959467    -1.6642833694     1.8390794946
   33      H      -8.3019144435    -2.2875667165     0.8764758364
   34      H      -2.6659509785    -2.8511472060     4.4641458118
   35      H      -1.2758971602    -0.7447487842     4.2757922327
   36      H       0.0219147819     4.9303595483     2.8175331413
   37      H       1.6388808658     3.2793583080     4.2113238675
   38      H     -15.0976918978    -1.3765468883     0.2288180065
   39      C     -14.4926560792    -2.8187941655    -1.2713501339
   40      H     -14.9222896579    -0.6510383959    -1.3267749613
   41      H     -14.0119471447    -3.5750364871    -0.6379580978
   42      H     -13.8729082962    -2.7368469724    -2.1726061148
   43      C     -15.9527359941    -3.2927854791    -1.5062817764
   44      H     -16.4554405430    -3.2825766565    -0.5320795815
   45      C     -16.0693421072    -4.7074720071    -2.0930040633
   46      H     -16.4274355085    -2.6002733148    -2.2124979425
   47      H     -15.9149265129    -5.3877525014    -1.2467964803
   48      H     -15.2380666111    -4.8775501507    -2.7895645234
   49      C     -17.4299985033    -4.9108339501    -2.7391287354
   50      H     -18.2175156296    -4.7541213376    -1.9906109115
   51      C     -17.5900375531    -6.2026637376    -3.5778922914
   52      H     -17.3860698792    -4.1532447822    -3.5308483377
   53      H     -16.8687309875    -6.3079763105    -4.3977136746
   54      H     -18.6450533497    -6.3494838572    -3.8401565121
   55      H     -17.2782903488    -7.0729101554    -2.9866547310
   56      C      11.9989657877    -3.3623236367    -1.2147411300
   57      C      12.2113555397    -1.9810028314    -1.4797419337
   58      N      10.8501268809    -3.9745034603    -0.9574299761
   59      C      11.0022844705    -1.1991214348    -1.5390936938
   60      C       9.8161092826    -3.1448376289    -1.0668110288
   61      C       9.7594909119    -1.7601621521    -1.3252257811
   62      C       8.4823900898    -1.0765842545    -1.4861224810
   63      C       7.3769863564    -1.2974991132    -0.6214900670
   64      C       8.3074663396     0.0758005771    -2.3846551079
   65      N       6.2432893750    -0.5904232121    -0.6855199392
   66      N       9.2066991158     0.5967197097    -3.2001044757
   67      C       7.1450641145     0.8567535100    -2.3484393161
   68      C       6.1273617519     0.4574143209    -1.5003667289
   69      S       8.5802001509     1.8149681893    -4.0306679526
   70      N       7.1872788864     1.8633195778    -3.1523476841
   71      C       4.8394882171     1.1991353885    -1.2857726560
   72      S       4.4783432879     2.8332190531    -1.9442450679
   73      C       3.7800677571     0.8277797529    -0.4453499760
   74      C       2.9851432226     3.0060871920    -1.1144401682
   75      S       3.4223421062    -0.5900659604     0.4194019491
   76      C       2.7980244736     1.8473609596    -0.3997961365
   77      C       2.3031624878     4.2250929902    -0.8993979835
   78      C       1.9565204059     0.2258163341     1.0590931436
   79      C       1.8317557554     1.5226909275     0.6073364935
   80      N       1.1490806297     4.2706156404    -0.2620066177
   81      S       2.9014020652     5.8241956568    -1.4959858393
   82      C       0.6443816349     5.5612423331    -0.2261365071
   83      C       1.4444665736     6.5127048934    -0.8627086454
   84      C      13.1872016330    -4.1698091892    -1.1500676549
   85      H      13.1641243130    -1.4615429247    -1.5110320271
   86      H      11.1629971699    -0.1586718119    -1.8077440437
   87      H       8.8419222219    -3.6203157339    -0.9588798362
   88      H       7.4473493784    -2.1190111565     0.0897293140
   89      H       1.3630339272    -0.2494891193     1.8294804005
   90      H       0.9475527247     2.0916220948     0.8708669991
   91      H      -0.2862015204     5.6756308231     0.3155896825
   92      H       1.1890967612     7.5409182090    -1.0831550936
   93      H      13.0286665273    -5.2536725508    -1.0770687945
   94      C      14.0369939900    -3.7282815821     0.0539719301
   95      H      13.7696266718    -3.9837737028    -2.0606316955
   96      H      13.4895126078    -3.4962619347     0.9769394373
   97      H      14.5261680194    -2.7674192948    -0.1466930488
   98      C      15.1759897211    -4.7488752570     0.4455358139
   99      H      14.8282436393    -5.7468326586     0.7393838820
  100      C      16.1332604306    -4.2329741369     1.5051870881
  101      H      15.7196682720    -5.0605022581    -0.4540392222
  102      H      16.7299226764    -3.3740526063     1.1738187601
  103      H      16.7142982733    -5.1296009003     1.7520402275
  104      C      15.5627397289    -3.8125881077     2.8342140688
  105      H      14.9068240334    -2.9348579445     2.7681431898
  106      C      16.6352982020    -3.4517849742     3.9047440406
  107      H      14.9341178365    -4.6272604272     3.2138896252
  108      H      17.1248080726    -2.5109935924     3.6238603235
  109      H      17.3511584149    -4.2546010443     4.1196521915
  110      H      16.1106615986    -3.1883333196     4.8310499620
 ----------------------------------------------------------------

   10   -5663.5139418670      3.88E-06 Convergence criterion met
 Total energy in the final basis set = -5663.5139418670

                    Orbital Energies (a.u.)
 --------------------------------------------------------------

 Alpha MOs
 -- Occupied --
-88.990 -88.987 -88.933 -88.922 -88.922 -88.918 -88.912 -88.906
-14.389 -14.385 -14.375 -14.374 -14.352 -14.347 -14.344 -14.340
-14.337 -14.332 -10.276 -10.267 -10.266 -10.261 -10.257 -10.255
-10.255 -10.247 -10.244 -10.243 -10.241 -10.240 -10.239 -10.235
-10.233 -10.230 -10.229 -10.229 -10.229 -10.228 -10.227 -10.226
-10.226 -10.226 -10.226 -10.225 -10.224 -10.224 -10.216 -10.214
-10.209 -10.207 -10.205 -10.204 -10.203 -10.200 -10.196 -10.187
-10.187 -10.184 -10.182 -10.179 -10.179 -10.177 -10.177 -10.176
-10.175 -10.174 -10.173 -10.172  -8.046  -8.044  -7.993  -7.983
 -7.981  -7.978  -7.972  -7.966  -6.012  -6.009  -6.006  -6.003
 -6.003  -6.001  -5.956  -5.953  -5.950  -5.947  -5.945  -5.943
 -5.942  -5.941  -5.940  -5.938  -5.938  -5.937  -5.935  -5.933
 -5.930  -5.928  -5.927  -5.922  -1.058  -1.050  -0.963  -0.963
 -0.962  -0.961  -0.953  -0.934  -0.925  -0.918  -0.911  -0.906
 -0.849  -0.843  -0.837  -0.831  -0.813  -0.810  -0.808  -0.806
 -0.804  -0.802  -0.797  -0.794  -0.791  -0.785  -0.767  -0.766
 -0.745  -0.743  -0.740  -0.737  -0.725  -0.717  -0.714  -0.709
 -0.693  -0.692  -0.679  -0.673  -0.657  -0.655  -0.648  -0.648
 -0.633  -0.633  -0.629  -0.628  -0.612  -0.608  -0.599  -0.598
 -0.592  -0.587  -0.584  -0.581  -0.579  -0.575  -0.570  -0.558
 -0.551  -0.545  -0.543  -0.541  -0.529  -0.526  -0.517  -0.510
 -0.506  -0.506  -0.501  -0.499  -0.493  -0.491  -0.483  -0.480
 -0.478  -0.475  -0.472  -0.470  -0.468  -0.464  -0.448  -0.447
 -0.442  -0.442  -0.436  -0.434  -0.433  -0.431  -0.430  -0.429
 -0.428  -0.426  -0.425  -0.422  -0.420  -0.418  -0.415  -0.412
 -0.411  -0.410  -0.407  -0.404  -0.402  -0.401  -0.397  -0.395
 -0.394  -0.393  -0.391  -0.390  -0.388  -0.385  -0.384  -0.383
 -0.377  -0.375  -0.373  -0.370  -0.364  -0.364  -0.356  -0.355
 -0.354  -0.352  -0.349  -0.347  -0.347  -0.345  -0.343  -0.342
 -0.338  -0.337  -0.334  -0.329  -0.327  -0.327  -0.326  -0.325
 -0.321  -0.313  -0.309  -0.308  -0.306  -0.302  -0.300  -0.299
 -0.298  -0.296  -0.296  -0.288  -0.287  -0.286  -0.283  -0.279
 -0.275  -0.270  -0.268  -0.265  -0.263  -0.259  -0.251  -0.246
 -0.244  -0.240  -0.237  -0.228  -0.193  -0.190

          Ground-State Mulliken Net Atomic Charges

     Atom                 Charge (a.u.)
  ----------------------------------------
      1 C                     0.250097
      2 C                    -0.100127
      3 N                    -0.472101
      4 C                    -0.050388
      5 C                     0.081298
      6 C                     0.008699
      7 C                     0.022974
      8 C                     0.047156
      9 C                     0.174992
     10 N                    -0.532792
     11 N                    -0.517830
     12 C                     0.255123
     13 C                     0.338023
     14 S                     0.594534
     15 N                    -0.564731
     16 C                    -0.233422
     17 S                     0.359327
     18 C                    -0.116183
     19 C                    -0.225080
     20 S                     0.299931
     21 C                     0.124587
     22 C                     0.029462
     23 C                    -0.303837
     24 C                    -0.086857
     25 N                    -0.421219
     26 S                     0.269724
     27 C                     0.143012
     28 C                    -0.310017
     29 C                    -0.221070
     30 H                     0.089291
     31 H                     0.114635
     32 H                     0.103075
     33 H                     0.117263
     34 H                     0.122696
     35 H                     0.120571
     36 H                     0.105462
     37 H                     0.139960
     38 H                     0.112429
     39 C                    -0.176219
     40 H                     0.095197
     41 H                     0.112087
     42 H                     0.089668
     43 C                    -0.175726
     44 H                     0.096822
     45 C                    -0.177667
     46 H                     0.086997
     47 H                     0.089320
     48 H                     0.088670
     49 C                    -0.168101
     50 H                     0.096376
     51 C                    -0.324529
     52 H                     0.098164
     53 H                     0.103630
     54 H                     0.103673
     55 H                     0.096899
     56 C                     0.278744
     57 C                    -0.111569
     58 N                    -0.465193
     59 C                    -0.093031
     60 C                     0.056500
     61 C                     0.079892
     62 C                     0.028206
     63 C                     0.063478
     64 C                     0.223313
     65 N                    -0.526915
     66 N                    -0.559748
     67 C                     0.264080
     68 C                     0.329163
     69 S                     0.593198
     70 N                    -0.600183
     71 C                    -0.239921
     72 S                     0.304047
     73 C                    -0.078193
     74 C                    -0.195324
     75 S                     0.273427
     76 C                     0.100643
     77 C                     0.064670
     78 C                    -0.310165
     79 C                    -0.056834
     80 N                    -0.431806
     81 S                     0.258057
     82 C                     0.115499
     83 C                    -0.315497
     84 C                    -0.239587
     85 H                     0.103161
     86 H                     0.108223
     87 H                     0.085643
     88 H                     0.117570
     89 H                     0.128021
     90 H                     0.147675
     91 H                     0.124294
     92 H                     0.136229
     93 H                     0.113555
     94 C                    -0.183187
     95 H                     0.107667
     96 H                     0.109668
     97 H                     0.090717
     98 C                    -0.188729
     99 H                     0.092201
    100 C                    -0.160311
    101 H                     0.088625
    102 H                     0.086971
    103 H                     0.088799
    104 C                    -0.175974
    105 H                     0.090592
    106 C                    -0.320788
    107 H                     0.090071
    108 H                     0.101599
    109 H                     0.104075
    110 H                     0.100754
  ----------------------------------------
  Sum of atomic charges =     0.000000

                    Cartesian Multipole Moments
 -----------------------------------------------------------------
    Charge (ESU x 10^10)
                 0.0000
    Dipole Moment (Debye)
         X       1.4574      Y       2.7101      Z      -0.5876
       Tot       3.1328
    Quadrupole Moments (Debye-Ang)
        XX    -401.3959     XY      11.2456     YY    -433.0962
        XZ      18.6284     YZ      -7.8100     ZZ    -431.1086

 Total job time:  92.89s(wall), 1014.64s(cpu)
        *  Thank you very much for using Q-Chem.  Have a nice day.  *
