 Q-Chem 4.4, Q-Chem, Inc., Pleasanton, CA (2016)
 Q-Chem 4.4.2 for Intel X86 Linux

User input:
--------------------------------------------------------------
$comment
SP
$end

$rem
MEM_STATIC 5000
MEM_TOTAL 20000
JOBTYPE SP
EXCHANGE B3LYP
BASIS 6-31g(d,p)
$end

$molecule
0 1
C          11.543000     11.175000      1.142000
C          10.419000     11.428000      0.352000
N          11.504000     11.482000      2.480000
C           9.239000     11.872000      0.926000
C          10.393000     11.826000      3.032000
C           9.203000     12.102000      2.347000
C           7.943000     12.547000      3.004000
C           7.068000     13.538000      2.438000
C           7.370000     11.847000      4.088000
N           5.884000     13.910000      2.885000
N           8.023000     10.961000      4.804000
C           6.150000     12.283000      4.644000
C           5.456000     13.333000      4.048000
S           6.952000     10.483000      5.979000
N           5.775000     11.545000      5.731000
C           4.235000     13.886000      4.567000
S           2.808000     14.371000      3.642000
C           3.995000     14.096000      5.869000
C           1.970000     14.942000      5.097000
S           5.048000     14.047000      7.237000
C           2.798000     14.769000      6.181000
C           0.557000     15.448000      5.185000
C           3.780000     14.614000      8.254000
C           2.631000     14.930000      7.545000
N          -0.243000     15.164000      4.169000
S          -0.063000     16.580000      6.370000
C          -1.431000     15.792000      4.293000
C          -1.557000     16.618000      5.425000
C          12.796000     10.612000      0.562000
H          10.441000     11.223000     -0.714000
H           8.386000     12.056000      0.279000
H          10.430000     11.950000      4.114000
H           7.450000     14.006000      1.532000
H           3.909000     14.550000      9.326000
H           1.734000     15.334000      8.001000
H          -2.195000     15.828000      3.528000
H          -2.394000     17.272000      5.636000
H          12.750000     10.476000     -0.526000
C          13.031000      9.126000      0.869000
H          13.666000     11.224000      0.828000
H          12.321000      8.518000      0.295000
H          12.765000      8.929000      1.915000
C          14.422000      8.635000      0.499000
H          14.522000      8.883000     -0.565000
C          14.401000      7.076000      0.595000
H          15.127000      9.230000      1.092000
H          13.687000      6.801000     -0.191000
H          14.068000      6.725000      1.579000
C          15.755000      6.484000      0.222000
H          16.249000      6.986000     -0.619000
C          15.739000      5.053000      0.000000
H          16.438000      6.791000      1.024000
H          15.416000      4.514000      0.899000
H          16.760000      4.748000     -0.259000
H          15.170000      4.756000     -0.890000
C          15.276000      8.453000     -3.146000
C          14.006000      9.084000     -3.257000
N          16.464000      9.031000     -3.022000
C          14.049000     10.520000     -3.144000
C          16.358000     10.352000     -2.907000
C          15.236000     11.203000     -2.972000
C          15.362000     12.634000     -2.726000
C          16.407000     13.421000     -3.280000
C          14.291000     13.429000     -2.104000
N          16.465000     14.752000     -3.160000
N          13.142000     12.986000     -1.626000
C          14.338000     14.829000     -2.091000
C          15.468000     15.440000     -2.605000
S          12.290000     14.187000     -0.995000
N          13.289000     15.365000     -1.568000
C          15.669000     16.923000     -2.728000
S          14.400000     18.157000     -2.410000
C          16.798000     17.584000     -3.233000
C          15.343000     19.488000     -2.946000
S          18.359000     17.064000     -3.656000
C          16.563000     18.978000     -3.320000
C          14.839000     20.760000     -3.300000
C          18.730000     18.745000     -4.166000
C          17.655000     19.595000     -4.013000
N          15.635000     21.737000     -3.690000
S          13.086000     21.198000     -3.222000
C          14.923000     22.903000     -3.925000
C          13.549000     22.797000     -3.698000
C          15.266000      7.019000     -3.254000
H          13.067000      8.616000     -3.536000
H          13.071000     10.993000     -3.162000
H          17.298000     10.865000     -2.707000
H          17.222000     12.900000     -3.780000
H          19.661000     18.966000     -4.672000
H          17.782000     20.651000     -4.222000
H          15.513000     23.737000     -4.284000
H          12.825000     23.601000     -3.677000
H          16.217000      6.514000     -3.040000
C          14.820000      6.619000     -4.671000
H          14.523000      6.634000     -2.545000
H          15.223000      7.221000     -5.496000
H          13.743000      6.781000     -4.800000
C          15.102000      5.108000     -5.031000
H          16.158000      4.812000     -5.010000
C          14.495000      4.661000     -6.349000
H          14.770000      4.463000     -4.209000
H          13.398000      4.673000     -6.351000
H          14.945000      3.671000     -6.490000
C          14.888000      5.402000     -7.600000
H          14.549000      6.446000     -7.612000
C          14.341000      4.771000     -8.915000
H          15.983000      5.443000     -7.648000
H          13.255000      4.919000     -8.963000
H          14.634000      3.726000     -9.074000
H          14.708000      5.373000     -9.755000
$end

--------------------------------------------------------------

             Standard Nuclear Orientation (Angstroms)
    I     Atom           X                Y                Z
 ----------------------------------------------------------------
    1      C       0.2052814262     2.1733993228    -1.1009955802
    2      C      -0.2735308416     1.9362592847     0.1897361559
    3      N      -0.6348767449     1.9883166714    -2.1714593393
    4      C      -1.6083848872     1.6328053244     0.4020857990
    5      C      -1.8901367978     1.7771677248    -1.9788474966
    6      C      -2.4856023962     1.5312511310    -0.7352853751
    7      C      -3.9332377248     1.2399890416    -0.5434720530
    8      C      -4.4226376736     0.2708523469     0.3995675841
    9      C      -4.9457544750     2.0726223754    -1.0677969161
   10      N      -5.6792011725     0.0281144388     0.7192165810
   11      N      -4.7341933573     2.9670159375    -2.0055405109
   12      C      -6.3016117814     1.7785052093    -0.8172414186
   13      C      -6.6339934684     0.7347237433     0.0426391926
   14      S      -6.2263621838     3.6239663696    -2.3185873494
   15      N      -7.1516932399     2.6344808077    -1.4587281984
   16      C      -7.9822514739     0.3212161209     0.3205290928
   17      S      -8.6534827811    -0.1357514562     1.8914549872
   18      C      -8.9531536399     0.2442380741    -0.6005177922
   19      C     -10.2361643872    -0.5136657479     1.1860404126
   20      S      -8.8889621068     0.3345274438    -2.3239914000
   21      C     -10.1755445608    -0.3083585441    -0.1721728213
   22      C     -11.4848066115    -0.9039478472     1.9269327655
   23      C     -10.5650161550    -0.0458568618    -2.4227466913
   24      C     -11.1179170545    -0.3366462596    -1.1848128799
   25      N     -11.5113506699    -0.6513946803     3.2263265899
   26      S     -12.7974783709    -1.8789275099     1.2973642552
   27      C     -12.6126415493    -1.1763947789     3.8030737577
   28      C     -13.4615481233    -1.8886257248     2.9360900738
   29      C       1.6158117926     2.5891358931    -1.3478663755
   30      H       0.3841020445     2.0450593437     1.0467930585
   31      H      -1.9433849031     1.4566374063     1.4203263669
   32      H      -2.5003633028     1.7458617847    -2.8811293543
   33      H      -3.6416504784    -0.3015931348     0.8977133171
   34      H     -11.0742295511     0.1019076232    -3.3655024254
   35      H     -12.1514076053    -0.6316498680    -1.0411773951
   36      H     -12.7909831272    -1.2224507425     4.8690428613
   37      H     -14.3325501313    -2.4578518654     3.2363284841
   38      H       2.2235756070     2.6325048727    -0.4351242008
   39      C       1.7931839856     4.0747787964    -1.6929377726
   40      H       2.0965728855     1.9399723118    -2.0892538695
   41      H       1.6195163363     4.6811806268    -0.7955212764
   42      H       0.9947263531     4.3816584332    -2.3799394448
   43      C       3.1856248406     4.4271295049    -2.1927571835
   44      H       3.8547343314     4.0803107041    -1.3955061511
   45      C       3.2864551510     5.9858067594    -2.2150386740
   46      H       3.3457007425     3.8356739554    -3.1022928005
   47      H       3.1952440827     6.2431604931    -1.1526514580
   48      H       2.4868888260     6.4452137895    -2.8083218043
   49      C       4.6619751159     6.4409708509    -2.6879863199
   50      H       5.4920301380     5.8321355216    -2.3089754994
   51      C       4.9366879591     7.8443128486    -2.4589337245
   52      H       4.7153238668     6.1555239184    -3.7461053867
   53      H       4.2153088947     8.4823070548    -2.9839352848
   54      H       5.9453023807     8.0490089522    -2.8375409795
   55      H       5.0252570662     8.1036841278    -1.3964121704
   56      C       6.0056765666     4.2259117488     0.2679916207
   57      C       4.9738438009     3.6834565673     1.0831268975
   58      N       6.8292998876     3.5745461957    -0.5432861008
   59      C       4.7834815058     2.2636153303     0.9265157276
   60      C       6.5302046371     2.2801613129    -0.6111963824
   61      C       5.5668354748     1.5122132821     0.0739938680
   62      C       5.3670889810     0.1028202120    -0.2388407720
   63      C       6.4444212317    -0.8048627248    -0.4226257224
   64      C       4.0534687307    -0.5531989527    -0.1388873150
   65      N       6.2738003243    -2.1208951018    -0.5907693773
   66      N       2.8978640031     0.0138101597     0.1577814904
   67      C       3.9282269458    -1.9463185334    -0.2157659805
   68      C       5.0706402211    -2.6819609662    -0.4768006897
   69      S       1.7107959229    -1.0609720338     0.1111059124
   70      N       2.7184870848    -2.3553317373    -0.0412275380
   71      C       5.1392961340    -4.1808361904    -0.5357788897
   72      S       3.7928851558    -5.2848767927    -0.0857646385
   73      C       6.2701317324    -4.9652880137    -0.8049130312
   74      C       4.7169072069    -6.7238436946    -0.2395941033
   75      S       7.8338045545    -4.6013582952    -1.3603700194
   76      C       5.9756410196    -6.3402987286    -0.6356476955
   77      C       4.3732381714    -7.9810768626     0.3068236447
   78      C       8.2417886228    -6.3433660851    -1.2105038792
   79      C       7.1903062452    -7.0947393388    -0.7295079922
   80      N       5.1333644916    -9.0447181205     0.1304143143
   81      S       2.8632912777    -8.2794912160     1.2565321535
   82      C       4.5645743513   -10.1708330023     0.7049298053
   83      C       3.3350311485    -9.9438823653     1.3273106540
   84      C       6.2195798529     5.6417584591     0.4011962639
   85      H       4.4288558946     4.1935444251     1.8714063906
   86      H       3.9512650012     1.8646175224     1.4998859734
   87      H       7.1167261607     1.7183875550    -1.3372623210
   88      H       7.4501519832    -0.3914025051    -0.4793910468
   89      H       9.2621860488    -6.6761352278    -1.3508313201
   90      H       7.2964497459    -8.1714663156    -0.6636401348
   91      H       5.1562493438   -11.0744433588     0.6278193209
   92      H       2.6486145274   -10.6871071377     1.7113447149
   93      H       6.9200874758     6.0916855148    -0.3143990930
   94      C       6.7240224481     5.9482531666     1.8219016036
   95      H       5.2517791934     6.1412699415     0.2715615366
   96      H       7.4601848395     5.2482181010     2.2383795029
   97      H       5.9106703022     5.8558340711     2.5517858393
   98      C       7.3282412203     7.3969216335     1.9907931323
   99      H       8.2020473850     7.6145692296     1.3644662924
  100      C       7.6505459748     7.7706922852     3.4266890704
  101      H       6.6559515554     8.1341506589     1.5364221708
  102      H       6.7642028426     7.8398723313     4.0694697275
  103      H       8.2057698022     8.7084980857     3.3053309970
  104      C       8.6097673956     6.8960614569     4.1905255582
  105      H       8.2267709729     5.8830081354     4.3695163620
  106      C       8.9992653846     7.4484365657     5.5940098138
  107      H       9.5175441630     6.7700064754     3.5879797241
  108      H       8.1333121497     7.3776752645     6.2638768403
  109      H       9.4441988257     8.4509378748     5.5805800584
  110      H       9.7150295508     6.7497569989     6.0437002865
 ----------------------------------------------------------------

   10   -5663.5084330330      3.72E-06 Convergence criterion met
 Total energy in the final basis set = -5663.5084330330

                    Orbital Energies (a.u.)
 --------------------------------------------------------------

 Alpha MOs
 -- Occupied --
-88.991 -88.991 -88.932 -88.924 -88.923 -88.920 -88.909 -88.907
-14.389 -14.379 -14.376 -14.374 -14.352 -14.349 -14.343 -14.342
-14.337 -14.326 -10.273 -10.270 -10.263 -10.260 -10.256 -10.256
-10.252 -10.248 -10.246 -10.242 -10.241 -10.239 -10.235 -10.233
-10.232 -10.232 -10.232 -10.231 -10.230 -10.230 -10.229 -10.229
-10.228 -10.227 -10.225 -10.222 -10.222 -10.220 -10.217 -10.216
-10.214 -10.213 -10.207 -10.206 -10.203 -10.199 -10.199 -10.191
-10.187 -10.181 -10.180 -10.178 -10.177 -10.176 -10.175 -10.175
-10.171 -10.170 -10.164 -10.164  -8.047  -8.046  -7.993  -7.985
 -7.982  -7.980  -7.969  -7.969  -6.012  -6.012  -6.006  -6.006
 -6.005  -6.004  -5.956  -5.953  -5.950  -5.949  -5.946  -5.946
 -5.944  -5.942  -5.942  -5.940  -5.938  -5.937  -5.933  -5.933
 -5.930  -5.929  -5.925  -5.925  -1.051  -1.044  -0.969  -0.965
 -0.963  -0.963  -0.958  -0.947  -0.922  -0.913  -0.910  -0.908
 -0.851  -0.845  -0.841  -0.830  -0.816  -0.816  -0.812  -0.811
 -0.804  -0.804  -0.799  -0.797  -0.794  -0.791  -0.771  -0.769
 -0.752  -0.746  -0.745  -0.739  -0.725  -0.719  -0.717  -0.715
 -0.696  -0.695  -0.681  -0.676  -0.660  -0.656  -0.651  -0.644
 -0.635  -0.634  -0.632  -0.625  -0.614  -0.609  -0.602  -0.600
 -0.598  -0.590  -0.588  -0.578  -0.577  -0.571  -0.570  -0.560
 -0.553  -0.550  -0.543  -0.541  -0.529  -0.527  -0.517  -0.513
 -0.510  -0.509  -0.503  -0.502  -0.495  -0.492  -0.482  -0.480
 -0.479  -0.476  -0.473  -0.471  -0.471  -0.469  -0.451  -0.449
 -0.445  -0.443  -0.441  -0.439  -0.437  -0.434  -0.433  -0.432
 -0.432  -0.429  -0.428  -0.428  -0.422  -0.418  -0.415  -0.414
 -0.414  -0.412  -0.409  -0.409  -0.406  -0.406  -0.401  -0.398
 -0.397  -0.395  -0.392  -0.390  -0.388  -0.388  -0.387  -0.386
 -0.378  -0.375  -0.373  -0.372  -0.367  -0.367  -0.359  -0.356
 -0.352  -0.350  -0.350  -0.348  -0.348  -0.346  -0.340  -0.339
 -0.336  -0.336  -0.331  -0.330  -0.329  -0.328  -0.325  -0.317
 -0.315  -0.315  -0.312  -0.307  -0.302  -0.301  -0.300  -0.298
 -0.297  -0.293  -0.293  -0.291  -0.289  -0.287  -0.284  -0.283
 -0.282  -0.272  -0.269  -0.267  -0.265  -0.251  -0.249  -0.248
 -0.245  -0.242  -0.232  -0.231  -0.195  -0.193

          Ground-State Mulliken Net Atomic Charges

     Atom                 Charge (a.u.)
  ----------------------------------------
      1 C                     0.268315
      2 C                    -0.134215
      3 N                    -0.475650
      4 C                    -0.070503
      5 C                     0.105272
      6 C                     0.014347
      7 C                    -0.003472
      8 C                     0.073263
      9 C                     0.250725
     10 N                    -0.493680
     11 N                    -0.545878
     12 C                     0.213649
     13 C                     0.232972
     14 S                     0.611393
     15 N                    -0.526455
     16 C                    -0.205515
     17 S                     0.340846
     18 C                    -0.105801
     19 C                    -0.222966
     20 S                     0.268981
     21 C                     0.137255
     22 C                     0.042814
     23 C                    -0.304408
     24 C                    -0.072563
     25 N                    -0.416557
     26 S                     0.275424
     27 C                     0.125832
     28 C                    -0.315045
     29 C                    -0.215057
     30 H                     0.091927
     31 H                     0.101918
     32 H                     0.107607
     33 H                     0.101343
     34 H                     0.134335
     35 H                     0.105876
     36 H                     0.117326
     37 H                     0.133326
     38 H                     0.116833
     39 C                    -0.189433
     40 H                     0.109769
     41 H                     0.080323
     42 H                     0.101976
     43 C                    -0.183852
     44 H                     0.102836
     45 C                    -0.168176
     46 H                     0.095611
     47 H                     0.084020
     48 H                     0.095870
     49 C                    -0.181163
     50 H                     0.105497
     51 C                    -0.310446
     52 H                     0.089706
     53 H                     0.099561
     54 H                     0.096011
     55 H                     0.096121
     56 C                     0.287432
     57 C                    -0.122609
     58 N                    -0.464476
     59 C                    -0.095436
     60 C                     0.054537
     61 C                     0.085438
     62 C                     0.026747
     63 C                     0.065034
     64 C                     0.229707
     65 N                    -0.528599
     66 N                    -0.566868
     67 C                     0.257348
     68 C                     0.331743
     69 S                     0.601774
     70 N                    -0.600647
     71 C                    -0.239302
     72 S                     0.308340
     73 C                    -0.080101
     74 C                    -0.196136
     75 S                     0.279348
     76 C                     0.106296
     77 C                     0.065590
     78 C                    -0.307523
     79 C                    -0.052259
     80 N                    -0.436559
     81 S                     0.263414
     82 C                     0.121815
     83 C                    -0.313760
     84 C                    -0.243490
     85 H                     0.104736
     86 H                     0.108268
     87 H                     0.088797
     88 H                     0.118011
     89 H                     0.125925
     90 H                     0.130084
     91 H                     0.115515
     92 H                     0.137401
     93 H                     0.117832
     94 C                    -0.188017
     95 H                     0.115231
     96 H                     0.110139
     97 H                     0.090666
     98 C                    -0.190443
     99 H                     0.093137
    100 C                    -0.160317
    101 H                     0.090038
    102 H                     0.087265
    103 H                     0.089742
    104 C                    -0.176602
    105 H                     0.090393
    106 C                    -0.320759
    107 H                     0.090478
    108 H                     0.101819
    109 H                     0.104538
    110 H                     0.101277
  ----------------------------------------
  Sum of atomic charges =     0.000000

                    Cartesian Multipole Moments
 -----------------------------------------------------------------
    Charge (ESU x 10^10)
                 0.0000
    Dipole Moment (Debye)
         X      -2.6630      Y      -0.6004      Z       2.1361
       Tot       3.4662
    Quadrupole Moments (Debye-Ang)
        XX    -402.2450     XY      10.4739     YY    -415.4250
        XZ      16.2483     YZ      -4.5548     ZZ    -443.4220

 Total job time:  100.41s(wall), 1103.29s(cpu)
        *  Thank you very much for using Q-Chem.  Have a nice day.  *
