 Q-Chem 4.4, Q-Chem, Inc., Pleasanton, CA (2016)
 Q-Chem 4.4.2 for Intel X86 Linux

User input:
--------------------------------------------------------------
$comment
SP
$end

$rem
MEM_STATIC 5000
MEM_TOTAL 20000
JOBTYPE SP
EXCHANGE B3LYP
BASIS 6-31g(d,p)
$end

$molecule
0 1
C           2.241000     18.856000     10.678000
C           3.570000     19.191000     10.754000
N           1.723000     18.268000      9.609000
C           4.441000     19.018000      9.700000
C           2.505000     17.939000      8.607000
C           3.864000     18.345000      8.551000
C           4.750000     17.919000      7.451000
C           6.040000     17.460000      7.664000
C           4.439000     18.010000      6.089000
N           6.887000     16.921000      6.703000
N           3.253000     18.485000      5.672000
C           5.322000     17.608000      5.082000
C           6.562000     17.011000      5.440000
S           3.266000     18.360000      4.063000
N           4.750000     17.717000      3.848000
C           7.647000     16.519000      4.571000
S           9.015000     15.631000      5.263000
C           8.063000     16.959000      3.348000
C           9.886000     15.554000      3.688000
S           7.378000     18.203000      2.383000
C           9.327000     16.449000      2.860000
C          11.151000     15.000000      3.552000
C           8.644000     17.926000      1.206000
C           9.539000     16.923000      1.579000
N          11.801000     15.030000      2.432000
S          11.976000     14.379000      5.006000
C          13.047000     14.472000      2.591000
C          13.272000     13.979000      3.863000
C           1.254000     19.160000     11.854000
H           3.910000     19.669000     11.668000
H           5.500000     19.220000      9.829000
H           2.083000     17.512000      7.698000
H           6.369000     17.350000      8.697000
H           8.520000     18.305000      0.200000
H          10.426000     16.656000      1.016000
H          13.751000     14.457000      1.769000
H          14.127000     13.456000      4.271000
H           1.659000     19.968000     12.477000
C           0.857000     17.983000     12.724000
H           0.352000     19.361000     11.262000
H           1.715000     17.685000     13.340000
H           0.718000     17.184000     11.986000
C          -0.316000     18.265000     13.653000
H          -0.247000     19.199000     14.225000
C          -0.708000     17.063000     14.593000
H          -1.151000     18.505000     12.984000
H          -0.564000     16.094000     14.099000
H          -1.747000     17.059000     14.945000
C           0.115000     17.079000     15.901000
H           1.175000     17.251000     15.676000
C          -0.029000     15.768000     16.792000
H          -0.248000     17.939000     16.477000
H          -1.009000     15.801000     17.285000
H           0.642000     15.822000     17.657000
H           0.118000     14.822000     16.256000
C          15.276000      8.453000     -3.146000
C          14.006000      9.084000     -3.257000
N          16.464000      9.031000     -3.022000
C          14.049000     10.520000     -3.144000
C          16.358000     10.352000     -2.907000
C          15.236000     11.203000     -2.972000
C          15.362000     12.634000     -2.726000
C          16.407000     13.421000     -3.280000
C          14.291000     13.429000     -2.104000
N          16.465000     14.752000     -3.160000
N          13.142000     12.986000     -1.626000
C          14.338000     14.829000     -2.091000
C          15.468000     15.440000     -2.605000
S          12.290000     14.187000     -0.995000
N          13.289000     15.365000     -1.568000
C          15.669000     16.923000     -2.728000
S          14.400000     18.157000     -2.410000
C          16.798000     17.584000     -3.233000
C          15.343000     19.488000     -2.946000
S          18.359000     17.064000     -3.656000
C          16.563000     18.978000     -3.320000
C          14.839000     20.760000     -3.300000
C          18.730000     18.745000     -4.166000
C          17.655000     19.595000     -4.013000
N          15.635000     21.737000     -3.690000
S          13.086000     21.198000     -3.222000
C          14.923000     22.903000     -3.925000
C          13.549000     22.797000     -3.698000
C          15.266000      7.019000     -3.254000
H          13.067000      8.616000     -3.536000
H          13.071000     10.993000     -3.162000
H          17.298000     10.865000     -2.707000
H          17.222000     12.900000     -3.780000
H          19.661000     18.966000     -4.672000
H          17.782000     20.651000     -4.222000
H          15.513000     23.737000     -4.284000
H          12.825000     23.601000     -3.677000
H          16.217000      6.514000     -3.040000
C          14.820000      6.619000     -4.671000
H          14.523000      6.634000     -2.545000
H          15.223000      7.221000     -5.496000
H          13.743000      6.781000     -4.800000
C          15.102000      5.108000     -5.031000
H          16.158000      4.812000     -5.010000
C          14.495000      4.661000     -6.349000
H          14.770000      4.463000     -4.209000
H          13.398000      4.673000     -6.351000
H          14.945000      3.671000     -6.490000
C          14.888000      5.402000     -7.600000
H          14.549000      6.446000     -7.612000
C          14.341000      4.771000     -8.915000
H          15.983000      5.443000     -7.648000
H          13.255000      4.919000     -8.963000
H          14.634000      3.726000     -9.074000
H          14.708000      5.373000     -9.755000
$end

--------------------------------------------------------------

             Standard Nuclear Orientation (Angstroms)
    I     Atom           X                Y                Z
 ----------------------------------------------------------------
    1      C     -12.6040104472     0.0358766826     0.1337580963
    2      C     -11.8869227071    -0.5616430115    -0.8727196174
    3      N     -12.0183763212     0.5525350608     1.2047043092
    4      C     -10.5221490085    -0.7418362662    -0.8063182408
    5      C     -10.7083742831     0.5498688200     1.2922060305
    6      C      -9.8952167452    -0.1426093349     0.3572719026
    7      C      -8.4226763164    -0.0889166512     0.4294784218
    8      C      -7.6253202806     0.1087382240    -0.6864543282
    9      C      -7.6671194139    -0.3162648429     1.5859785588
   10      N      -6.2489037425     0.3009061145    -0.6863298091
   11      N      -8.2547227363    -0.5826458085     2.7649075289
   12      C      -6.2695751596    -0.2709846877     1.5986972373
   13      C      -5.5733361560     0.0925397859     0.4132546166
   14      S      -7.0568798065    -0.7087312822     3.8391280690
   15      N      -5.7791770934    -0.4401604784     2.8607235003
   16      C      -4.1215492649     0.2021192321     0.1792521214
   17      S      -3.5081744056     0.8694848755    -1.3429917421
   18      C      -3.0863841357    -0.4972265425     0.7285549912
   19      C      -1.7933133684     0.5177038206    -0.9179073827
   20      S      -3.1540016730    -1.6963284820     1.9555710495
   21      C      -1.7884851232    -0.3510309478     0.1040351745
   22      C      -0.7366552817     0.7594883230    -1.7843085267
   23      C      -1.4190798259    -1.8797878059     1.8099590283
   24      C      -0.8520100137    -1.0480931903     0.8441024683
   25      N       0.4807926176     0.4209777206    -1.4996487568
   26      S      -1.0904593146     1.4015526898    -3.4100262313
   27      C       1.3140238467     0.7154225309    -2.5523543056
   28      C       0.6709700314     1.3354601083    -3.6076709373
   29      C     -14.1650658773     0.1331279186     0.0771088148
   30      H     -12.4476990843    -0.9573871547    -1.7143825118
   31      H      -9.9832895154    -1.1449369915    -1.6584134538
   32      H     -10.2172244115     0.9148047546     2.1934760052
   33      H      -8.1277310473     0.3006771437    -1.6341741563
   34      H      -0.8728783634    -2.3712468768     2.6044305155
   35      H       0.1940686259    -1.0666167416     0.5605476098
   36      H       2.3635388512     0.4538811734    -2.5118651281
   37      H       1.0637309170     1.7179776770    -4.5406431750
   38      H     -14.5593530067    -0.6390762324    -0.5961343870
   39      C     -14.7447172745     1.4859102177    -0.2887085014
   40      H     -14.3730899340     0.0434825413     1.1509610850
   41      H     -14.5574365050     1.6822388769    -1.3521016418
   42      H     -14.0983312682     2.1747884769     0.2680660264
   43      C     -16.2425117167     1.6069524207    -0.0428333422
   44      H     -16.8493601849     0.7777256403    -0.4280850563
   45      C     -16.8628634783     2.9933886111    -0.4611948869
   46      H     -16.3619238813     1.4535995420     1.0363374643
   47      H     -16.1656447466     3.8223923854    -0.2869198676
   48      H     -17.7856600979     3.2740726295     0.0613985312
   49      C     -17.2765917068     2.9992001443    -1.9502362493
   50      H     -16.4747506735     2.5711695399    -2.5647683957
   51      C     -17.6736210533     4.4300277355    -2.5233314442
   52      H     -18.1461453688     2.3348875515    -2.0258021680
   53      H     -18.6692610053     4.6836978383    -2.1374680421
   54      H     -17.8765760779     4.3647230052    -3.5984716909
   55      H     -16.9501645925     5.2298305903    -2.3214722289
   56      C       8.4256492189     5.1733157861    -0.6387338386
   57      C       7.5236467732     4.8208809802     0.4031698496
   58      N       8.9547726333     4.3789612848    -1.5605978951
   59      C       7.1012034360     3.4433630761     0.3767113787
   60      C       8.4642613238     3.1447413512    -1.4857526504
   61      C       7.5681802153     2.5551993222    -0.5709910186
   62      C       7.1049290242     1.1848129046    -0.7487335301
   63      C       7.9757370008     0.1168120160    -1.0942441232
   64      C       5.7620005712     0.7424605155    -0.3403005076
   65      N       7.5849157695    -1.1615711486    -1.1424130944
   66      N       4.7903547617     1.4894323203     0.1525194836
   67      C       5.4233167866    -0.6163438325    -0.3039406676
   68      C       6.3654329383    -1.5267656982    -0.7488745762
   69      S       3.4780044424     0.6096479618     0.4174385697
   70      N       4.2323371338    -0.8285607791     0.1407585952
   71      C       6.2026503923    -3.0193821469    -0.7284544959
   72      S       4.8378028745    -3.8887573762     0.0561593989
   73      C       7.1248021222    -3.9764628230    -1.1759137302
   74      C       5.4900692419    -5.4569217195    -0.1958627796
   75      S       8.5702182255    -3.8746466589    -2.0627371384
   76      C       6.6775688430    -5.2839829260    -0.8654244802
   77      C       5.0926001923    -6.6293543916     0.4858526919
   78      C       8.7446619395    -5.6535094737    -1.8932718722
   79      C       7.7223690534    -6.2191522035    -1.1608105713
   80      N       5.6359124143    -7.8022461182     0.2224483887
   81      S       3.7924772044    -6.6630577857     1.7426268552
   82      C       5.0458240323    -8.8096395138     0.9698968807
   83      C       4.0229138146    -8.3774441766     1.8169522962
   84      C       8.8652825015     6.5425643286    -0.6397366757
   85      H       7.2384734251     5.4320620770     1.2538870932
   86      H       6.3613728619     3.1946530452     1.1325758125
   87      H       8.7953432792     2.4779564644    -2.2810838101
   88      H       8.9952814972     0.3683730249    -1.3821886989
   89      H       9.6527707263    -6.1436604188    -2.2199651263
   90      H       7.6833806367    -7.2969349179    -1.0521352567
   91      H       5.4706109722    -9.7955645788     0.8283171437
   92      H       3.3339418087    -8.9942096940     2.3790473698
   93      H       9.4549256929     6.8576626949    -1.5105155951
   94      C       9.6994044473     6.8096134524     0.6250677934
   95      H       7.9746371201     7.1812704512    -0.5977808245
   96      H      10.3982820062     6.0170993506     0.9232783836
   97      H       9.0554125416     6.8654125092     1.5110558806
   98      C      10.5285553985     8.1521476349     0.5765325585
   99      H      11.2711015342     8.2137732063    -0.2284646622
  100      C      11.1996229823     8.5141747408     1.8895392884
  101      H       9.8887104379     8.9704209095     0.2258756401
  102      H      10.4899079873     8.7382397099     2.6955520151
  103      H      11.8458382370     9.3511293918     1.5990332529
  104      C      12.1627536661     7.5251385702     2.4917998127
  105      H      11.6843630685     6.5890216576     2.8077563952
  106      C      12.9176619080     8.0522315628     3.7483353368
  107      H      12.8935262028     7.2427926489     1.7241656028
  108      H      12.2131950118     8.1357506150     4.5852074657
  109      H      13.4896169000     8.9732876536     3.5819677773
  110      H      13.6040922307     7.2651867942     4.0830993497
 ----------------------------------------------------------------

   10   -5663.5138720861      9.64E-06 Convergence criterion met
 Total energy in the final basis set = -5663.5138720861

                    Orbital Energies (a.u.)
 --------------------------------------------------------------

 Alpha MOs
 -- Occupied --
-88.994 -88.989 -88.923 -88.922 -88.919 -88.916 -88.910 -88.907
-14.391 -14.383 -14.374 -14.372 -14.355 -14.348 -14.344 -14.341
-14.332 -14.331 -10.269 -10.268 -10.264 -10.263 -10.261 -10.257
-10.254 -10.246 -10.245 -10.241 -10.241 -10.240 -10.233 -10.233
-10.232 -10.231 -10.231 -10.230 -10.230 -10.230 -10.229 -10.228
-10.227 -10.227 -10.225 -10.224 -10.224 -10.222 -10.220 -10.219
-10.209 -10.207 -10.206 -10.205 -10.200 -10.198 -10.196 -10.190
-10.187 -10.184 -10.183 -10.181 -10.180 -10.180 -10.179 -10.177
-10.176 -10.176 -10.174 -10.174  -8.049  -8.044  -7.984  -7.983
 -7.979  -7.975  -7.972  -7.968  -6.014  -6.010  -6.009  -6.007
 -6.004  -6.002  -5.948  -5.947  -5.945  -5.944  -5.943  -5.941
 -5.940  -5.940  -5.939  -5.936  -5.936  -5.936  -5.932  -5.932
 -5.932  -5.928  -5.928  -5.924  -1.049  -1.045  -0.976  -0.969
 -0.963  -0.962  -0.955  -0.953  -0.917  -0.911  -0.907  -0.906
 -0.850  -0.844  -0.841  -0.837  -0.813  -0.812  -0.809  -0.808
 -0.807  -0.803  -0.802  -0.794  -0.791  -0.787  -0.771  -0.766
 -0.753  -0.748  -0.744  -0.738  -0.718  -0.718  -0.715  -0.710
 -0.696  -0.693  -0.679  -0.677  -0.662  -0.657  -0.649  -0.647
 -0.640  -0.633  -0.632  -0.628  -0.618  -0.612  -0.600  -0.600
 -0.594  -0.589  -0.588  -0.584  -0.584  -0.576  -0.568  -0.558
 -0.557  -0.551  -0.546  -0.541  -0.527  -0.526  -0.515  -0.514
 -0.511  -0.508  -0.506  -0.501  -0.491  -0.491  -0.480  -0.479
 -0.476  -0.475  -0.470  -0.469  -0.469  -0.461  -0.456  -0.450
 -0.448  -0.441  -0.440  -0.436  -0.434  -0.433  -0.433  -0.430
 -0.428  -0.428  -0.427  -0.424  -0.420  -0.420  -0.418  -0.416
 -0.411  -0.410  -0.410  -0.406  -0.404  -0.402  -0.398  -0.397
 -0.396  -0.393  -0.393  -0.390  -0.390  -0.386  -0.384  -0.384
 -0.380  -0.377  -0.377  -0.370  -0.368  -0.364  -0.364  -0.356
 -0.353  -0.349  -0.348  -0.347  -0.346  -0.345  -0.338  -0.338
 -0.335  -0.334  -0.333  -0.331  -0.329  -0.327  -0.326  -0.324
 -0.317  -0.314  -0.312  -0.310  -0.308  -0.302  -0.301  -0.300
 -0.299  -0.298  -0.294  -0.290  -0.290  -0.287  -0.285  -0.283
 -0.282  -0.274  -0.270  -0.264  -0.263  -0.255  -0.253  -0.248
 -0.242  -0.241  -0.235  -0.229  -0.195  -0.192

          Ground-State Mulliken Net Atomic Charges

     Atom                 Charge (a.u.)
  ----------------------------------------
      1 C                     0.269703
      2 C                    -0.113631
      3 N                    -0.473240
      4 C                    -0.066227
      5 C                     0.097894
      6 C                     0.006249
      7 C                     0.065059
      8 C                     0.030788
      9 C                     0.200464
     10 N                    -0.519952
     11 N                    -0.544151
     12 C                     0.225466
     13 C                     0.316644
     14 S                     0.611935
     15 N                    -0.558315
     16 C                    -0.207096
     17 S                     0.297280
     18 C                    -0.142961
     19 C                    -0.233280
     20 S                     0.283356
     21 C                     0.183230
     22 C                     0.090936
     23 C                    -0.303702
     24 C                    -0.078020
     25 N                    -0.466380
     26 S                     0.255553
     27 C                     0.129474
     28 C                    -0.305765
     29 C                    -0.218831
     30 H                     0.085086
     31 H                     0.108576
     32 H                     0.117594
     33 H                     0.107683
     34 H                     0.132154
     35 H                     0.127957
     36 H                     0.118072
     37 H                     0.130838
     38 H                     0.091667
     39 C                    -0.170957
     40 H                     0.121433
     41 H                     0.087468
     42 H                     0.113493
     43 C                    -0.179011
     44 H                     0.091217
     45 C                    -0.174456
     46 H                     0.092227
     47 H                     0.093320
     48 H                     0.090851
     49 C                    -0.177115
     50 H                     0.092765
     51 C                    -0.328434
     52 H                     0.093414
     53 H                     0.102921
     54 H                     0.101685
     55 H                     0.106978
     56 C                     0.279900
     57 C                    -0.111934
     58 N                    -0.465278
     59 C                    -0.092729
     60 C                     0.056141
     61 C                     0.079772
     62 C                     0.026776
     63 C                     0.063435
     64 C                     0.216830
     65 N                    -0.528529
     66 N                    -0.561237
     67 C                     0.258521
     68 C                     0.328772
     69 S                     0.614935
     70 N                    -0.606529
     71 C                    -0.240838
     72 S                     0.306636
     73 C                    -0.080772
     74 C                    -0.194662
     75 S                     0.277532
     76 C                     0.106599
     77 C                     0.066819
     78 C                    -0.308194
     79 C                    -0.051399
     80 N                    -0.436878
     81 S                     0.259807
     82 C                     0.121358
     83 C                    -0.313329
     84 C                    -0.239785
     85 H                     0.103809
     86 H                     0.109357
     87 H                     0.084982
     88 H                     0.117730
     89 H                     0.125440
     90 H                     0.129395
     91 H                     0.114940
     92 H                     0.136173
     93 H                     0.113330
     94 C                    -0.183494
     95 H                     0.107873
     96 H                     0.109897
     97 H                     0.091078
     98 C                    -0.189214
     99 H                     0.092245
    100 C                    -0.160318
    101 H                     0.088781
    102 H                     0.087088
    103 H                     0.088805
    104 C                    -0.176078
    105 H                     0.090802
    106 C                    -0.321208
    107 H                     0.090086
    108 H                     0.101799
    109 H                     0.104070
    110 H                     0.100985
  ----------------------------------------
  Sum of atomic charges =     0.000000

                    Cartesian Multipole Moments
 -----------------------------------------------------------------
    Charge (ESU x 10^10)
                 0.0000
    Dipole Moment (Debye)
         X      -2.2548      Y      -1.2648      Z       1.1975
       Tot       2.8492
    Quadrupole Moments (Debye-Ang)
        XX    -439.1032     XY      10.1186     YY    -421.4820
        XZ      22.0943     YZ      -5.2105     ZZ    -434.3487

 Total job time:  96.08s(wall), 1039.78s(cpu)
        *  Thank you very much for using Q-Chem.  Have a nice day.  *
