 Q-Chem 4.4, Q-Chem, Inc., Pleasanton, CA (2016)
 Q-Chem 4.4.2 for Intel X86 Linux

User input:
--------------------------------------------------------------
$comment
SP
$end

$rem
MEM_STATIC 5000
MEM_TOTAL 20000
JOBTYPE SP
EXCHANGE B3LYP
BASIS 6-31g(d,p)
$end

$molecule
0 1
C          11.838000    -12.256000      9.648000
C          11.275000    -11.719000     10.858000
N          11.627000    -13.577000      9.404000
C          10.667000    -12.619000     11.777000
C          10.941000    -14.378000     10.218000
C          10.450000    -13.966000     11.427000
C           9.541000    -14.805000     12.276000
C           8.543000    -14.247000     13.012000
C           9.587000    -16.239000     12.331000
N           7.623000    -14.881000     13.766000
N          10.573000    -17.004000     11.760000
C           8.719000    -16.995000     13.127000
C           7.646000    -16.267000     13.771000
S          10.337000    -18.525000     12.335000
N           8.980000    -18.287000     13.255000
C           6.495000    -16.937000     14.452000
S           5.794000    -18.338000     13.837000
C           5.627000    -16.327000     15.306000
C           4.409000    -18.289000     14.877000
S           5.699000    -14.848000     16.139000
C           4.519000    -17.130000     15.572000
C           3.353000    -19.192000     14.999000
C           4.150000    -15.235000     16.904000
C           3.624000    -16.427000     16.475000
N           2.743000    -19.325000     16.137000
S           2.941000    -20.186000     13.587000
C           1.720000    -20.215000     15.929000
C           1.662000    -20.766000     14.635000
C          12.686000    -11.501000      8.701000
H          11.400000    -10.668000     11.101000
H          10.330000    -12.112000     12.676000
H          10.751000    -15.378000      9.830000
H           8.528000    -13.160000     13.078000
H           3.758000    -14.483000     17.577000
H           2.593000    -16.721000     16.637000
H           1.010000    -20.352000     16.734000
H           0.882000    -21.412000     14.255000
H          12.251000    -11.781000      7.734000
C          14.190000    -11.784000      8.675000
H          12.489000    -10.421000      8.705000
H          14.599000    -11.246000      7.810000
H          14.418000    -12.852000      8.570000
C          15.002000    -11.126000      9.831000
H          14.476000    -11.360000     10.764000
C          15.097000     -9.602000      9.828000
H          16.000000    -11.537000     10.024000
H          14.156000     -9.142000      9.503000
H          15.591000     -9.347000      8.882000
C          15.737000     -8.920000     11.045000
H          15.607000     -7.833000     10.964000
C          17.222000     -9.314000     11.281000
H          15.145000     -9.222000     11.917000
H          17.865000     -9.142000     10.409000
H          17.340000    -10.375000     11.534000
H          17.707000     -8.844000     12.146000
C          14.861000    -16.327000      8.515000
C          14.177000    -16.735000      9.660000
N          15.806000    -15.368000      8.602000
C          14.362000    -16.040000     10.863000
C          16.039000    -14.699000      9.746000
C          15.248000    -14.955000     10.911000
C          15.229000    -13.989000     12.058000
C          13.954000    -13.719000     12.666000
C          16.302000    -13.281000     12.619000
N          13.814000    -12.767000     13.627000
N          17.566000    -13.470000     12.237000
C          16.140000    -12.283000     13.597000
C          14.824000    -11.999000     14.103000
S          18.457000    -12.657000     13.364000
N          17.272000    -11.841000     14.179000
C          14.397000    -11.057000     15.108000
S          12.796000    -11.083000     15.861000
C          15.051000     -9.864000     15.373000
C          13.109000     -9.446000     16.554000
S          16.396000     -9.131000     14.562000
C          14.328000     -8.976000     16.186000
C          12.079000     -8.676000     17.097000
C          16.025000     -7.712000     15.506000
C          14.877000     -7.702000     16.241000
N          12.300000     -7.576000     17.829000
S          10.380000     -8.872000     16.632000
C          11.103000     -6.993000     18.215000
C           9.954000     -7.518000     17.630000
C          14.568000    -16.969000      7.129000
H          13.534000    -17.598000      9.510000
H          13.739000    -16.271000     11.722000
H          16.671000    -13.835000      9.543000
H          13.035000    -14.256000     12.436000
H          16.704000     -6.871000     15.444000
H          14.595000     -6.798000     16.769000
H          11.089000     -6.044000     18.734000
H           8.919000     -7.207000     17.687000
H          15.357000    -16.664000      6.430000
C          13.217000    -16.461000      6.439000
H          14.613000    -18.057000      7.261000
H          12.483000    -16.778000      7.191000
H          12.992000    -16.989000      5.504000
C          13.125000    -14.992000      6.257000
H          13.219000    -14.448000      7.205000
C          11.979000    -14.571000      5.401000
H          14.006000    -14.751000      5.649000
H          12.060000    -15.156000      4.477000
H          12.044000    -13.506000      5.145000
C          10.587000    -14.625000      6.017000
H          10.367000    -15.638000      6.375000
C           9.543000    -14.020000      5.142000
H          10.467000    -14.068000      6.954000
H           9.424000    -14.609000      4.224000
H           9.870000    -12.992000      4.946000
H           8.574000    -13.913000      5.646000
$end

--------------------------------------------------------------

             Standard Nuclear Orientation (Angstroms)
    I     Atom           X                Y                Z
 ----------------------------------------------------------------
    1      C      -1.7519678248     1.9740306145    -2.3575389253
    2      C      -1.4241122590     0.5734989750    -2.3789831508
    3      N      -0.8783187374     2.8013367993    -1.7239777611
    4      C      -0.3007594754     0.1316347985    -1.6259495705
    5      C       0.2398039224     2.3821358055    -1.1333296049
    6      C       0.5778706278     1.0598812827    -1.0340326790
    7      C       1.9048095898     0.5854106503    -0.5191408359
    8      C       2.5135968923    -0.5151726533    -1.0360145267
    9      C       2.6709207644     1.2702044091     0.4836693036
   10      N       3.7228227191    -1.0152157075    -0.7125924438
   11      N       2.2093250822     2.3339103413     1.2177817719
   12      C       3.9109348600     0.8067637653     0.9377219575
   13      C       4.4743635952    -0.3172082609     0.2198891464
   14      S       3.3256737388     2.5686793124     2.4003261504
   15      N       4.4316882678     1.4021250024     1.9998565468
   16      C       5.8832061623    -0.7843959483     0.4052544228
   17      S       7.1529785123     0.2960518533     0.6349013850
   18      C       6.3724632486    -1.9840730902    -0.0145577481
   19      C       8.4032103511    -0.8818562920     0.4075717767
   20      S       5.6050223653    -3.4138400021    -0.5178618987
   21      C       7.7635852129    -2.0269499411     0.0639932305
   22      C       9.7876676210    -0.7429193893     0.5045439623
   23      C       7.1946392114    -4.1743304354    -0.6886470953
   24      C       8.2299940459    -3.3200520128    -0.4061055170
   25      N      10.5164099959    -1.7552269825     0.8637108981
   26      S      10.4861619174     0.8606558262     0.2009385506
   27      C      11.8218004273    -1.3388978943     0.7964880458
   28      C      11.9998330853     0.0139829885     0.4509179522
   29      C      -2.9955036892     2.5608154870    -2.9008989047
   30      H      -2.0773888812    -0.1344260685    -2.8803281297
   31      H      -0.1838623676    -0.9468927617    -1.6699082790
   32      H       0.8984149106     3.1731142295    -0.7766382832
   33      H       1.9311785550    -1.1207373626    -1.7290010080
   34      H       7.1899361581    -5.1973676678    -1.0428641225
   35      H       9.2611504130    -3.5161886770    -0.6779289075
   36      H      12.5896321402    -2.0895671573     0.9299950433
   37      H      12.9470060403     0.5010496508     0.2618532548
   38      H      -2.6142939138     3.4264922861    -3.4558734867
   39      C      -4.0758447406     3.0285021823    -1.9226794161
   40      H      -3.4331212742     1.9741529143    -3.7191549007
   41      H      -4.8275570064     3.5670418705    -2.5141637132
   42      H      -3.6840288313     3.7002427658    -1.1488074102
   43      C      -4.9506555733     1.8898284485    -1.3170622640
   44      H      -4.2625534381     1.1175477732    -0.9537180604
   45      C      -5.8753802369     1.1444902264    -2.2767315983
   46      H      -5.5150420463     2.1358481089    -0.4098047285
   47      H      -5.4028818271     0.9962190020    -3.2552339727
   48      H      -6.5506538097     1.9106692610    -2.6779201934
   49      C      -6.6141235913    -0.0922152256    -1.7469855447
   50      H      -7.1221320731    -0.5974646606    -2.5786587922
   51      C      -7.5816844396     0.2073626366    -0.5679028040
   52      H      -5.8423819758    -0.7923317970    -1.4059523126
   53      H      -8.3230726355     0.9831961599    -0.7955931355
   54      H      -7.0549342339     0.5525849988     0.3304344052
   55      H      -8.1232750524    -0.6581497240    -0.1655124937
   56      C      -2.1250706280     5.5847786593     1.3597923560
   57      C      -1.1819391930     4.6900676087     1.8651043707
   58      N      -3.4212010412     5.2196554177     1.2760906797
   59      C      -1.5564895015     3.3667937084     2.1355063882
   60      C      -3.8286989350     3.9687243604     1.5584078000
   61      C      -2.8794793558     2.9591220265     1.9163565644
   62      C      -3.2447555603     1.5053543168     1.8688303563
   63      C      -2.2661205236     0.6013902749     1.3272479749
   64      C      -4.4422010413     0.8941086118     2.2686015512
   65      N      -2.5495801960    -0.7134572176     1.1266197475
   66      N      -5.4261335074     1.5651932809     2.8693205114
   67      C      -4.7308507345    -0.4626126664     2.0346769314
   68      C      -3.7401901968    -1.2961898908     1.4083473775
   69      S      -6.4557769431     0.3888124243     3.3993596380
   70      N      -5.8261280361    -0.9457241968     2.6531289358
   71      C      -3.7766528422    -2.7008724081     1.0839163351
   72      S      -2.3464858859    -3.6434601551     0.6400280427
   73      C      -4.9398329211    -3.3920335206     0.7830867808
   74      C      -3.4184005863    -4.9864970205     0.0875446916
   75      S      -6.5604711759    -2.8081864815     0.5915423160
   76      C      -4.7294969374    -4.6679259734     0.2352736533
   77      C      -2.9272800151    -6.0380691204    -0.6881135472
   78      C      -6.9160641150    -4.3903898797    -0.0507380500
   79      C      -5.8800035644    -5.2445866211    -0.2855900511
   80      N      -3.6201906313    -7.1621645538    -0.9138331405
   81      S      -1.4875440202    -5.8914591718    -1.7112986662
   82      C      -2.9094997777    -8.0213927625    -1.7374467611
   83      C      -1.7545864281    -7.4974164026    -2.3116200181
   84      C      -1.7161721608     7.0133537537     0.9004621443
   85      H      -0.1954517935     5.1207328769     2.0137248183
   86      H      -0.8005079444     2.6356124124     2.4061293693
   87      H      -4.8546087520     3.8319399690     1.2179256749
   88      H      -1.2450865413     0.8795212574     1.0704158048
   89      H      -7.9486327586    -4.6245902154    -0.2768313915
   90      H      -6.0790455286    -6.2000999828    -0.7577134588
   91      H      -3.3546391002    -8.9379276686    -2.1007272994
   92      H      -1.0703884152    -7.9106295352    -3.0412246961
   93      H      -2.6277404891     7.6063412052     0.7536423053
   94      C      -0.9834602374     7.0648995050    -0.5207490550
   95      H      -1.1309494118     7.4591070817     1.7141029155
   96      H      -0.1031625881     6.4445144723    -0.3087408951
   97      H      -0.6324768407     8.0708703601    -0.7824116122
   98      C      -1.7484980022     6.4599205665    -1.6380076206
   99      H      -1.9991223864     5.4085467710    -1.4501870678
  100      C      -1.1581866213     6.7360876845    -2.9791105982
  101      H      -2.6876598499     7.0272170383    -1.6454733379
  102      H      -1.0251178295     7.8232343928    -3.0335783056
  103      H      -1.8377106305     6.4282901370    -3.7837805869
  104      C       0.0974659904     5.9648669156    -3.3645856874
  105      H       0.8891219324     6.1295202535    -2.6237057053
  106      C       0.4993252326     6.1849688366    -4.7829122697
  107      H       0.0137092862     4.8730218197    -3.3056187384
  108      H       0.7995227710     7.2287405474    -4.9385659032
  109      H      -0.3664722020     5.8982333710    -5.3914404736
  110      H       1.3033118823     5.5121571811    -5.1074980723
 ----------------------------------------------------------------

   10   -5663.5059639407      4.29E-06 Convergence criterion met
 Total energy in the final basis set = -5663.5059639407

                    Orbital Energies (a.u.)
 --------------------------------------------------------------

 Alpha MOs
 -- Occupied --
-88.991 -88.984 -88.931 -88.925 -88.924 -88.922 -88.912 -88.906
-14.394 -14.390 -14.390 -14.383 -14.356 -14.348 -14.343 -14.343
-14.328 -14.321 -10.273 -10.268 -10.266 -10.262 -10.261 -10.260
-10.258 -10.255 -10.239 -10.239 -10.237 -10.236 -10.235 -10.235
-10.235 -10.235 -10.232 -10.231 -10.231 -10.230 -10.226 -10.225
-10.224 -10.224 -10.224 -10.222 -10.222 -10.221 -10.217 -10.216
-10.215 -10.208 -10.208 -10.205 -10.205 -10.198 -10.195 -10.194
-10.187 -10.185 -10.184 -10.183 -10.175 -10.175 -10.174 -10.174
-10.163 -10.161 -10.158 -10.157  -8.047  -8.040  -7.992  -7.985
 -7.983  -7.983  -7.973  -7.967  -6.012  -6.006  -6.005  -6.004
 -5.999  -5.997  -5.956  -5.953  -5.950  -5.949  -5.948  -5.947
 -5.946  -5.944  -5.944  -5.942  -5.940  -5.940  -5.938  -5.934
 -5.931  -5.929  -5.927  -5.923  -1.039  -1.037  -0.982  -0.961
 -0.954  -0.948  -0.940  -0.931  -0.927  -0.919  -0.909  -0.909
 -0.855  -0.850  -0.837  -0.826  -0.814  -0.811  -0.809  -0.808
 -0.805  -0.801  -0.800  -0.796  -0.785  -0.780  -0.770  -0.763
 -0.751  -0.749  -0.745  -0.741  -0.728  -0.726  -0.712  -0.709
 -0.699  -0.692  -0.677  -0.672  -0.663  -0.649  -0.647  -0.643
 -0.641  -0.633  -0.625  -0.623  -0.620  -0.607  -0.603  -0.597
 -0.593  -0.590  -0.588  -0.585  -0.584  -0.578  -0.564  -0.555
 -0.554  -0.549  -0.543  -0.542  -0.528  -0.520  -0.515  -0.513
 -0.512  -0.507  -0.505  -0.494  -0.487  -0.481  -0.477  -0.474
 -0.473  -0.470  -0.467  -0.464  -0.460  -0.456  -0.449  -0.447
 -0.447  -0.444  -0.441  -0.440  -0.438  -0.435  -0.434  -0.431
 -0.430  -0.428  -0.424  -0.423  -0.423  -0.419  -0.417  -0.414
 -0.411  -0.406  -0.405  -0.403  -0.403  -0.401  -0.397  -0.396
 -0.395  -0.393  -0.392  -0.389  -0.388  -0.386  -0.383  -0.382
 -0.382  -0.380  -0.376  -0.371  -0.368  -0.364  -0.360  -0.357
 -0.354  -0.351  -0.351  -0.349  -0.346  -0.345  -0.343  -0.342
 -0.341  -0.339  -0.335  -0.330  -0.328  -0.327  -0.321  -0.320
 -0.316  -0.313  -0.311  -0.308  -0.307  -0.303  -0.302  -0.297
 -0.297  -0.296  -0.292  -0.289  -0.286  -0.284  -0.282  -0.278
 -0.277  -0.271  -0.265  -0.262  -0.253  -0.250  -0.249  -0.248
 -0.244  -0.238  -0.234  -0.229  -0.197  -0.192

          Ground-State Mulliken Net Atomic Charges

     Atom                 Charge (a.u.)
  ----------------------------------------
      1 C                     0.281602
      2 C                    -0.129057
      3 N                    -0.487023
      4 C                    -0.086684
      5 C                     0.091457
      6 C                     0.034840
      7 C                     0.088637
      8 C                     0.052468
      9 C                     0.197197
     10 N                    -0.509963
     11 N                    -0.558225
     12 C                     0.226030
     13 C                     0.262481
     14 S                     0.595875
     15 N                    -0.556328
     16 C                    -0.215886
     17 S                     0.316458
     18 C                    -0.092523
     19 C                    -0.223509
     20 S                     0.274176
     21 C                     0.143474
     22 C                     0.064521
     23 C                    -0.312806
     24 C                    -0.038639
     25 N                    -0.417095
     26 S                     0.268817
     27 C                     0.114083
     28 C                    -0.303228
     29 C                    -0.232625
     30 H                     0.097949
     31 H                     0.115015
     32 H                     0.120442
     33 H                     0.103259
     34 H                     0.129743
     35 H                     0.111369
     36 H                     0.113975
     37 H                     0.129085
     38 H                     0.126323
     39 C                    -0.189322
     40 H                     0.099981
     41 H                     0.096286
     42 H                     0.131307
     43 C                    -0.190554
     44 H                     0.092243
     45 C                    -0.184055
     46 H                     0.096277
     47 H                     0.081268
     48 H                     0.082927
     49 C                    -0.175082
     50 H                     0.094736
     51 C                    -0.324236
     52 H                     0.107430
     53 H                     0.101558
     54 H                     0.102614
     55 H                     0.105008
     56 C                     0.273826
     57 C                    -0.104087
     58 N                    -0.477065
     59 C                    -0.083049
     60 C                     0.077638
     61 C                     0.037549
     62 C                     0.024663
     63 C                     0.067089
     64 C                     0.227000
     65 N                    -0.533298
     66 N                    -0.550625
     67 C                     0.190627
     68 C                     0.293528
     69 S                     0.597812
     70 N                    -0.543418
     71 C                    -0.200709
     72 S                     0.303417
     73 C                    -0.134301
     74 C                    -0.215782
     75 S                     0.315605
     76 C                     0.153911
     77 C                     0.038400
     78 C                    -0.307274
     79 C                    -0.047375
     80 N                    -0.440570
     81 S                     0.258904
     82 C                     0.114543
     83 C                    -0.304596
     84 C                    -0.240354
     85 H                     0.087863
     86 H                     0.108488
     87 H                     0.121451
     88 H                     0.123058
     89 H                     0.119673
     90 H                     0.134220
     91 H                     0.112194
     92 H                     0.139547
     93 H                     0.115162
     94 C                    -0.174537
     95 H                     0.097731
     96 H                     0.091576
     97 H                     0.088785
     98 C                    -0.178360
     99 H                     0.132983
    100 C                    -0.161363
    101 H                     0.084385
    102 H                     0.080959
    103 H                     0.078700
    104 C                    -0.182581
    105 H                     0.079097
    106 C                    -0.309679
    107 H                     0.109991
    108 H                     0.096057
    109 H                     0.095932
    110 H                     0.092592
  ----------------------------------------
  Sum of atomic charges =     0.000000

                    Cartesian Multipole Moments
 -----------------------------------------------------------------
    Charge (ESU x 10^10)
                 0.0000
    Dipole Moment (Debye)
         X       2.4279      Y      -1.6238      Z      -2.3953
       Tot       3.7774
    Quadrupole Moments (Debye-Ang)
        XX    -395.1434     XY      16.9966     YY    -443.3342
        XZ       1.9921     YZ      23.3421     ZZ    -444.0796

 Total job time:  113.09s(wall), 1273.44s(cpu)
        *  Thank you very much for using Q-Chem.  Have a nice day.  *
