 Q-Chem 4.4, Q-Chem, Inc., Pleasanton, CA (2016)
 Q-Chem 4.4.2 for Intel X86 Linux

User input:
--------------------------------------------------------------
$comment
SP
$end

$rem
MEM_STATIC 5000
MEM_TOTAL 20000
JOBTYPE SP
EXCHANGE B3LYP
BASIS 6-31g(d,p)
$end

$molecule
0 1
C          19.566000    -26.998000     13.556000
C          20.702000    -26.231000     13.362000
N          18.657000    -27.047000     12.542000
C          20.899000    -25.375000     12.283000
C          18.807000    -26.286000     11.463000
C          19.891000    -25.394000     11.282000
C          19.948000    -24.413000     10.138000
C          18.884000    -23.590000      9.771000
C          21.150000    -24.180000      9.520000
N          18.985000    -22.653000      8.884000
N          22.284000    -24.835000      9.683000
C          21.280000    -23.131000      8.618000
C          20.199000    -22.269000      8.412000
S          23.442000    -24.097000      8.678000
N          22.467000    -23.010000      7.993000
C          20.249000    -21.079000      7.492000
S          21.375000    -21.009000      6.134000
C          19.655000    -19.871000      7.668000
C          20.670000    -19.489000      5.629000
S          18.523000    -19.417000      8.908000
C          19.794000    -19.048000      6.573000
C          20.825000    -18.763000      4.415000
C          18.302000    -17.898000      7.948000
C          18.981000    -17.906000      6.719000
N          21.910000    -19.005000      3.675000
S          19.584000    -17.787000      3.613000
C          21.865000    -18.171000      2.556000
C          20.710000    -17.470000      2.400000
C          19.448000    -27.778000     14.886000
H          21.503000    -26.239000     14.095000
H          21.809000    -24.790000     12.188000
H          18.016000    -26.372000     10.720000
H          17.867000    -23.670000     10.151000
H          17.529000    -17.216000      8.276000
H          18.829000    -17.151000      5.956000
H          22.692000    -18.186000      1.858000
H          20.486000    -16.993000      1.455000
H          18.654000    -28.516000     14.715000
C          19.097000    -26.840000     16.075000
H          20.338000    -28.408000     15.007000
H          19.846000    -26.102000     16.385000
H          18.967000    -27.450000     16.977000
C          17.871000    -25.977000     15.794000
H          17.644000    -25.457000     16.732000
C          16.642000    -26.716000     15.283000
H          18.128000    -25.233000     15.030000
H          16.445000    -27.555000     15.962000
H          16.874000    -27.150000     14.303000
C          15.323000    -25.918000     15.080000
H          14.553000    -26.694000     15.166000
C          15.193000    -25.205000     13.703000
H          15.100000    -25.179000     15.860000
H          15.124000    -25.945000     12.896000
H          15.972000    -24.448000     13.553000
H          14.247000    -24.651000     13.736000
C          14.861000    -16.327000      8.515000
C          14.177000    -16.735000      9.660000
N          15.806000    -15.368000      8.602000
C          14.362000    -16.040000     10.863000
C          16.039000    -14.699000      9.746000
C          15.248000    -14.955000     10.911000
C          15.229000    -13.989000     12.058000
C          13.954000    -13.719000     12.666000
C          16.302000    -13.281000     12.619000
N          13.814000    -12.767000     13.627000
N          17.566000    -13.470000     12.237000
C          16.140000    -12.283000     13.597000
C          14.824000    -11.999000     14.103000
S          18.457000    -12.657000     13.364000
N          17.272000    -11.841000     14.179000
C          14.397000    -11.057000     15.108000
S          12.796000    -11.083000     15.861000
C          15.051000     -9.864000     15.373000
C          13.109000     -9.446000     16.554000
S          16.396000     -9.131000     14.562000
C          14.328000     -8.976000     16.186000
C          12.079000     -8.676000     17.097000
C          16.025000     -7.712000     15.506000
C          14.877000     -7.702000     16.241000
N          12.300000     -7.576000     17.829000
S          10.380000     -8.872000     16.632000
C          11.103000     -6.993000     18.215000
C           9.954000     -7.518000     17.630000
C          14.568000    -16.969000      7.129000
H          13.534000    -17.598000      9.510000
H          13.739000    -16.271000     11.722000
H          16.671000    -13.835000      9.543000
H          13.035000    -14.256000     12.436000
H          16.704000     -6.871000     15.444000
H          14.595000     -6.798000     16.769000
H          11.089000     -6.044000     18.734000
H           8.919000     -7.207000     17.687000
H          15.357000    -16.664000      6.430000
C          13.217000    -16.461000      6.439000
H          14.613000    -18.057000      7.261000
H          12.483000    -16.778000      7.191000
H          12.992000    -16.989000      5.504000
C          13.125000    -14.992000      6.257000
H          13.219000    -14.448000      7.205000
C          11.979000    -14.571000      5.401000
H          14.006000    -14.751000      5.649000
H          12.060000    -15.156000      4.477000
H          12.044000    -13.506000      5.145000
C          10.587000    -14.625000      6.017000
H          10.367000    -15.638000      6.375000
C           9.543000    -14.020000      5.142000
H          10.467000    -14.068000      6.954000
H           9.424000    -14.609000      4.224000
H           9.870000    -12.992000      4.946000
H           8.574000    -13.913000      5.646000
$end

--------------------------------------------------------------

             Standard Nuclear Orientation (Angstroms)
    I     Atom           X                Y                Z
 ----------------------------------------------------------------
    1      C      -8.4386123770    -5.9460510342     0.4967332818
    2      C      -8.3308735945    -5.3733553745    -0.7589868447
    3      N      -8.4250784524    -5.1117025469     1.5740249946
    4      C      -8.0383035737    -4.0329573997    -0.9903351791
    5      C      -8.1931487104    -3.8124258291     1.4192651633
    6      C      -7.9534025279    -3.2070048535     0.1624962067
    7      C      -7.5169684135    -1.7697281293     0.0279343927
    8      C      -6.4900459903    -1.1995690837     0.7792419192
    9      C      -8.0266145411    -1.0121906581    -0.9954984602
   10      N      -6.0262246918    -0.0113626548     0.5602115895
   11      N      -9.0068171303    -1.3237908737    -1.8223347134
   12      C      -7.4850204420     0.2360436012    -1.2774418336
   13      C      -6.3657709213     0.6725368370    -0.5627424804
   14      S      -9.1954940482    -0.0174858447    -2.8963929949
   15      N      -8.0854662458     0.9548768914    -2.2454183507
   16      C      -5.6768470345     1.9858406667    -0.8189004963
   17      S      -6.5320855145     3.3512886403    -1.5407446440
   18      C      -4.3462451151     2.2483360669    -0.7583142195
   19      C      -5.1109099995     4.3507791040    -1.3316299181
   20      S      -3.0828765739     1.1957676833    -0.1916223042
   21      C      -4.0623456224     3.5856445824    -0.9216605158
   22      C      -4.9544410082     5.7604658587    -1.4465111981
   23      C      -2.0139712774     2.6520530142    -0.3119406405
   24      C      -2.7050008991     3.8315608734    -0.6325420628
   25      N      -5.8565503012     6.4340038203    -2.1647969614
   26      S      -3.8641307933     6.7744335761    -0.4878902598
   27      C      -5.4935097639     7.7823077231    -2.1603076342
   28      C      -4.4632249093     8.1037652333    -1.3326965011
   29      C      -8.6188631260    -7.4801056854     0.5702859480
   30      H      -8.4381180575    -5.9815273257    -1.6520599117
   31      H      -7.9573506484    -3.6410664724    -1.9998985129
   32      H      -8.1729728340    -3.2310789303     2.3394579242
   33      H      -6.0058893537    -1.6637025518     1.6367158110
   34      H      -1.0041685001     2.5543420966     0.0635429512
   35      H      -2.2484850220     4.8138086082    -0.5869280139
   36      H      -6.0809602984     8.4848162367    -2.7371452697
   37      H      -4.2707251886     9.1379015160    -1.0792482690
   38      H      -8.9644412123    -7.6785361114     1.5927937241
   39      C      -7.2914374766    -8.2313936373     0.2698303624
   40      H      -9.4885924213    -7.7637236386    -0.0353317610
   41      H      -6.8818785195    -8.1640753542    -0.7447999690
   42      H      -7.4612182757    -9.3076702283     0.3939560237
   43      C      -6.1344754246    -7.7378454983     1.1327643371
   44      H      -5.2946352104    -8.4125536953     0.9297612248
   45      C      -6.4075371274    -7.6613007622     2.6285120464
   46      H      -5.8600799789    -6.7249695448     0.8132796861
   47      H      -6.8152163540    -8.6285101668     2.9480032292
   48      H      -7.1902460416    -6.9140045872     2.8059808675
   49      C      -5.2411540028    -7.2724223432     3.5804038376
   50      H      -5.5458289369    -7.7192364463     4.5343442664
   51      C      -5.0282818271    -5.7421732162     3.7659329355
   52      H      -4.2686729037    -7.7162356387     3.3322904149
   53      H      -5.8872117665    -5.2982994411     4.2844167161
   54      H      -4.7642156381    -5.2434081134     2.8257774058
   55      H      -4.1494448908    -5.6340966838     4.4131470443
   56      C       0.9512825832     2.4616404225     2.0965907766
   57      C       1.2648908692     1.1957393864     2.5910494802
   58      N       1.3931626963     2.8361686403     0.8780894103
   59      C       2.1650016191     0.3810235323     1.8906940597
   60      C       2.2319080952     2.0693242648     0.1576438123
   61      C       2.7258521029     0.8357353591     0.6893577665
   62      C       3.9233858721     0.1615164717     0.0889680902
   63      C       4.8865977084    -0.3959032331     0.9998441690
   64      C       4.2521674487     0.0140366534    -1.2665636793
   65      N       6.0630802817    -0.9152344748     0.5575673142
   66      N       3.4353695133     0.3951800966    -2.2498804179
   67      C       5.4823916852    -0.5046837142    -1.7095191038
   68      C       6.4417266822    -0.9665649038    -0.7426219375
   69      S       4.1130859708    -0.2449490670    -3.6121997847
   70      N       5.5678013386    -0.7706917451    -3.0276453947
   71      C       7.7450168308    -1.5540041009    -0.9325376518
   72      S       8.6419544690    -2.3873516016     0.3449289099
   73      C       8.5654334106    -1.2751284199    -2.0143578726
   74      C      10.1207958374    -2.3551108149    -0.6894674062
   75      S       8.3564727064    -0.1329941069    -3.3011755112
   76      C       9.8856511245    -1.7324066554    -1.8723585651
   77      C      11.3831208679    -2.6367387932    -0.1642339349
   78      C      10.0203946998    -0.4730370695    -3.6987586896
   79      C      10.7509594087    -1.2381088753    -2.8390091110
   80      N      12.4585718021    -2.8582317798    -0.9317045500
   81      S      11.7830537348    -2.4287447810     1.5498355481
   82      C      13.5821104357    -3.0831364297    -0.1514655884
   83      C      13.4326013029    -2.8483048457     1.2125549929
   84      C       0.0823556822     3.4558203993     2.9185282526
   85      H       0.7565640400     0.9416634492     3.5172067308
   86      H       2.5101987163    -0.5484033945     2.3338368718
   87      H       2.6314303918     2.6463393122    -0.6757615930
   88      H       4.7448692387    -0.4719357169     2.0768595367
   89      H      10.4262679441    -0.0303234228    -4.5995569671
   90      H      11.8064794151    -1.3912851189    -3.0337873298
   91      H      14.5598107230    -3.1881468709    -0.6022792477
   92      H      14.1509309470    -2.8648069696     2.0218294842
   93      H      -0.2183679296     4.2814293935     2.2611987324
   94      C       0.8589412886     4.1746929629     4.1183207485
   95      H      -0.8153710723     2.9124357357     3.2379226508
   96      H       1.1434670221     3.3003932583     4.7178156472
   97      H       0.2039105063     4.8059211930     4.7316066491
   98      C       2.0829899736     4.9092232551     3.7161776562
   99      H       2.8110252853     4.2614534795     3.2123573482
  100      C       2.6456939612     5.7631793432     4.8012657733
  101      H       1.7187266846     5.6340303238     2.9773454902
  102      H       1.8169043580     6.3874540178     5.1561614260
  103      H       3.4374051344     6.4203288189     4.4200388267
  104      C       3.3864227751     5.0617851737     5.9323727724
  105      H       2.7371430068     4.3186463043     6.4108217281
  106      C       4.0558002910     6.0137091544     6.8636946696
  107      H       4.2121533897     4.4113865785     5.6196930333
  108      H       3.3099078537     6.6142830679     7.3991957868
  109      H       4.7251117300     6.6231793379     6.2450693444
  110      H       4.7182426733     5.5131926288     7.5813849215
 ----------------------------------------------------------------

   10   -5663.4998633376      4.13E-06 Convergence criterion met
 Total energy in the final basis set = -5663.4998633376

                    Orbital Energies (a.u.)
 --------------------------------------------------------------

 Alpha MOs
 -- Occupied --
-88.989 -88.988 -88.926 -88.925 -88.923 -88.918 -88.915 -88.906
-14.394 -14.387 -14.386 -14.377 -14.347 -14.344 -14.342 -14.337
-14.334 -14.329 -10.267 -10.265 -10.262 -10.261 -10.260 -10.260
-10.249 -10.246 -10.246 -10.241 -10.238 -10.236 -10.235 -10.234
-10.233 -10.233 -10.232 -10.231 -10.231 -10.229 -10.227 -10.227
-10.225 -10.225 -10.223 -10.220 -10.220 -10.220 -10.218 -10.217
-10.214 -10.209 -10.208 -10.207 -10.200 -10.198 -10.196 -10.195
-10.191 -10.191 -10.187 -10.184 -10.176 -10.173 -10.172 -10.172
-10.171 -10.169 -10.167 -10.162  -8.045  -8.043  -7.986  -7.985
 -7.984  -7.977  -7.976  -7.967  -6.010  -6.008  -6.004  -6.003
 -6.002  -6.001  -5.950  -5.949  -5.948  -5.947  -5.946  -5.945
 -5.943  -5.941  -5.941  -5.941  -5.940  -5.938  -5.937  -5.934
 -5.932  -5.931  -5.928  -5.923  -1.041  -1.038  -0.966  -0.962
 -0.960  -0.952  -0.943  -0.937  -0.921  -0.917  -0.912  -0.907
 -0.852  -0.839  -0.833  -0.828  -0.818  -0.812  -0.811  -0.808
 -0.806  -0.804  -0.801  -0.795  -0.790  -0.780  -0.771  -0.764
 -0.756  -0.752  -0.744  -0.738  -0.728  -0.720  -0.717  -0.706
 -0.699  -0.691  -0.680  -0.676  -0.657  -0.656  -0.650  -0.644
 -0.640  -0.636  -0.633  -0.621  -0.615  -0.612  -0.600  -0.597
 -0.591  -0.591  -0.588  -0.585  -0.585  -0.577  -0.563  -0.558
 -0.547  -0.546  -0.540  -0.537  -0.524  -0.524  -0.516  -0.513
 -0.509  -0.505  -0.502  -0.499  -0.489  -0.489  -0.478  -0.477
 -0.477  -0.471  -0.470  -0.469  -0.469  -0.457  -0.453  -0.451
 -0.447  -0.446  -0.440  -0.440  -0.435  -0.433  -0.432  -0.431
 -0.430  -0.430  -0.425  -0.425  -0.420  -0.416  -0.415  -0.414
 -0.412  -0.409  -0.406  -0.404  -0.402  -0.399  -0.398  -0.397
 -0.397  -0.395  -0.394  -0.393  -0.390  -0.390  -0.385  -0.384
 -0.379  -0.377  -0.373  -0.373  -0.368  -0.365  -0.361  -0.359
 -0.355  -0.353  -0.351  -0.350  -0.349  -0.347  -0.345  -0.341
 -0.340  -0.339  -0.336  -0.334  -0.332  -0.329  -0.326  -0.322
 -0.320  -0.311  -0.307  -0.306  -0.305  -0.301  -0.297  -0.297
 -0.295  -0.294  -0.291  -0.290  -0.290  -0.282  -0.279  -0.276
 -0.275  -0.268  -0.268  -0.261  -0.255  -0.252  -0.249  -0.247
 -0.246  -0.241  -0.236  -0.231  -0.195  -0.190

          Ground-State Mulliken Net Atomic Charges

     Atom                 Charge (a.u.)
  ----------------------------------------
      1 C                     0.274563
      2 C                    -0.116202
      3 N                    -0.487353
      4 C                    -0.036160
      5 C                     0.076363
      6 C                     0.015083
      7 C                     0.022669
      8 C                     0.058374
      9 C                     0.298297
     10 N                    -0.461280
     11 N                    -0.598012
     12 C                     0.181891
     13 C                     0.234455
     14 S                     0.597083
     15 N                    -0.548071
     16 C                    -0.206713
     17 S                     0.352000
     18 C                    -0.120826
     19 C                    -0.197591
     20 S                     0.254294
     21 C                     0.156014
     22 C                     0.039233
     23 C                    -0.306531
     24 C                    -0.089581
     25 N                    -0.433992
     26 S                     0.277835
     27 C                     0.106793
     28 C                    -0.294768
     29 C                    -0.237480
     30 H                     0.081296
     31 H                     0.114059
     32 H                     0.103710
     33 H                     0.114506
     34 H                     0.146414
     35 H                     0.117656
     36 H                     0.110386
     37 H                     0.130821
     38 H                     0.122662
     39 C                    -0.178135
     40 H                     0.107135
     41 H                     0.095327
     42 H                     0.095527
     43 C                    -0.176762
     44 H                     0.084078
     45 C                    -0.182954
     46 H                     0.097729
     47 H                     0.075437
     48 H                     0.126923
     49 C                    -0.181854
     50 H                     0.090617
     51 C                    -0.316178
     52 H                     0.084848
     53 H                     0.109820
     54 H                     0.103579
     55 H                     0.094354
     56 C                     0.261864
     57 C                    -0.109412
     58 N                    -0.479496
     59 C                    -0.083849
     60 C                     0.081292
     61 C                     0.034569
     62 C                     0.020907
     63 C                     0.062032
     64 C                     0.229163
     65 N                    -0.525823
     66 N                    -0.546298
     67 C                     0.181481
     68 C                     0.300667
     69 S                     0.596546
     70 N                    -0.533203
     71 C                    -0.199872
     72 S                     0.311515
     73 C                    -0.122412
     74 C                    -0.215048
     75 S                     0.294346
     76 C                     0.154565
     77 C                     0.036551
     78 C                    -0.300823
     79 C                    -0.046306
     80 N                    -0.439880
     81 S                     0.267755
     82 C                     0.114745
     83 C                    -0.305142
     84 C                    -0.239938
     85 H                     0.095995
     86 H                     0.105917
     87 H                     0.123321
     88 H                     0.117989
     89 H                     0.120955
     90 H                     0.135163
     91 H                     0.112673
     92 H                     0.140417
     93 H                     0.115734
     94 C                    -0.176262
     95 H                     0.109932
     96 H                     0.091655
     97 H                     0.095631
     98 C                    -0.163917
     99 H                     0.099259
    100 C                    -0.163214
    101 H                     0.093900
    102 H                     0.087714
    103 H                     0.085873
    104 C                    -0.176681
    105 H                     0.087307
    106 C                    -0.309805
    107 H                     0.089254
    108 H                     0.101174
    109 H                     0.100863
    110 H                     0.097269
  ----------------------------------------
  Sum of atomic charges =     0.000000

                    Cartesian Multipole Moments
 -----------------------------------------------------------------
    Charge (ESU x 10^10)
                 0.0000
    Dipole Moment (Debye)
         X       3.7066      Y       0.8166      Z      -0.0306
       Tot       3.7956
    Quadrupole Moments (Debye-Ang)
        XX    -419.8094     XY       8.3104     YY    -429.5674
        XZ      17.5649     YZ       7.8999     ZZ    -432.7218

 Total job time:  96.30s(wall), 1039.89s(cpu)
        *  Thank you very much for using Q-Chem.  Have a nice day.  *
