 Q-Chem 4.4, Q-Chem, Inc., Pleasanton, CA (2016)
 Q-Chem 4.4.2 for Intel X86 Linux

User input:
--------------------------------------------------------------
$comment
SP
$end

$rem
MEM_STATIC 5000
MEM_TOTAL 20000
JOBTYPE SP
EXCHANGE B3LYP
BASIS 6-31g(d,p)
$end

$molecule
0 1
C          24.591000     21.665000     -0.159000
C          24.856000     22.980000      0.315000
N          23.371000     21.117000     -0.173000
C          23.728000     23.720000      0.782000
C          22.300000     21.836000      0.274000
C          22.409000     23.140000      0.809000
C          21.222000     23.975000      1.213000
C          21.132000     25.374000      0.937000
C          20.114000     23.427000      1.869000
N          20.106000     26.159000      1.205000
N          19.955000     22.067000      2.118000
C          19.023000     24.213000      2.194000
C          19.064000     25.614000      1.908000
S          18.391000     21.908000      2.787000
N          18.023000     23.544000      2.714000
C          17.870000     26.475000      2.149000
S          16.261000     25.905000      2.552000
C          17.872000     27.845000      2.044000
C          15.635000     27.498000      2.559000
S          19.154000     28.960000      1.613000
C          16.624000     28.388000      2.335000
C          14.301000     27.862000      2.803000
C          17.971000     30.263000      1.776000
C          16.710000     29.870000      2.199000
N          13.872000     29.095000      2.546000
S          13.173000     26.676000      3.125000
C          12.451000     29.104000      2.689000
C          11.940000     27.876000      2.926000
C          25.725000     20.713000     -0.613000
H          25.875000     23.349000      0.245000
H          23.869000     24.759000      1.064000
H          21.333000     21.338000      0.240000
H          22.024000     25.785000      0.466000
H          18.332000     31.201000      1.376000
H          15.905000     30.593000      2.132000
H          11.865000     29.984000      2.458000
H          10.897000     27.625000      3.072000
H          26.308000     21.313000     -1.323000
C          25.202000     19.464000     -1.357000
H          26.402000     20.451000      0.210000
H          24.417000     19.766000     -2.062000
H          24.801000     18.670000     -0.716000
C          26.313000     18.811000     -2.153000
H          26.841000     19.600000     -2.703000
C          25.828000     17.651000     -3.085000
H          27.035000     18.392000     -1.442000
H          25.272000     16.884000     -2.531000
H          26.718000     17.109000     -3.426000
C          25.041000     18.157000     -4.339000
H          24.234000     18.851000     -4.075000
C          24.414000     16.998000     -5.096000
H          25.722000     18.757000     -4.955000
H          23.703000     17.301000     -5.875000
H          23.815000     16.261000     -4.548000
H          25.208000     16.390000     -5.548000
C          27.523000     30.063000      0.479000
C          26.341000     29.792000      1.137000
N          27.942000     29.432000     -0.659000
C          25.454000     28.844000      0.668000
C          27.079000     28.500000     -1.140000
C          25.801000     28.158000     -0.534000
C          24.812000     27.160000     -1.150000
C          25.266000     25.863000     -1.607000
C          23.433000     27.335000     -1.336000
N          24.455000     24.959000     -2.223000
N          22.887000     28.485000     -0.926000
C          22.576000     26.430000     -1.980000
C          23.177000     25.215000     -2.419000
S          21.384000     28.352000     -1.420000
N          21.360000     26.903000     -2.176000
C          22.428000     24.216000     -3.240000
S          20.737000     24.311000     -3.586000
C          22.945000     23.119000     -3.933000
C          20.794000     23.059000     -4.830000
S          24.594000     22.679000     -4.177000
C          22.092000     22.543000     -4.818000
C          19.705000     22.572000     -5.713000
C          24.032000     21.456000     -5.288000
C          22.658000     21.447000     -5.544000
N          18.496000     23.197000     -5.578000
S          19.680000     21.073000     -6.664000
C          17.613000     22.587000     -6.386000
C          18.035000     21.491000     -7.115000
C          28.544000     31.051000      1.101000
H          26.188000     30.346000      2.059000
H          24.494000     28.728000      1.164000
H          27.414000     27.890000     -1.977000
H          26.292000     25.576000     -1.384000
H          24.707000     20.769000     -5.781000
H          22.247000     20.873000     -6.366000
H          16.682000     23.112000     -6.554000
H          17.494000     20.869000     -7.816000
H          29.142000     31.598000      0.361000
C          29.471000     30.226000      2.006000
H          28.009000     31.843000      1.639000
H          29.985000     29.409000      1.484000
H          28.791000     29.750000      2.723000
C          30.574000     31.125000      2.628000
H          31.140000     31.562000      1.797000
C          31.558000     30.376000      3.539000
H          30.084000     31.898000      3.233000
H          32.258000     29.873000      2.861000
H          31.019000     29.586000      4.078000
C          32.271000     31.343000      4.470000
H          32.812000     32.091000      3.876000
C          33.107000     30.695000      5.601000
H          31.418000     31.732000      5.039000
H          32.541000     30.029000      6.264000
H          33.724000     31.457000      6.093000
H          33.790000     29.947000      5.179000
$end

--------------------------------------------------------------

             Standard Nuclear Orientation (Angstroms)
    I     Atom           X                Y                Z
 ----------------------------------------------------------------
    1      C      -2.1074864010    -2.9246948245    -2.6785088216
    2      C      -2.5675718907    -1.6425816612    -2.2678591185
    3      N      -0.8193392343    -3.2126556658    -2.8945075040
    4      C      -1.5644472202    -0.6443602961    -2.0797952949
    5      C       0.1306356969    -2.2499297943    -2.7087185737
    6      C      -0.1737966952    -0.9199058791    -2.3387465429
    7      C       0.8737432958     0.1200203554    -2.0377093455
    8      C       0.7551127496     1.0449699222    -0.9551789337
    9      C       2.0484984440     0.2338510463    -2.7895716438
   10      N       1.6514522779     1.9425943653    -0.5924520267
   11      N       2.4076288077    -0.6478182155    -3.8047399523
   12      C       3.0087357238     1.1753405131    -2.4651584035
   13      C       2.7603133568     2.0799887388    -1.3852621514
   14      S       3.9751921256    -0.1696821986    -4.2875123560
   15      N       4.0952891519     1.0981279820    -3.1941308809
   16      C       3.8115398909     3.0399143569    -0.9397247438
   17      S       5.4859657774     3.0397792252    -1.4617285104
   18      C       3.6055906721     4.0373362038    -0.0174104923
   19      C       5.8672725565     4.3546412784    -0.4344423179
   20      S       2.1733063629     4.4819643681     0.8899909918
   21      C       4.7574564803     4.7880223056     0.1987133993
   22      C       7.1310653865     4.9476285692    -0.2835060540
   23      C       3.1480234606     5.7351061802     1.6667980323
   24      C       4.4518614541     5.8430752343     1.2065283613
   25      N       7.3723284271     5.7960981896     0.7126216730
   26      S       8.4220971281     4.3619762489    -1.1626604214
   27      C       8.7755072942     6.0615187910     0.7329187519
   28      C       9.4630503421     5.3168758414    -0.1604263298
   29      C      -3.0849675577    -4.0800286078    -3.0073103382
   30      H      -3.6299337709    -1.5215034096    -2.0777294452
   31      H      -1.8599873915     0.3194997055    -1.6766130727
   32      H       1.1612358249    -2.5417349403    -2.9009739582
   33      H      -0.1863534220     0.9653196682    -0.4132164952
   34      H       2.6527086380     6.1717136553     2.5236539941
   35      H       5.1402486886     6.4586048723     1.7744097574
   36      H       9.2245724631     6.6710367095     1.5062138967
   37      H      10.5312391933     5.3372946311    -0.3357022590
   38      H      -3.7481465765    -4.1242403809    -2.1342536915
   39      C      -2.3785513164    -5.4474207067    -3.1425173720
   40      H      -3.7185494772    -3.8541890383    -3.8744161219
   41      H      -1.6446124269    -5.5562037600    -2.3338431769
   42      H      -1.8661192697    -5.6182053682    -4.0966473405
   43      C      -3.3765461968    -6.5799938371    -3.0174960819
   44      H      -4.0141694694    -6.3718760864    -2.1492054831
   45      C      -2.7202395069    -7.9993863983    -2.9539721801
   46      H      -4.0307594241    -6.5507218584    -3.8969926450
   47      H      -2.0582277186    -8.1846134685    -3.8094091005
   48      H      -3.5180662250    -8.7374947777    -3.0982411927
   49      C      -2.0125888020    -8.2898822979    -1.5891411971
   50      H      -1.3192048883    -7.4914995133    -1.2986507885
   51      C      -1.2167127402    -9.5830866904    -1.6496613864
   52      H      -2.7730415995    -8.2875575658    -0.7986203951
   53      H      -0.5558020414    -9.7457932914    -0.7889090351
   54      H      -0.5166344199    -9.7436213687    -2.4781497462
   55      H      -1.9093297880   -10.4297019532    -1.7387019502
   56      C      -6.2620444326     3.6346752558     1.7083332900
   57      C      -5.0554507309     3.9734615006     1.1313718359
   58      N      -6.5777202751     2.3899441083     2.1771180304
   59      C      -4.0351023756     3.0534696776     0.9974379736
   60      C      -5.5834427435     1.4720593863     2.0602684379
   61      C      -4.2711264679     1.7350205396     1.4891629969
   62      C      -3.1418804404     0.6973422915     1.4490598455
   63      C      -3.3954954514    -0.6462029680     0.9718391819
   64      C      -1.8036968292     0.8826411839     1.8256112274
   65      N      -2.4562796069    -1.6322374241     0.9734666942
   66      N      -1.4369959772     2.0940275004     2.2578029410
   67      C      -0.8187363557    -0.1160221005     1.8527130722
   68      C      -1.2300095650    -1.4023732324     1.3985081483
   69      S       0.0709651045     1.8643690631     2.6983076268
   70      N       0.3138544163     0.2747619140     2.4052770930
   71      C      -0.3371169259    -2.5965418530     1.4972352497
   72      S       1.3221395470    -2.5351588693     1.9781947976
   73      C      -0.6819316989    -3.9387153259     1.3222491334
   74      C       1.4574735615    -4.2840286744     2.1817337599
   75      S      -2.2458586541    -4.6283030914     1.0965542233
   76      C       0.2509428890    -4.8319870482     1.7398860972
   77      C       2.6104196562    -5.0788177898     2.6734700355
   78      C      -1.5033084967    -6.1982834869     1.2688180372
   79      C      -0.1423419849    -6.1996899169     1.5870336491
   80      N       3.7121050315    -4.3658523045     3.0588277275
   81      S       2.8625273150    -6.8279261106     2.5029156149
   82      C       4.6794118873    -5.2341985212     3.3978635584
   83      C       4.4285262203    -6.5865506370     3.2602367550
   84      C      -7.4214639223     4.6644899928     1.7347350775
   85      H      -4.9904554387     4.9928244839     0.7611236485
   86      H      -3.0705066680     3.3855735757     0.6228260120
   87      H      -5.8203810814     0.4401769909     2.3131971752
   88      H      -4.3680694586    -0.8532661636     0.5291218527
   89      H      -2.0663104953    -7.1173644225     1.1741502844
   90      H       0.3529353135    -7.1051955764     1.9169440886
   91      H       5.5223260260    -4.8197877600     3.9348640013
   92      H       5.0590307292    -7.4387741973     3.4773659042
   93      H      -8.0914495500     4.5587827726     2.5974970621
   94      C      -8.2185776503     4.4745381640     0.4356942746
   95      H      -7.0127364595     5.6761740344     1.8459567529
   96      H      -8.6028738075     3.4558857418     0.2984619671
   97      H      -7.4780117742     4.6308686180    -0.3581495213
   98      C      -9.4458011775     5.4255145039     0.4001919456
   99      H     -10.0673751663     5.1819136180     1.2697840252
  100      C     -10.3106384862     5.2914226208    -0.8620496305
  101      H      -9.0789998386     6.4585996525     0.4431553413
  102      H     -10.9250802459     4.3974465547    -0.7009250916
  103      H      -9.6619457677     5.0770274546    -1.7213368175
  104      C     -11.1635947649     6.5332342560    -1.0635153823
  105      H     -11.8077819939     6.6807287940    -0.1869943185
  106      C     -11.8980263420     6.6315038642    -2.4232632790
  107      H     -10.3804285906     7.2895207748    -1.1953199536
  108      H     -11.2416249572     6.5933625663    -3.3014224124
  109      H     -12.6237404427     7.4537338216    -2.3973029027
  110      H     -12.4601187642     5.7081447360    -2.6117759557
 ----------------------------------------------------------------

   10   -5663.5221301954      4.15E-06 Convergence criterion met
 Total energy in the final basis set = -5663.5221301954

                    Orbital Energies (a.u.)
 --------------------------------------------------------------

 Alpha MOs
 -- Occupied --
-88.989 -88.984 -88.929 -88.926 -88.925 -88.919 -88.910 -88.909
-14.385 -14.385 -14.383 -14.381 -14.357 -14.350 -14.343 -14.340
-14.337 -14.321 -10.273 -10.269 -10.264 -10.261 -10.254 -10.253
-10.252 -10.251 -10.243 -10.241 -10.241 -10.238 -10.236 -10.236
-10.232 -10.232 -10.230 -10.229 -10.228 -10.227 -10.227 -10.226
-10.226 -10.224 -10.224 -10.223 -10.223 -10.221 -10.221 -10.215
-10.214 -10.213 -10.209 -10.202 -10.202 -10.200 -10.200 -10.196
-10.187 -10.182 -10.181 -10.179 -10.177 -10.176 -10.174 -10.174
-10.173 -10.168 -10.167 -10.162  -8.043  -8.040  -7.990  -7.989
 -7.986  -7.978  -7.970  -7.969  -6.008  -6.005  -6.003  -6.000
 -5.999  -5.998  -5.954  -5.953  -5.951  -5.950  -5.949  -5.947
 -5.947  -5.946  -5.943  -5.943  -5.938  -5.935  -5.934  -5.934
 -5.931  -5.930  -5.926  -5.925  -1.055  -1.021  -0.970  -0.961
 -0.960  -0.959  -0.934  -0.926  -0.922  -0.919  -0.916  -0.891
 -0.848  -0.846  -0.830  -0.828  -0.813  -0.808  -0.808  -0.804
 -0.802  -0.797  -0.795  -0.791  -0.785  -0.773  -0.766  -0.765
 -0.748  -0.744  -0.738  -0.737  -0.730  -0.722  -0.709  -0.706
 -0.692  -0.691  -0.681  -0.670  -0.654  -0.649  -0.647  -0.644
 -0.631  -0.630  -0.628  -0.621  -0.607  -0.606  -0.598  -0.596
 -0.593  -0.589  -0.584  -0.581  -0.577  -0.575  -0.570  -0.556
 -0.546  -0.542  -0.541  -0.540  -0.527  -0.521  -0.515  -0.510
 -0.505  -0.503  -0.500  -0.499  -0.493  -0.481  -0.478  -0.477
 -0.475  -0.470  -0.464  -0.463  -0.460  -0.457  -0.448  -0.446
 -0.444  -0.442  -0.441  -0.435  -0.434  -0.432  -0.429  -0.428
 -0.427  -0.424  -0.422  -0.417  -0.416  -0.414  -0.414  -0.412
 -0.411  -0.408  -0.402  -0.401  -0.401  -0.400  -0.398  -0.397
 -0.392  -0.390  -0.389  -0.388  -0.387  -0.384  -0.383  -0.382
 -0.378  -0.377  -0.371  -0.368  -0.363  -0.361  -0.354  -0.354
 -0.353  -0.350  -0.349  -0.348  -0.346  -0.344  -0.342  -0.341
 -0.339  -0.337  -0.334  -0.331  -0.327  -0.325  -0.323  -0.318
 -0.316  -0.309  -0.305  -0.304  -0.303  -0.302  -0.301  -0.299
 -0.297  -0.295  -0.293  -0.288  -0.286  -0.284  -0.282  -0.280
 -0.277  -0.274  -0.267  -0.259  -0.259  -0.253  -0.249  -0.248
 -0.244  -0.242  -0.235  -0.229  -0.196  -0.191

          Ground-State Mulliken Net Atomic Charges

     Atom                 Charge (a.u.)
  ----------------------------------------
      1 C                     0.280929
      2 C                    -0.091799
      3 N                    -0.487756
      4 C                    -0.105429
      5 C                     0.095110
      6 C                     0.035974
      7 C                     0.015092
      8 C                     0.101231
      9 C                     0.231478
     10 N                    -0.527441
     11 N                    -0.570308
     12 C                     0.271243
     13 C                     0.292644
     14 S                     0.592981
     15 N                    -0.601914
     16 C                    -0.228915
     17 S                     0.341559
     18 C                    -0.106071
     19 C                    -0.240861
     20 S                     0.275002
     21 C                     0.141667
     22 C                     0.095530
     23 C                    -0.303895
     24 C                    -0.057774
     25 N                    -0.457629
     26 S                     0.273293
     27 C                     0.116841
     28 C                    -0.301374
     29 C                    -0.245435
     30 H                     0.089951
     31 H                     0.093870
     32 H                     0.122196
     33 H                     0.087171
     34 H                     0.131242
     35 H                     0.130899
     36 H                     0.119225
     37 H                     0.130272
     38 H                     0.110329
     39 C                    -0.149079
     40 H                     0.112357
     41 H                     0.119456
     42 H                     0.098972
     43 C                    -0.187929
     44 H                     0.080117
     45 C                    -0.176720
     46 H                     0.080019
     47 H                     0.091099
     48 H                     0.085666
     49 C                    -0.177752
     50 H                     0.111822
     51 C                    -0.321614
     52 H                     0.087907
     53 H                     0.090908
     54 H                     0.104691
     55 H                     0.098765
     56 C                     0.249977
     57 C                    -0.100302
     58 N                    -0.472502
     59 C                    -0.054188
     60 C                     0.080749
     61 C                     0.008779
     62 C                     0.020104
     63 C                     0.039946
     64 C                     0.170481
     65 N                    -0.530709
     66 N                    -0.522385
     67 C                     0.239926
     68 C                     0.344844
     69 S                     0.628723
     70 N                    -0.566800
     71 C                    -0.233362
     72 S                     0.358450
     73 C                    -0.110511
     74 C                    -0.224403
     75 S                     0.294435
     76 C                     0.123746
     77 C                     0.030164
     78 C                    -0.305099
     79 C                    -0.083250
     80 N                    -0.416280
     81 S                     0.281168
     82 C                     0.130713
     83 C                    -0.318403
     84 C                    -0.220599
     85 H                     0.089957
     86 H                     0.117247
     87 H                     0.102594
     88 H                     0.110456
     89 H                     0.124443
     90 H                     0.120364
     91 H                     0.110462
     92 H                     0.135992
     93 H                     0.112385
     94 C                    -0.175992
     95 H                     0.095442
     96 H                     0.111483
     97 H                     0.089479
     98 C                    -0.176401
     99 H                     0.097006
    100 C                    -0.177225
    101 H                     0.087329
    102 H                     0.089103
    103 H                     0.088389
    104 C                    -0.168208
    105 H                     0.096423
    106 C                    -0.324563
    107 H                     0.098351
    108 H                     0.103701
    109 H                     0.103785
    110 H                     0.096776
  ----------------------------------------
  Sum of atomic charges =     0.000000

                    Cartesian Multipole Moments
 -----------------------------------------------------------------
    Charge (ESU x 10^10)
                 0.0000
    Dipole Moment (Debye)
         X       2.5082      Y       0.8338      Z      -0.2869
       Tot       2.6587
    Quadrupole Moments (Debye-Ang)
        XX    -401.1057     XY       0.2273     YY    -413.2728
        XZ       7.0499     YZ      -5.0277     ZZ    -449.5540

 Total job time:  105.44s(wall), 1139.93s(cpu)
        *  Thank you very much for using Q-Chem.  Have a nice day.  *
