 Q-Chem 4.4, Q-Chem, Inc., Pleasanton, CA (2016)
 Q-Chem 4.4.2 for Intel X86 Linux

User input:
--------------------------------------------------------------
$comment
SP
$end

$rem
MEM_STATIC 5000
MEM_TOTAL 20000
JOBTYPE SP
EXCHANGE B3LYP
BASIS 6-31g(d,p)
$end

$molecule
0 1
C          28.549000     25.884000      3.320000
C          28.060000     24.740000      3.973000
N          27.694000     26.924000      3.049000
C          26.750000     24.638000      4.488000
C          26.400000     26.813000      3.550000
C          25.881000     25.737000      4.277000
C          24.385000     25.696000      4.688000
C          24.055000     24.891000      5.845000
C          23.254000     26.372000      4.120000
N          22.761000     24.831000      6.260000
N          23.472000     27.192000      3.099000
C          22.003000     26.317000      4.683000
C          21.744000     25.439000      5.726000
S          22.061000     27.986000      2.892000
N          21.212000     27.268000      4.082000
C          20.417000     25.294000      6.247000
S          18.956000     26.107000      5.600000
C          20.055000     24.489000      7.323000
C          17.931000     25.375000      6.878000
S          21.082000     23.673000      8.428000
C          18.687000     24.531000      7.631000
C          16.516000     25.545000      6.934000
C          19.598000     23.195000      9.266000
C          18.432000     23.752000      8.744000
N          15.791000     24.727000      7.693000
S          15.691000     26.906000      6.202000
C          14.519000     25.155000      7.619000
C          14.251000     26.288000      6.952000
C          29.961000     26.105000      2.827000
H          28.847000     24.014000      4.158000
H          26.352000     23.841000      5.110000
H          25.821000     27.700000      3.295000
H          24.709000     24.187000      6.357000
H          19.739000     22.739000     10.237000
H          17.457000     23.563000      9.178000
H          13.790000     24.527000      8.114000
H          13.319000     26.811000      6.784000
H          30.253000     25.223000      2.244000
C          30.955000     26.133000      4.005000
H          30.048000     27.027000      2.240000
H          30.937000     25.170000      4.531000
H          30.764000     26.902000      4.764000
C          32.396000     26.277000      3.471000
H          32.626000     25.747000      2.539000
C          33.300000     25.865000      4.626000
H          32.595000     27.339000      3.280000
H          33.094000     24.852000      4.992000
H          33.161000     26.459000      5.538000
C          34.792000     26.068000      4.147000
H          35.135000     25.282000      3.463000
C          35.836000     26.260000      5.279000
H          34.910000     27.043000      3.658000
H          35.995000     25.384000      5.920000
H          35.468000     27.025000      5.974000
H          36.829000     26.423000      4.841000
C          27.523000     30.063000      0.479000
C          26.341000     29.792000      1.137000
N          27.942000     29.432000     -0.659000
C          25.454000     28.844000      0.668000
C          27.079000     28.500000     -1.140000
C          25.801000     28.158000     -0.534000
C          24.812000     27.160000     -1.150000
C          25.266000     25.863000     -1.607000
C          23.433000     27.335000     -1.336000
N          24.455000     24.959000     -2.223000
N          22.887000     28.485000     -0.926000
C          22.576000     26.430000     -1.980000
C          23.177000     25.215000     -2.419000
S          21.384000     28.352000     -1.420000
N          21.360000     26.903000     -2.176000
C          22.428000     24.216000     -3.240000
S          20.737000     24.311000     -3.586000
C          22.945000     23.119000     -3.933000
C          20.794000     23.059000     -4.830000
S          24.594000     22.679000     -4.177000
C          22.092000     22.543000     -4.818000
C          19.705000     22.572000     -5.713000
C          24.032000     21.456000     -5.288000
C          22.658000     21.447000     -5.544000
N          18.496000     23.197000     -5.578000
S          19.680000     21.073000     -6.664000
C          17.613000     22.587000     -6.386000
C          18.035000     21.491000     -7.115000
C          28.544000     31.051000      1.101000
H          26.188000     30.346000      2.059000
H          24.494000     28.728000      1.164000
H          27.414000     27.890000     -1.977000
H          26.292000     25.576000     -1.384000
H          24.707000     20.769000     -5.781000
H          22.247000     20.873000     -6.366000
H          16.682000     23.112000     -6.554000
H          17.494000     20.869000     -7.816000
H          29.142000     31.598000      0.361000
C          29.471000     30.226000      2.006000
H          28.009000     31.843000      1.639000
H          29.985000     29.409000      1.484000
H          28.791000     29.750000      2.723000
C          30.574000     31.125000      2.628000
H          31.140000     31.562000      1.797000
C          31.558000     30.376000      3.539000
H          30.084000     31.898000      3.233000
H          32.258000     29.873000      2.861000
H          31.019000     29.586000      4.078000
C          32.271000     31.343000      4.470000
H          32.812000     32.091000      3.876000
C          33.107000     30.695000      5.601000
H          31.418000     31.732000      5.039000
H          32.541000     30.029000      6.264000
H          33.724000     31.457000      6.093000
H          33.790000     29.947000      5.179000
$end

--------------------------------------------------------------

             Standard Nuclear Orientation (Angstroms)
    I     Atom           X                Y                Z
 ----------------------------------------------------------------
    1      C      -4.8026338985    -0.0624606792    -1.6144540123
    2      C      -4.1863258332     0.5841549170    -2.6990362542
    3      N      -4.2678875835     0.0707330497    -0.3565304021
    4      C      -3.1035177818     1.4783691668    -2.5589056033
    5      C      -3.1930380023     0.9456556621    -0.2262737310
    6      C      -2.5906450471     1.6789360454    -1.2534487924
    7      C      -1.3284216363     2.5417313420    -0.9870011666
    8      C      -1.0998299927     3.6483351648    -1.8918480264
    9      C      -0.3487534806     2.4445221527     0.0568195452
   10      N      -0.0169152474     4.4479210008    -1.6963508521
   11      N      -0.5173911593     1.5034710355     0.9778782448
   12      C       0.6526613068     3.3700587064     0.2166491772
   13      C       0.8703729186     4.3386524179    -0.7530115243
   14      S       0.5816902471     1.8486768471     2.1341909230
   15      N       1.2473447725     3.1625593171     1.4391787593
   16      C       1.9802001669     5.2392832807    -0.6503347127
   17      S       3.2402806072     5.1887257980     0.6239259455
   18      C       2.2602705785     6.2799731360    -1.5308857843
   19      C       4.0463182856     6.6404080998    -0.0562613491
   20      S       1.2702721961     6.9004743600    -2.7864698850
   21      C       3.4088181160     7.0138049964    -1.1986488890
   22      C       5.2678926925     7.1662478697     0.4590147951
   23      C       2.5378705691     8.1134280219    -3.0208238456
   24      C       3.5732358798     8.0577576910    -2.0895835502
   25      N       5.9700318236     8.0239515450    -0.2773105718
   26      S       5.8039399873     6.8911555981     2.1039304586
   27      C       7.0180462010     8.4096948025     0.4706947785
   28      C       7.0986347448     7.9919249430     1.7432417643
   29      C      -6.0209215802    -0.9557737492    -1.6727711089
   30      H      -4.7316990684     0.4261534613    -3.6254668098
   31      H      -2.6679714477     2.1044285558    -3.3327570311
   32      H      -2.8672371775     0.9885394297     0.8124994902
   33      H      -1.6209068940     3.8430669549    -2.8278151160
   34      H       2.2816091258     8.9317987894    -3.6805642185
   35      H       4.3998440150     8.7586575543    -2.1022473722
   36      H       7.7383334581     9.0410642496    -0.0327025681
   37      H       7.8336704774     8.1903665381     2.5118251399
   38      H      -5.8558151893    -1.6941934891    -2.4668448884
   39      C      -7.2597706203    -0.1639578379    -2.1362197237
   40      H      -6.2211066294    -1.4353569031    -0.7072930177
   41      H      -7.0930634605     0.2316036459    -3.1462240976
   42      H      -7.5307529670     0.6952485043    -1.5099162595
   43      C      -8.4695679140    -1.1135534229    -2.2667254053
   44      H      -8.2597187889    -2.1219636822    -2.6428850703
   45      C      -9.4851663099    -0.3624414971    -3.1184153567
   46      H      -8.9238639176    -1.2413433477    -1.2761645156
   47      H      -9.0877511615    -0.0624396489    -4.0954624850
   48      H      -9.7920328933     0.6048974697    -2.7012952022
   49      C     -10.7746773520    -1.2702510466    -3.2171933603
   50      H     -10.6576333865    -2.1095959826    -3.9136858503
   51      C     -12.0966876179    -0.5198858338    -3.5293870574
   52      H     -11.0463669982    -1.6618274471    -2.2290017500
   53      H     -12.1496093103    -0.0635261659    -4.5256165230
   54      H     -12.1875479250     0.3355486349    -2.8484683587
   55      H     -12.9306198188    -1.2331670340    -3.5451672253
   56      C      -4.3662657654    -1.9495536378     3.1642969770
   57      C      -3.3876653505    -0.9803771194     3.0832593056
   58      N      -4.2408580056    -3.2234821836     2.6845627235
   59      C      -2.1596138137    -1.2399584963     2.5088544556
   60      C      -3.0362703112    -3.5003177618     2.1214601137
   61      C      -1.9341061945    -2.5569559440     2.0083816429
   62      C      -0.5572800385    -2.9274988532     1.4421408030
   63      C      -0.4472406623    -3.6446992330     0.1888695031
   64      C       0.6966632775    -2.6403250217     2.0007277261
   65      N       0.7385954024    -4.0621801994    -0.3344807336
   66      N       0.7284691308    -1.9538092714     3.1480727101
   67      C       1.9324316212    -3.0694748772     1.4938579182
   68      C       1.8784418675    -3.8080297907     0.2765786790
   69      S       2.2747152263    -1.9501145171     3.5084105529
   70      N       2.9492544199    -2.8115793677     2.2940843251
   71      C       3.0934245500    -4.4486304790    -0.3120560457
   72      S       4.7002449603    -4.2204482450     0.2831607527
   73      C       3.1497880551    -5.3862617466    -1.3457957428
   74      C       5.3750853228    -5.5455059935    -0.6692579831
   75      S       1.8496342236    -6.1935757963    -2.1396351722
   76      C       4.3474554106    -6.0075218133    -1.4949226522
   77      C       6.7599192864    -6.0793548731    -0.6736473880
   78      C       3.0428650610    -7.1914831878    -2.9310105616
   79      C       4.3679662615    -6.9918296088    -2.5338478029
   80      N       7.6325271051    -5.4957665314     0.2030003417
   81      S       7.5044467517    -7.1293840238    -1.8964084588
   82      C       8.8467286788    -6.0386633823     0.0142397847
   83      C       8.9992576193    -6.9795277754    -0.9868846412
   84      C      -5.7708329513    -1.5847384021     3.7116267352
   85      H      -3.6722682525    -0.0034955131     3.4641956720
   86      H      -1.3861437636    -0.4775946968     2.5490728467
   87      H      -2.9237349480    -4.4618229314     1.6237276546
   88      H      -1.3554386845    -3.7958674252    -0.3917323658
   89      H       2.7744407742    -7.9470291194    -3.6574689207
   90      H       5.1449721466    -7.6956178655    -2.8077546195
   91      H       9.5802401025    -5.8403249649     0.7844558994
   92      H       9.8760683067    -7.5329608319    -1.2965310048
   93      H      -6.2794089369    -2.4133194996     4.2207601477
   94      C      -6.6118427940    -1.1212261331     2.5129450339
   95      H      -5.6745546365    -0.8203913308     4.4922912218
   96      H      -6.6857332306    -1.8665016371     1.7109016270
   97      H      -6.0439921256    -0.2801921937     2.0966848614
   98      C      -8.0638260925    -0.7924623978     2.9549324854
   99      H      -8.4844378971    -1.7083603304     3.3863286919
  100      C      -8.9817233383    -0.3333312636     1.8121983747
  101      H      -8.0211855725     0.0183803166     3.6927467429
  102      H      -9.2783541022    -1.2508692850     1.2898697720
  103      H      -8.3969889285     0.2607165531     1.0978211204
  104      C     -10.1844141958     0.4188209574     2.3581111310
  105      H     -10.7429332166    -0.2321872133     3.0431409588
  106      C     -11.0590818052     1.1434671144     1.3055877250
  107      H      -9.6833945102     1.2705494880     2.8337462694
  108      H     -10.5219478591     1.8763569980     0.6909003715
  109      H     -11.9904559804     1.4911476311     1.7693305461
  110      H     -11.3356590762     0.4454868881     0.5053342547
 ----------------------------------------------------------------

   10   -5663.5125584516      4.42E-06 Convergence criterion met
 Total energy in the final basis set = -5663.5125584516

                    Orbital Energies (a.u.)
 --------------------------------------------------------------

 Alpha MOs
 -- Occupied --
-88.993 -88.985 -88.930 -88.927 -88.923 -88.920 -88.911 -88.909
-14.388 -14.387 -14.383 -14.382 -14.349 -14.345 -14.343 -14.340
-14.330 -14.329 -10.273 -10.268 -10.263 -10.257 -10.256 -10.255
-10.253 -10.252 -10.247 -10.240 -10.238 -10.238 -10.238 -10.236
-10.236 -10.230 -10.228 -10.227 -10.227 -10.226 -10.225 -10.224
-10.224 -10.223 -10.222 -10.222 -10.222 -10.221 -10.221 -10.220
-10.219 -10.205 -10.204 -10.203 -10.203 -10.200 -10.194 -10.188
-10.188 -10.184 -10.181 -10.180 -10.180 -10.179 -10.178 -10.173
-10.173 -10.172 -10.172 -10.171  -8.049  -8.042  -7.990  -7.989
 -7.982  -7.979  -7.971  -7.970  -6.014  -6.008  -6.007  -6.006
 -6.001  -6.000  -5.954  -5.952  -5.950  -5.949  -5.947  -5.946
 -5.946  -5.943  -5.942  -5.939  -5.938  -5.936  -5.935  -5.934
 -5.932  -5.930  -5.928  -5.926  -1.056  -1.044  -0.979  -0.967
 -0.960  -0.959  -0.927  -0.923  -0.922  -0.916  -0.915  -0.904
 -0.846  -0.845  -0.829  -0.826  -0.815  -0.813  -0.810  -0.804
 -0.803  -0.800  -0.799  -0.792  -0.781  -0.780  -0.768  -0.763
 -0.752  -0.746  -0.741  -0.737  -0.722  -0.720  -0.713  -0.706
 -0.696  -0.689  -0.677  -0.670  -0.655  -0.651  -0.647  -0.644
 -0.638  -0.630  -0.629  -0.622  -0.608  -0.605  -0.594  -0.593
 -0.592  -0.589  -0.585  -0.583  -0.577  -0.575  -0.574  -0.568
 -0.558  -0.547  -0.542  -0.540  -0.527  -0.526  -0.519  -0.514
 -0.505  -0.501  -0.498  -0.496  -0.488  -0.487  -0.480  -0.478
 -0.476  -0.475  -0.469  -0.469  -0.459  -0.458  -0.452  -0.443
 -0.441  -0.439  -0.438  -0.433  -0.433  -0.430  -0.429  -0.428
 -0.426  -0.426  -0.425  -0.422  -0.418  -0.417  -0.415  -0.413
 -0.411  -0.408  -0.405  -0.402  -0.399  -0.398  -0.397  -0.396
 -0.394  -0.393  -0.392  -0.389  -0.388  -0.385  -0.383  -0.381
 -0.378  -0.375  -0.372  -0.371  -0.365  -0.360  -0.359  -0.356
 -0.354  -0.352  -0.351  -0.349  -0.347  -0.346  -0.345  -0.341
 -0.337  -0.337  -0.335  -0.334  -0.332  -0.326  -0.321  -0.320
 -0.319  -0.318  -0.309  -0.307  -0.306  -0.303  -0.301  -0.298
 -0.297  -0.296  -0.294  -0.293  -0.290  -0.283  -0.282  -0.278
 -0.271  -0.266  -0.266  -0.263  -0.258  -0.252  -0.250  -0.249
 -0.245  -0.241  -0.233  -0.231  -0.193  -0.190

          Ground-State Mulliken Net Atomic Charges

     Atom                 Charge (a.u.)
  ----------------------------------------
      1 C                     0.278340
      2 C                    -0.122126
      3 N                    -0.499244
      4 C                    -0.069187
      5 C                     0.063042
      6 C                     0.059774
      7 C                     0.020812
      8 C                     0.046979
      9 C                     0.224536
     10 N                    -0.551532
     11 N                    -0.572268
     12 C                     0.207223
     13 C                     0.374426
     14 S                     0.608104
     15 N                    -0.575934
     16 C                    -0.212767
     17 S                     0.316560
     18 C                    -0.126552
     19 C                    -0.248379
     20 S                     0.289343
     21 C                     0.198440
     22 C                     0.060569
     23 C                    -0.311241
     24 C                    -0.071088
     25 N                    -0.434511
     26 S                     0.271725
     27 C                     0.139233
     28 C                    -0.309212
     29 C                    -0.235182
     30 H                     0.083948
     31 H                     0.100645
     32 H                     0.114874
     33 H                     0.119690
     34 H                     0.124025
     35 H                     0.128222
     36 H                     0.105626
     37 H                     0.135964
     38 H                     0.107969
     39 C                    -0.187791
     40 H                     0.134714
     41 H                     0.091272
     42 H                     0.107686
     43 C                    -0.178480
     44 H                     0.097156
     45 C                    -0.179886
     46 H                     0.108855
     47 H                     0.092445
     48 H                     0.092218
     49 C                    -0.182190
     50 H                     0.094245
     51 C                    -0.326334
     52 H                     0.099548
     53 H                     0.094644
     54 H                     0.102064
     55 H                     0.099657
     56 C                     0.258178
     57 C                    -0.094759
     58 N                    -0.477327
     59 C                    -0.029504
     60 C                     0.083958
     61 C                     0.004903
     62 C                     0.026013
     63 C                     0.047717
     64 C                     0.175314
     65 N                    -0.532613
     66 N                    -0.525888
     67 C                     0.254610
     68 C                     0.336787
     69 S                     0.590392
     70 N                    -0.563608
     71 C                    -0.233940
     72 S                     0.355931
     73 C                    -0.116468
     74 C                    -0.224713
     75 S                     0.297247
     76 C                     0.124906
     77 C                     0.030778
     78 C                    -0.304541
     79 C                    -0.082551
     80 N                    -0.417164
     81 S                     0.280440
     82 C                     0.130919
     83 C                    -0.318686
     84 C                    -0.223891
     85 H                     0.085078
     86 H                     0.110488
     87 H                     0.099153
     88 H                     0.119329
     89 H                     0.121231
     90 H                     0.119638
     91 H                     0.110225
     92 H                     0.135935
     93 H                     0.107763
     94 C                    -0.182988
     95 H                     0.091955
     96 H                     0.111354
     97 H                     0.112171
     98 C                    -0.177484
     99 H                     0.094149
    100 C                    -0.187186
    101 H                     0.085745
    102 H                     0.090735
    103 H                     0.095205
    104 C                    -0.168065
    105 H                     0.096687
    106 C                    -0.327621
    107 H                     0.099525
    108 H                     0.102762
    109 H                     0.104226
    110 H                     0.096882
  ----------------------------------------
  Sum of atomic charges =     0.000000

                    Cartesian Multipole Moments
 -----------------------------------------------------------------
    Charge (ESU x 10^10)
                 0.0000
    Dipole Moment (Debye)
         X       1.1783      Y       1.5453      Z      -1.2415
       Tot       2.3060
    Quadrupole Moments (Debye-Ang)
        XX    -410.3288     XY      -6.7909     YY    -419.0784
        XZ      12.8851     YZ      20.7408     ZZ    -431.2360

 Total job time:  97.30s(wall), 1073.87s(cpu)
        *  Thank you very much for using Q-Chem.  Have a nice day.  *
