 Q-Chem 4.4, Q-Chem, Inc., Pleasanton, CA (2016)
 Q-Chem 4.4.2 for Intel X86 Linux

User input:
--------------------------------------------------------------
$comment
SP
$end

$rem
MEM_STATIC 5000
MEM_TOTAL 20000
JOBTYPE SP
EXCHANGE B3LYP
BASIS 6-31g(d,p)
$end

$molecule
0 1
C          -8.279000    -15.364000     -6.257000
C          -7.573000    -14.737000     -5.218000
N          -9.618000    -15.737000     -6.101000
C          -8.198000    -14.393000     -3.978000
C         -10.179000    -15.354000     -4.880000
C          -9.548000    -14.703000     -3.794000
C         -10.243000    -14.298000     -2.543000
C          -9.680000    -14.324000     -1.264000
C         -11.621000    -13.991000     -2.548000
N         -10.384000    -14.140000     -0.128000
N         -12.310000    -13.764000     -3.659000
C         -12.354000    -13.678000     -1.409000
C         -11.707000    -13.806000     -0.168000
S         -13.766000    -13.265000     -3.220000
N         -13.614000    -13.233000     -1.613000
C         -12.466000    -13.804000      1.074000
S         -13.948000    -14.737000      1.326000
C         -12.006000    -13.493000      2.305000
C         -14.059000    -14.142000      3.026000
S         -10.397000    -12.747000      2.750000
C         -12.842000    -13.632000      3.376000
C         -15.045000    -14.619000      3.998000
C         -11.022000    -12.488000      4.376000
C         -12.284000    -12.969000      4.573000
N         -14.807000    -14.451000      5.306000
S         -16.553000    -15.202000      3.472000
C         -15.994000    -14.762000      5.982000
C         -16.945000    -15.287000      5.133000
C          -7.548000    -15.755000     -7.584000
H          -6.522000    -14.501000     -5.356000
H          -7.548000    -14.043000     -3.183000
H         -11.185000    -15.743000     -4.726000
H          -8.609000    -14.497000     -1.162000
H         -10.371000    -12.092000      5.144000
H         -12.755000    -12.827000      5.539000
H         -16.071000    -14.611000      7.050000
H         -17.961000    -15.541000      5.404000
H          -6.708000    -16.394000     -7.286000
C          -7.128000    -14.619000     -8.534000
H          -8.148000    -16.540000     -8.061000
H          -7.451000    -14.977000     -9.519000
H          -6.046000    -14.594000     -8.711000
C          -7.838000    -13.266000     -8.413000
H          -7.907000    -12.851000     -9.426000
C          -6.908000    -12.253000     -7.686000
H          -8.837000    -13.243000     -7.960000
H          -5.856000    -12.424000     -7.945000
H          -6.876000    -12.423000     -6.603000
C          -7.180000    -10.813000     -8.137000
H          -6.886000    -10.739000     -9.191000
C          -6.374000     -9.784000     -7.333000
H          -8.228000    -10.488000     -8.145000
H          -6.454000    -10.106000     -6.288000
H          -6.731000     -8.747000     -7.309000
H          -5.313000     -9.850000     -7.606000
C         -16.319000    -10.159000      3.068000
C         -16.873000     -8.997000      3.552000
N         -16.437000    -11.365000      3.667000
C         -17.557000     -8.994000      4.742000
C         -17.119000    -11.383000      4.857000
C         -17.761000    -10.275000      5.438000
C         -18.485000    -10.286000      6.798000
C         -19.452000     -9.283000      7.136000
C         -18.301000    -11.234000      7.838000
N         -20.054000     -9.218000      8.361000
N         -17.278000    -12.138000      7.853000
C         -18.977000    -11.188000      9.075000
C         -19.898000    -10.153000      9.305000
S         -17.328000    -12.861000      9.274000
N         -18.593000    -12.145000      9.985000
C         -20.533000    -10.036000     10.609000
S         -20.649000    -11.205000     11.905000
C         -21.033000     -8.860000     11.073000
C         -21.456000    -10.097000     13.021000
S         -21.293000     -7.419000     10.251000
C         -21.594000     -8.879000     12.409000
C         -21.917000    -10.392000     14.333000
C         -22.107000     -6.753000     11.655000
C         -22.228000     -7.658000     12.717000
N         -22.197000     -9.410000     15.145000
S         -22.007000    -12.025000     14.877000
C         -22.540000     -9.929000     16.413000
C         -22.276000    -11.308000     16.500000
C         -15.350000    -10.140000      1.891000
H         -16.646000     -8.074000      3.027000
H         -17.946000     -8.123000      5.262000
H         -17.215000    -12.322000      5.401000
H         -19.651000     -8.499000      6.407000
H         -22.415000     -5.719000     11.576000
H         -22.894000     -7.488000     13.555000
H         -22.715000     -9.289000     17.268000
H         -22.285000    -12.042000     17.296000
H         -15.191000     -9.100000      1.582000
C         -15.706000    -11.092000      0.737000
H         -14.455000    -10.593000      2.335000
H         -16.269000    -11.951000      1.123000
H         -14.731000    -11.470000      0.409000
C         -16.546000    -10.276000     -0.321000
H         -17.563000    -10.001000     -0.014000
C         -16.601000    -11.123000     -1.599000
H         -15.895000     -9.438000     -0.599000
H         -17.190000    -12.039000     -1.471000
H         -15.570000    -11.410000     -1.841000
C         -17.082000    -10.417000     -2.852000
H         -16.645000     -9.411000     -2.830000
C         -18.637000    -10.358000     -2.921000
H         -16.848000    -11.050000     -3.716000
H         -18.834000     -9.974000     -3.930000
H         -18.806000     -9.650000     -2.101000
H         -19.150000    -11.311000     -2.740000
$end

--------------------------------------------------------------

             Standard Nuclear Orientation (Angstroms)
    I     Atom           X                Y                Z
 ----------------------------------------------------------------
    1      C     -12.3074964363    -1.2418824222     0.5186695484
    2      C     -11.7414494328    -1.6418201791    -0.7022835959
    3      N     -11.5050884625    -0.9165299565     1.6171563332
    4      C     -10.3257207611    -1.6771466336    -0.9048307991
    5      C     -10.1336805984    -0.9466018827     1.3514739106
    6      C      -9.4839624452    -1.3143362598     0.1498101684
    7      C      -8.0107024440    -1.2759965291    -0.0504048013
    8      C      -7.2770042057    -2.1904326735    -0.8113117818
    9      C      -7.2067547653    -0.3636792122     0.6668840130
   10      N      -5.9293640980    -2.2516530710    -0.8205963369
   11      N      -7.7005098180     0.6779073314     1.3240555432
   12      C      -5.8194775870    -0.3188656188     0.5892130895
   13      C      -5.1798690833    -1.3305478626    -0.1473152531
   14      S      -6.4584505638     1.5543287681     1.8248871258
   15      N      -5.2206504346     0.7295395136     1.1970730404
   16      C      -3.7451486008    -1.5463832720    -0.0305196494
   17      S      -2.8777097339    -1.5993271364     1.5106045375
   18      C      -2.9386572201    -2.1433825618    -0.9343147041
   19      C      -1.3264794181    -1.9315493291     0.6505702811
   20      S      -3.3358736223    -2.6234858854    -2.6533673294
   21      C      -1.6248676435    -2.3402339210    -0.6173533646
   22      C      -0.0669602643    -2.2495170883     1.3266006097
   23      C      -1.6180163697    -2.9054886566    -2.9198685424
   24      C      -0.8421392630    -2.7161552655    -1.8130796816
   25      N       0.9010835654    -2.8756353678     0.6435200553
   26      S       0.2352353056    -1.6634899027     2.8937250385
   27      C       2.0560088054    -2.8313260846     1.4352588870
   28      C       1.7970382348    -2.3266959722     2.6918852011
   29      C     -13.8604828048    -1.2516160418     0.7092203183
   30      H     -12.3933556944    -1.9306448652    -1.5213925793
   31      H      -9.9743245601    -2.1315587255    -1.8251869044
   32      H      -9.5185976501    -0.7982323520     2.2384533067
   33      H      -7.8106894023    -2.8993377562    -1.4437733970
   34      H      -1.2817086483    -3.3142748439    -3.8633895912
   35      H       0.2312787683    -2.8424301022    -1.8966822878
   36      H       2.9978586625    -3.1970022648     1.0498321395
   37      H       2.5356643972    -2.1322205685     3.4579293967
   38      H     -14.1833894283    -2.2751194559     0.4836165199
   39      C     -14.6823516805    -0.1863622089    -0.0385509186
   40      H     -14.0505500577    -1.2884830144     1.7891597914
   41      H     -15.3704241858     0.1901343536     0.7279505920
   42      H     -15.4179779216    -0.6240336722    -0.7240986730
   43      C     -13.9702047652     1.0855651304    -0.5122571721
   44      H     -14.6935672945     1.9057547439    -0.4274594760
   45      C     -13.7192603130     1.0017787575    -2.0450992140
   46      H     -13.0462654161     1.3837850866    -0.0012386432
   47      H     -14.5378205027     0.4772104626    -2.5528524217
   48      H     -12.8778936616     0.3430510687    -2.2920668026
   49      C     -13.7020136042     2.3922832313    -2.6909977041
   50      H     -14.7146404414     2.8049720591    -2.6067194749
   51      C     -13.3172102768     2.3450107530    -4.1757821033
   52      H     -13.0789630227     3.1541042257    -2.2057866722
   53      H     -12.4704225723     1.6509446690    -4.2335043221
   54      H     -12.9305769831     3.2593532018    -4.6425653319
   55      H     -14.1348961951     1.8983531689    -4.7558620473
   56      C       0.6060208534     2.0486043045    -0.5315772364
   57      C       1.4982536350     2.9305403179    -1.0950712752
   58      N       0.9628940024     0.9505725075     0.1713656690
   59      C       2.8493241212     2.7029231081    -1.0128280564
   60      C       2.3094076228     0.7068191058     0.2664096019
   61      C       3.3205643836     1.5472162292    -0.2322723408
   62      C       4.8305433959     1.2478405179    -0.1671987988
   63      C       5.8040579923     2.2916879676    -0.3013398903
   64      C       5.4250483540    -0.0269718629     0.0214205231
   65      N       7.1489241170     2.0509704330    -0.3267204950
   66      N       4.7261464596    -1.1970030795    -0.0594070363
   67      C       6.8172923766    -0.2501683397     0.0546005478
   68      C       7.6823399619     0.8456328978    -0.0979718062
   69      S       5.7983554016    -2.3757058245     0.0147402732
   70      N       7.1939076261    -1.5689710353     0.1562145417
   71      C       9.1186065135     0.6209416274    -0.1610766845
   72      S      10.0512951141    -0.7862123945     0.2967906902
   73      C       9.9670805868     1.4955899118    -0.7638653089
   74      C      11.5913035104    -0.1203376970    -0.2594053425
   75      S       9.6740569919     3.0590220074    -1.3019937836
   76      C      11.3664847194     1.1205194594    -0.7949816943
   77      C      12.8706407408    -0.7327932285    -0.1640928419
   78      C      11.3810060747     3.2714668015    -1.6463192665
   79      C      12.1682689515     2.1694996940    -1.2893939843
   80      N      13.8512408601    -0.2750765293    -0.8927812728
   81      S      13.0967771534    -2.1261793278     0.8248775829
   82      C      14.9927983128    -1.0868242375    -0.7118220492
   83      C      14.6918866921    -2.2545209832     0.0126380992
   84      C      -0.8874477539     2.1434110006    -0.8234919663
   85      H       1.0954729388     3.7345712168    -1.7036639340
   86      H       3.6324276531     3.2753595033    -1.5021412811
   87      H       2.6531027552    -0.1833358000     0.7921195026
   88      H       5.4454977766     3.3064020786    -0.4671344763
   89      H      11.6558556748     4.2086342962    -2.1115458608
   90      H      13.2486616584     2.2223376075    -1.2211315959
   91      H      15.8945878133    -0.9487461743    -1.2940248878
   92      H      15.2278893327    -3.1614332718     0.2629664238
   93      H      -1.0566875040     2.9620049227    -1.5331566037
   94      C      -1.7935825062     2.1894218924     0.4181033013
   95      H      -1.0903953593     1.1563618210    -1.2569849726
   96      H      -1.3093999071     1.6661983389     1.2521598484
   97      H      -2.6604047731     1.5872710907     0.1229311995
   98      C      -2.0639529027     3.7055595175     0.7631345322
   99      H      -1.2081992595     4.2645440291     1.1623650645
  100      C      -3.2198150529     3.7363959385     1.7714746558
  101      H      -2.5115183465     4.1177939167    -0.1495959722
  102      H      -2.9420192061     3.3090059847     2.7423136202
  103      H      -4.0320071457     3.1305439590     1.3505454653
  104      C      -3.8653406002     5.0875070193     2.0114780209
  105      H      -3.9219174254     5.5836779936     1.0346963528
  106      C      -3.0573395778     5.9402607355     3.0343232914
  107      H      -4.8057811461     4.9293133247     2.5522990029
  108      H      -3.7121674234     6.8001500581     3.2244202288
  109      H      -2.1763167805     6.1411662313     2.4133073397
  110      H      -2.7840077596     5.4227639957     3.9625613220
 ----------------------------------------------------------------

    9   -5663.4826609232      8.61E-06 Convergence criterion met
 Total energy in the final basis set = -5663.4826609232

                    Orbital Energies (a.u.)
 --------------------------------------------------------------

 Alpha MOs
 -- Occupied --
-88.993 -88.989 -88.924 -88.923 -88.923 -88.919 -88.904 -88.898
-14.389 -14.385 -14.384 -14.378 -14.353 -14.351 -14.344 -14.340
-14.339 -14.331 -10.265 -10.263 -10.260 -10.260 -10.260 -10.256
-10.251 -10.250 -10.248 -10.241 -10.240 -10.237 -10.237 -10.236
-10.235 -10.235 -10.235 -10.232 -10.230 -10.227 -10.226 -10.226
-10.225 -10.223 -10.222 -10.222 -10.221 -10.221 -10.220 -10.218
-10.217 -10.216 -10.206 -10.203 -10.202 -10.196 -10.196 -10.192
-10.190 -10.184 -10.180 -10.177 -10.177 -10.176 -10.174 -10.172
-10.171 -10.169 -10.168 -10.164  -8.049  -8.045  -7.986  -7.985
 -7.982  -7.978  -7.966  -7.957  -6.014  -6.010  -6.008  -6.007
 -6.004  -6.003  -5.950  -5.949  -5.947  -5.946  -5.946  -5.944
 -5.943  -5.943  -5.942  -5.939  -5.939  -5.935  -5.930  -5.926
 -5.922  -5.922  -5.918  -5.913  -1.052  -1.045  -0.968  -0.961
 -0.958  -0.955  -0.933  -0.921  -0.914  -0.913  -0.907  -0.906
 -0.847  -0.835  -0.833  -0.828  -0.811  -0.811  -0.810  -0.805
 -0.803  -0.802  -0.799  -0.793  -0.785  -0.778  -0.769  -0.766
 -0.748  -0.747  -0.741  -0.732  -0.721  -0.718  -0.708  -0.708
 -0.694  -0.693  -0.673  -0.672  -0.657  -0.655  -0.645  -0.644
 -0.636  -0.635  -0.627  -0.625  -0.611  -0.610  -0.597  -0.595
 -0.593  -0.588  -0.582  -0.581  -0.574  -0.571  -0.569  -0.554
 -0.547  -0.547  -0.541  -0.539  -0.526  -0.525  -0.511  -0.507
 -0.505  -0.505  -0.501  -0.498  -0.486  -0.482  -0.476  -0.476
 -0.474  -0.470  -0.469  -0.467  -0.465  -0.459  -0.456  -0.448
 -0.445  -0.443  -0.438  -0.437  -0.434  -0.432  -0.430  -0.430
 -0.424  -0.424  -0.422  -0.420  -0.417  -0.416  -0.415  -0.414
 -0.413  -0.412  -0.408  -0.405  -0.398  -0.397  -0.394  -0.394
 -0.392  -0.391  -0.390  -0.388  -0.388  -0.386  -0.384  -0.379
 -0.378  -0.376  -0.375  -0.370  -0.363  -0.362  -0.359  -0.355
 -0.352  -0.351  -0.349  -0.347  -0.346  -0.343  -0.341  -0.337
 -0.336  -0.334  -0.333  -0.330  -0.326  -0.323  -0.321  -0.319
 -0.315  -0.314  -0.311  -0.305  -0.300  -0.299  -0.296  -0.295
 -0.290  -0.289  -0.288  -0.287  -0.286  -0.284  -0.282  -0.279
 -0.275  -0.271  -0.270  -0.265  -0.260  -0.255  -0.253  -0.246
 -0.242  -0.241  -0.233  -0.230  -0.194  -0.192

          Ground-State Mulliken Net Atomic Charges

     Atom                 Charge (a.u.)
  ----------------------------------------
      1 C                     0.249233
      2 C                    -0.103599
      3 N                    -0.485488
      4 C                    -0.095017
      5 C                     0.087200
      6 C                     0.062936
      7 C                     0.066373
      8 C                     0.060420
      9 C                     0.196139
     10 N                    -0.500416
     11 N                    -0.531026
     12 C                     0.189583
     13 C                     0.253689
     14 S                     0.612279
     15 N                    -0.549233
     16 C                    -0.201490
     17 S                     0.286900
     18 C                    -0.103691
     19 C                    -0.229101
     20 S                     0.238555
     21 C                     0.161304
     22 C                     0.090650
     23 C                    -0.293378
     24 C                    -0.047073
     25 N                    -0.442556
     26 S                     0.298278
     27 C                     0.126920
     28 C                    -0.310976
     29 C                    -0.238961
     30 H                     0.091701
     31 H                     0.102362
     32 H                     0.109086
     33 H                     0.109191
     34 H                     0.128630
     35 H                     0.124455
     36 H                     0.108630
     37 H                     0.121164
     38 H                     0.107328
     39 C                    -0.187021
     40 H                     0.122775
     41 H                     0.103372
     42 H                     0.098508
     43 C                    -0.182553
     44 H                     0.094832
     45 C                    -0.170526
     46 H                     0.117537
     47 H                     0.087166
     48 H                     0.089728
     49 C                    -0.181891
     50 H                     0.093100
     51 C                    -0.323179
     52 H                     0.093285
     53 H                     0.100161
     54 H                     0.100114
     55 H                     0.100677
     56 C                     0.283480
     57 C                    -0.113144
     58 N                    -0.502869
     59 C                    -0.079552
     60 C                     0.083305
     61 C                     0.039486
     62 C                     0.044204
     63 C                     0.054814
     64 C                     0.190432
     65 N                    -0.551483
     66 N                    -0.531654
     67 C                     0.176880
     68 C                     0.333382
     69 S                     0.614128
     70 N                    -0.553821
     71 C                    -0.201210
     72 S                     0.323996
     73 C                    -0.128443
     74 C                    -0.255031
     75 S                     0.292947
     76 C                     0.169298
     77 C                     0.095378
     78 C                    -0.322025
     79 C                    -0.049961
     80 N                    -0.443580
     81 S                     0.251083
     82 C                     0.108174
     83 C                    -0.298364
     84 C                    -0.235623
     85 H                     0.091103
     86 H                     0.099906
     87 H                     0.120207
     88 H                     0.114646
     89 H                     0.128696
     90 H                     0.122030
     91 H                     0.122125
     92 H                     0.134130
     93 H                     0.085363
     94 C                    -0.178277
     95 H                     0.128355
     96 H                     0.121147
     97 H                     0.118195
     98 C                    -0.182239
     99 H                     0.099308
    100 C                    -0.174777
    101 H                     0.089059
    102 H                     0.084095
    103 H                     0.097710
    104 C                    -0.187761
    105 H                     0.088712
    106 C                    -0.310983
    107 H                     0.084953
    108 H                     0.099670
    109 H                     0.100884
    110 H                     0.102427
  ----------------------------------------
  Sum of atomic charges =     0.000000

                    Cartesian Multipole Moments
 -----------------------------------------------------------------
    Charge (ESU x 10^10)
                 0.0000
    Dipole Moment (Debye)
         X       1.7012      Y       0.1659      Z      -0.8831
       Tot       1.9240
    Quadrupole Moments (Debye-Ang)
        XX    -386.2558     XY     -12.3929     YY    -438.1205
        XZ      19.2686     YZ      -4.1843     ZZ    -441.2021

 Total job time:  93.22s(wall), 1030.18s(cpu)
        *  Thank you very much for using Q-Chem.  Have a nice day.  *
