 Q-Chem 4.4, Q-Chem, Inc., Pleasanton, CA (2016)
 Q-Chem 4.4.2 for Intel X86 Linux

User input:
--------------------------------------------------------------
$comment
SP
$end

$rem
MEM_STATIC 5000
MEM_TOTAL 20000
JOBTYPE SP
EXCHANGE B3LYP
BASIS 6-31g(d,p)
$end

$molecule
0 1
C          26.323000     -8.325000     -1.066000
C          25.285000     -9.179000     -0.712000
N          26.501000     -7.177000     -0.430000
C          24.460000     -8.814000      0.343000
C          25.593000     -6.795000      0.450000
C          24.566000     -7.517000      0.880000
C          23.481000     -6.987000      1.774000
C          23.739000     -6.308000      2.976000
C          22.140000     -7.111000      1.386000
N          22.756000     -5.887000      3.862000
N          21.783000     -7.475000      0.137000
C          21.162000     -6.663000      2.291000
C          21.418000     -6.067000      3.556000
S          20.140000     -7.439000      0.249000
N          19.927000     -6.812000      1.719000
C          20.421000     -5.946000      4.659000
S          18.660000     -6.145000      4.582000
C          20.681000     -5.638000      5.981000
C          18.328000     -5.872000      6.381000
S          22.169000     -5.149000      6.662000
C          19.591000     -5.584000      6.876000
C          17.066000     -5.826000      7.089000
C          21.352000     -4.814000      8.217000
C          19.972000     -4.993000      8.155000
N          16.060000     -6.091000      6.310000
S          16.680000     -5.629000      8.786000
C          14.915000     -6.289000      7.047000
C          15.052000     -6.186000      8.399000
C          27.192000     -8.696000     -2.302000
H          25.226000    -10.210000     -1.048000
H          23.668000     -9.485000      0.664000
H          25.700000     -5.806000      0.894000
H          24.758000     -6.277000      3.359000
H          21.909000     -4.216000      8.927000
H          19.299000     -4.880000      8.997000
H          14.067000     -6.667000      6.492000
H          14.376000     -6.062000      9.235000
H          26.624000     -8.932000     -3.210000
C          28.068000     -9.954000     -1.969000
H          27.759000     -7.796000     -2.571000
H          27.453000    -10.861000     -1.927000
H          28.485000     -9.816000     -0.964000
C          29.306000    -10.251000     -2.936000
H          29.790000    -11.209000     -2.710000
C          30.404000     -9.249000     -2.573000
H          28.949000    -10.158000     -3.969000
H          30.658000     -9.542000     -1.547000
H          29.963000     -8.247000     -2.500000
C          31.617000     -9.293000     -3.439000
H          32.098000    -10.274000     -3.528000
C          32.624000     -8.278000     -2.976000
H          31.360000     -9.100000     -4.488000
H          32.235000     -7.254000     -2.923000
H          33.487000     -8.183000     -3.647000
H          33.003000     -8.631000     -2.009000
C          18.154000      0.410000     13.138000
C          19.023000      1.088000     12.276000
N          18.265000     -0.938000     13.330000
C          20.114000      0.421000     11.754000
C          19.360000     -1.579000     12.809000
C          20.311000     -0.905000     11.989000
C          21.611000     -1.559000     11.583000
C          22.188000     -1.302000     10.281000
C          22.353000     -2.458000     12.405000
N          23.320000     -1.964000      9.903000
N          21.993000     -2.890000     13.624000
C          23.486000     -3.061000     11.920000
C          24.035000     -2.812000     10.659000
S          23.045000     -3.983000     14.152000
N          24.049000     -3.908000     12.853000
C          25.255000     -3.479000     10.107000
S          26.335000     -4.479000     11.043000
C          25.952000     -3.080000      8.947000
C          27.622000     -4.460000      9.885000
S          25.455000     -1.989000      7.595000
C          27.249000     -3.631000      8.855000
C          28.845000     -5.257000      9.985000
C          27.021000     -2.387000      6.874000
C          27.846000     -3.251000      7.618000
N          28.833000     -5.972000     11.077000
S          30.260000     -5.218000      9.008000
C          29.915000     -6.825000     11.076000
C          30.828000     -6.538000     10.051000
C          16.816000      1.142000     13.449000
H          18.999000      2.168000     12.171000
H          20.911000      1.034000     11.344000
H          19.587000     -2.642000     12.880000
H          21.692000     -0.653000      9.562000
H          27.353000     -1.866000      5.985000
H          28.867000     -3.530000      7.383000
H          29.992000     -7.452000     11.954000
H          31.765000     -7.019000      9.803000
H          16.113000      1.168000     12.607000
C          16.994000      2.463000     14.269000
H          16.327000      0.370000     14.057000
H          17.450000      3.211000     13.608000
H          17.663000      2.367000     15.134000
C          15.724000      3.114000     14.816000
H          15.207000      2.351000     15.411000
C          14.784000      3.529000     13.637000
H          15.899000      3.918000     15.542000
H          14.564000      2.640000     13.034000
H          15.298000      4.205000     12.942000
C          13.551000      4.266000     14.143000
H          13.059000      3.802000     15.007000
C          12.547000      4.346000     13.072000
H          13.811000      5.294000     14.424000
H          12.940000      4.766000     12.138000
H          11.647000      4.877000     13.406000
H          12.179000      3.351000     12.791000
$end

--------------------------------------------------------------

             Standard Nuclear Orientation (Angstroms)
    I     Atom           X                Y                Z
 ----------------------------------------------------------------
    1      C      -9.5148297502    -1.8099941248     0.8366523891
    2      C      -9.1074923943    -2.5966755272    -0.2344613535
    3      N      -8.6260830389    -1.1769599594     1.5873061232
    4      C      -7.7506938379    -2.6774113881    -0.5163379191
    5      C      -7.3430707354    -1.4183630113     1.3863285233
    6      C      -6.8265072323    -2.1386402135     0.3987679432
    7      C      -5.3723892538    -2.5019185820     0.2942178039
    8      C      -4.3359691771    -1.5590119784     0.3899756309
    9      C      -5.0015255107    -3.8459795509     0.1522276777
   10      N      -2.9912944648    -1.8550102404     0.2089757777
   11      N      -5.8748527716    -4.8570439354     0.3392953275
   12      C      -3.6334832375    -4.1242517410    -0.0128114903
   13      C      -2.5890308531    -3.1598548677    -0.0187180638
   14      S      -4.9137417011    -6.1665883409     0.0660775387
   15      N      -3.4615706193    -5.4810382935    -0.0775131350
   16      C      -1.2194278577    -3.3895563049    -0.5634050239
   17      S      -0.4394284961    -4.9282763259    -0.9764337069
   18      C      -0.2685308253    -2.4276985097    -0.8476099072
   19      C       1.1482831974    -4.2112571480    -1.5978909272
   20      S      -0.3394035672    -0.7583133806    -0.4938354806
   21      C       0.9703536241    -2.8546325738    -1.3719510426
   22      C       2.3401366307    -4.8828361846    -2.0716957299
   23      C       1.3572972312    -0.5692662152    -1.0260070413
   24      C       1.9567660021    -1.7788695625    -1.3692007692
   25      N       2.1901353737    -6.1732452258    -2.1097237372
   26      S       3.8483504284    -4.2749951566    -2.7224141215
   27      C       3.2291452176    -6.7622717043    -2.7930277340
   28      C       4.1720917879    -5.9130969490    -3.2900548968
   29      C     -11.0270879190    -1.7898311835     1.2015724994
   30      H      -9.7903883219    -2.9553275691    -0.9988956966
   31      H      -7.4123683796    -3.2529329248    -1.3735758354
   32      H      -6.6274113256    -0.9672235171     2.0726307641
   33      H      -4.5837072971    -0.4985978438     0.4025727345
   34      H       1.8470514483     0.3508446505    -0.7336206502
   35      H       2.9654157796    -1.8779624628    -1.7532166849
   36      H       3.1044609169    -7.8152479254    -3.0068218008
   37      H       5.1830764908    -6.0165141802    -3.6621608048
   38      H     -11.4865472451    -2.7791861647     1.3149649545
   39      C     -11.8272904721    -1.0381819948     0.0810688756
   40      H     -11.1046592546    -1.3458280963     2.2019194124
   41      H     -11.8901606526    -1.6443662572    -0.8306470782
   42      H     -11.2639588372    -0.1356727961    -0.1855631095
   43      C     -13.3071622117    -0.5565562203     0.4470719462
   44      H     -13.8399536508    -0.1519850728    -0.4221526905
   45      C     -13.1648945786     0.6816543107     1.3347495911
   46      H     -13.8160271173    -1.3947171803     0.9387321063
   47      H     -12.6986901578     1.4047376163     0.6544224850
   48      H     -12.4205048134     0.4781779830     2.1146824482
   49      C     -14.4431421576     1.2281794193     1.8738733546
   50      H     -15.2103858328     1.4592108315     1.1258060920
   51      C     -14.1754506537     2.4453104998     2.7138591828
   52      H     -14.9701511815     0.4777044385     2.4761588285
   53      H     -13.4626321198     2.2774146211     3.5301965589
   54      H     -15.0661516509     2.8207734567     3.2331994389
   55      H     -13.8447938561     3.2338623606     2.0266975969
   56      C       8.9610195644     0.0417623038     0.8564572556
   57      C       8.1981633847     0.3937937456     1.9753912631
   58      N       8.4210455090     0.0671197875    -0.3981638097
   59      C       6.9442461966     0.9433733158     1.7928865195
   60      C       7.1776788586     0.6238556502    -0.5576365401
   61      C       6.3999066648     1.0663680848     0.5515659481
   62      C       5.1250301195     1.8542657355     0.3606233229
   63      C       4.0075360253     1.6742039877     1.2622699924
   64      C       4.9101945190     2.8001280156    -0.6851487421
   65      N       2.8374155005     2.3355579149     1.0256670756
   66      N       5.7737513107     3.0952800811    -1.6696993633
   67      C       3.6900528934     3.4126447958    -0.8215327857
   68      C       2.6129632654     3.2300449284     0.0502803948
   69      S       5.0962961244     4.1189817336    -2.7056657707
   70      N       3.6727219885     4.2746306784    -1.8992836743
   71      C       1.2697035267     3.8714806970    -0.0987378224
   72      S       0.9122587366     5.1480905057    -1.2323147358
   73      C       0.2559217677     3.8854563000     0.8824151869
   74      C      -0.5849980821     5.6085807853    -0.4948428914
   75      S       0.0506644900     2.8857780213     2.3736250276
   76      C      -0.7453254865     4.8514282448     0.6401836077
   77      C      -1.5228474119     6.5841419608    -1.0513112441
   78      C      -1.4720730216     3.7602445497     2.5908340540
   79      C      -1.7703348344     4.7382905465     1.6238165158
   80      N      -1.0632373114     7.0668250398    -2.1736341036
   81      S      -2.9487082196     7.2507950902    -0.3579357600
   82      C      -2.0249124036     7.8635145025    -2.7557001796
   83      C      -3.1071368191     8.1160442670    -1.9003744917
   84      C      10.2237077610    -0.8187836609     1.1528828966
   85      H       8.6315714968     0.4538349933     2.9686452371
   86      H       6.5129525317     1.4682600062     2.6399743170
   87      H       6.6209387367     0.7175569437    -1.4891941091
   88      H       4.0518708221     0.9575041671     2.0799213808
   89      H      -2.0438239828     3.6290370471     3.5007084573
   90      H      -2.6038262695     5.4314377387     1.6424175258
   91      H      -1.7248928783     8.3174899189    -3.6904924591
   92      H      -3.9984980448     8.7065468044    -2.0665548719
   93      H      10.0028263626    -1.8527670699     1.4460359587
   94      C      11.3235988286    -0.0657294892     1.9728060966
   95      H      10.5616671689    -1.0004854421     0.1245167647
   96      H      10.9540444566     0.0570635202     2.9988238562
   97      H      11.5466869741     0.9432748988     1.6024767508
   98      C      12.6822384081    -0.7536606909     2.1022632505
   99      H      13.0297568855    -0.9645799898     1.0833290243
  100      C      12.5234605221    -2.1166550998     2.8525310855
  101      H      13.4790178741    -0.1184649822     2.5094313902
  102      H      11.7993645345    -2.7345438541     2.3082623211
  103      H      12.0659924262    -1.9725874220     3.8395287782
  104      C      13.8727782811    -2.7846891328     3.0818041015
  105      H      14.5369883612    -2.7934301909     2.2085317709
  106      C      13.6711431462    -4.1857875590     3.4789482471
  107      H      14.4091791432    -2.2876970708     3.8994947554
  108      H      12.9887097432    -4.3027390592     4.3297196600
  109      H      14.6275546566    -4.6931449976     3.6560991784
  110      H      13.2067167556    -4.7689280737     2.6735506634
 ----------------------------------------------------------------

    9   -5663.4873027457      9.17E-06 Convergence criterion met
 Total energy in the final basis set = -5663.4873027457

                    Orbital Energies (a.u.)
 --------------------------------------------------------------

 Alpha MOs
 -- Occupied --
-88.994 -88.984 -88.937 -88.927 -88.918 -88.917 -88.915 -88.901
-14.384 -14.381 -14.380 -14.375 -14.354 -14.350 -14.341 -14.338
-14.338 -14.323 -10.271 -10.270 -10.269 -10.268 -10.256 -10.255
-10.252 -10.251 -10.250 -10.245 -10.244 -10.241 -10.241 -10.238
-10.236 -10.235 -10.234 -10.233 -10.232 -10.232 -10.232 -10.230
-10.229 -10.228 -10.225 -10.222 -10.219 -10.213 -10.212 -10.209
-10.205 -10.205 -10.204 -10.204 -10.203 -10.201 -10.195 -10.192
-10.191 -10.189 -10.186 -10.186 -10.179 -10.179 -10.178 -10.174
-10.171 -10.169 -10.167 -10.166  -8.049  -8.040  -7.998  -7.988
 -7.977  -7.974  -7.973  -7.961  -6.014  -6.009  -6.007  -6.005
 -5.999  -5.998  -5.962  -5.959  -5.955  -5.953  -5.949  -5.945
 -5.942  -5.939  -5.938  -5.937  -5.935  -5.935  -5.934  -5.931
 -5.930  -5.926  -5.922  -5.918  -1.038  -1.036  -0.977  -0.976
 -0.955  -0.951  -0.940  -0.932  -0.908  -0.906  -0.901  -0.892
 -0.840  -0.833  -0.833  -0.831  -0.812  -0.812  -0.809  -0.807
 -0.807  -0.800  -0.796  -0.796  -0.788  -0.786  -0.769  -0.767
 -0.753  -0.750  -0.743  -0.741  -0.716  -0.711  -0.709  -0.707
 -0.693  -0.692  -0.676  -0.669  -0.656  -0.649  -0.645  -0.645
 -0.634  -0.633  -0.627  -0.624  -0.611  -0.611  -0.602  -0.602
 -0.590  -0.590  -0.584  -0.582  -0.577  -0.575  -0.570  -0.567
 -0.544  -0.543  -0.541  -0.535  -0.525  -0.524  -0.522  -0.516
 -0.508  -0.507  -0.501  -0.501  -0.493  -0.488  -0.476  -0.474
 -0.472  -0.471  -0.470  -0.465  -0.464  -0.460  -0.451  -0.449
 -0.448  -0.444  -0.440  -0.437  -0.434  -0.433  -0.431  -0.429
 -0.426  -0.425  -0.424  -0.423  -0.419  -0.418  -0.413  -0.412
 -0.410  -0.408  -0.406  -0.405  -0.404  -0.398  -0.397  -0.397
 -0.395  -0.393  -0.391  -0.391  -0.387  -0.386  -0.386  -0.379
 -0.378  -0.372  -0.372  -0.369  -0.366  -0.362  -0.361  -0.358
 -0.351  -0.350  -0.350  -0.345  -0.341  -0.341  -0.339  -0.338
 -0.336  -0.332  -0.331  -0.329  -0.327  -0.324  -0.321  -0.319
 -0.316  -0.312  -0.309  -0.304  -0.302  -0.302  -0.298  -0.298
 -0.297  -0.295  -0.293  -0.290  -0.289  -0.284  -0.283  -0.282
 -0.270  -0.269  -0.267  -0.265  -0.255  -0.253  -0.248  -0.248
 -0.243  -0.242  -0.233  -0.231  -0.196  -0.194

          Ground-State Mulliken Net Atomic Charges

     Atom                 Charge (a.u.)
  ----------------------------------------
      1 C                     0.265512
      2 C                    -0.107187
      3 N                    -0.481440
      4 C                    -0.060472
      5 C                     0.064946
      6 C                     0.070004
      7 C                    -0.004396
      8 C                     0.061529
      9 C                     0.225738
     10 N                    -0.528072
     11 N                    -0.540645
     12 C                     0.177697
     13 C                     0.316616
     14 S                     0.600247
     15 N                    -0.523445
     16 C                    -0.217147
     17 S                     0.329529
     18 C                    -0.119519
     19 C                    -0.225830
     20 S                     0.303489
     21 C                     0.134829
     22 C                     0.060169
     23 C                    -0.310209
     24 C                    -0.085270
     25 N                    -0.413877
     26 S                     0.268841
     27 C                     0.118049
     28 C                    -0.313240
     29 C                    -0.225664
     30 H                     0.091001
     31 H                     0.097622
     32 H                     0.090099
     33 H                     0.123723
     34 H                     0.134338
     35 H                     0.109644
     36 H                     0.117520
     37 H                     0.144187
     38 H                     0.110079
     39 C                    -0.194304
     40 H                     0.116956
     41 H                     0.088882
     42 H                     0.101828
     43 C                    -0.182505
     44 H                     0.093217
     45 C                    -0.159681
     46 H                     0.088909
     47 H                     0.089676
     48 H                     0.098047
     49 C                    -0.173200
     50 H                     0.088731
     51 C                    -0.312579
     52 H                     0.088149
     53 H                     0.103794
     54 H                     0.091771
     55 H                     0.101129
     56 C                     0.251523
     57 C                    -0.095993
     58 N                    -0.500438
     59 C                    -0.080323
     60 C                     0.114915
     61 C                     0.041591
     62 C                    -0.017795
     63 C                     0.067867
     64 C                     0.265734
     65 N                    -0.546415
     66 N                    -0.562398
     67 C                     0.177660
     68 C                     0.335581
     69 S                     0.621196
     70 N                    -0.568081
     71 C                    -0.241357
     72 S                     0.377484
     73 C                    -0.132836
     74 C                    -0.240125
     75 S                     0.295109
     76 C                     0.152560
     77 C                     0.084803
     78 C                    -0.306995
     79 C                    -0.084740
     80 N                    -0.420607
     81 S                     0.288628
     82 C                     0.123490
     83 C                    -0.324018
     84 C                    -0.239942
     85 H                     0.092104
     86 H                     0.099457
     87 H                     0.113435
     88 H                     0.128548
     89 H                     0.126885
     90 H                     0.101491
     91 H                     0.121434
     92 H                     0.134593
     93 H                     0.121346
     94 C                    -0.183003
     95 H                     0.116886
     96 H                     0.092482
     97 H                     0.098752
     98 C                    -0.184468
     99 H                     0.095475
    100 C                    -0.169235
    101 H                     0.091844
    102 H                     0.093851
    103 H                     0.089673
    104 C                    -0.167121
    105 H                     0.093013
    106 C                    -0.313915
    107 H                     0.095046
    108 H                     0.096998
    109 H                     0.092452
    110 H                     0.098083
  ----------------------------------------
  Sum of atomic charges =     0.000000

                    Cartesian Multipole Moments
 -----------------------------------------------------------------
    Charge (ESU x 10^10)
                 0.0000
    Dipole Moment (Debye)
         X       0.0208      Y       1.6389      Z      -0.7376
       Tot       1.7973
    Quadrupole Moments (Debye-Ang)
        XX    -403.8940     XY     -14.6189     YY    -420.7007
        XZ      18.2124     YZ       3.8618     ZZ    -434.0415

 Total job time:  84.92s(wall), 914.64s(cpu)
        *  Thank you very much for using Q-Chem.  Have a nice day.  *
