 Q-Chem 4.4, Q-Chem, Inc., Pleasanton, CA (2016)
 Q-Chem 4.4.2 for Intel X86 Linux

User input:
--------------------------------------------------------------
$comment
SP
$end

$rem
MEM_STATIC 5000
MEM_TOTAL 20000
JOBTYPE SP
EXCHANGE B3LYP
BASIS 6-31g(d,p)
$end

$molecule
0 1
C          15.500000     -2.874000     11.798000
C          16.911000     -3.201000     11.805000
N          14.865000     -2.380000     10.739000
C          17.543000     -2.993000     10.618000
C          15.477000     -2.216000      9.583000
C          16.846000     -2.517000      9.474000
C          17.666000     -2.277000      8.303000
C          19.063000     -1.924000      8.437000
C          17.265000     -2.429000      7.009000
N          19.859000     -1.709000      7.375000
N          16.073000     -2.963000      6.583000
C          18.089000     -2.281000      5.886000
C          19.455000     -1.901000      6.105000
S          15.964000     -2.868000      4.965000
N          17.564000     -2.499000      4.666000
C          20.367000     -1.602000      4.979000
S          20.107000     -2.113000      3.410000
C          21.564000     -0.991000      5.193000
C          21.556000     -1.175000      2.931000
S          22.236000     -0.277000      6.673000
C          22.170000     -0.677000      4.030000
C          22.045000     -0.985000      1.573000
C          23.532000      0.371000      5.665000
C          23.333000      0.077000      4.320000
N          21.432000     -1.669000      0.612000
S          22.896000      0.467000      1.055000
C          21.758000     -1.135000     -0.623000
C          22.651000     -0.072000     -0.560000
C          14.693000     -2.965000     13.078000
H          17.469000     -3.461000     12.700000
H          18.572000     -3.322000     10.510000
H          14.974000     -1.774000      8.723000
H          19.674000     -1.895000      9.338000
H          24.327000      0.950000      6.118000
H          24.015000      0.451000      3.565000
H          21.314000     -1.573000     -1.507000
H          23.130000      0.415000     -1.399000
H          15.315000     -2.554000     13.883000
C          14.019000     -4.390000     13.342000
H          13.894000     -2.213000     13.085000
H          13.730000     -4.576000     14.384000
H          14.773000     -5.166000     13.162000
C          12.780000     -4.700000     12.441000
H          12.008000     -3.925000     12.517000
C          12.077000     -6.066000     12.925000
H          13.017000     -4.901000     11.389000
H          11.104000     -6.243000     12.452000
H          11.732000     -5.996000     13.964000
C          13.035000     -7.262000     12.830000
H          13.652000     -7.238000     11.923000
C          12.313000     -8.631000     12.974000
H          13.787000     -7.260000     13.629000
H          11.876000     -8.671000     11.969000
H          11.508000     -8.690000     13.717000
H          12.981000     -9.483000     13.144000
C          18.154000      0.410000     13.138000
C          19.023000      1.088000     12.276000
N          18.265000     -0.938000     13.330000
C          20.114000      0.421000     11.754000
C          19.360000     -1.579000     12.809000
C          20.311000     -0.905000     11.989000
C          21.611000     -1.559000     11.583000
C          22.188000     -1.302000     10.281000
C          22.353000     -2.458000     12.405000
N          23.320000     -1.964000      9.903000
N          21.993000     -2.890000     13.624000
C          23.486000     -3.061000     11.920000
C          24.035000     -2.812000     10.659000
S          23.045000     -3.983000     14.152000
N          24.049000     -3.908000     12.853000
C          25.255000     -3.479000     10.107000
S          26.335000     -4.479000     11.043000
C          25.952000     -3.080000      8.947000
C          27.622000     -4.460000      9.885000
S          25.455000     -1.989000      7.595000
C          27.249000     -3.631000      8.855000
C          28.845000     -5.257000      9.985000
C          27.021000     -2.387000      6.874000
C          27.846000     -3.251000      7.618000
N          28.833000     -5.972000     11.077000
S          30.260000     -5.218000      9.008000
C          29.915000     -6.825000     11.076000
C          30.828000     -6.538000     10.051000
C          16.816000      1.142000     13.449000
H          18.999000      2.168000     12.171000
H          20.911000      1.034000     11.344000
H          19.587000     -2.642000     12.880000
H          21.692000     -0.653000      9.562000
H          27.353000     -1.866000      5.985000
H          28.867000     -3.530000      7.383000
H          29.992000     -7.452000     11.954000
H          31.765000     -7.019000      9.803000
H          16.113000      1.168000     12.607000
C          16.994000      2.463000     14.269000
H          16.327000      0.370000     14.057000
H          17.450000      3.211000     13.608000
H          17.663000      2.367000     15.134000
C          15.724000      3.114000     14.816000
H          15.207000      2.351000     15.411000
C          14.784000      3.529000     13.637000
H          15.899000      3.918000     15.542000
H          14.564000      2.640000     13.034000
H          15.298000      4.205000     12.942000
C          13.551000      4.266000     14.143000
H          13.059000      3.802000     15.007000
C          12.547000      4.346000     13.072000
H          13.811000      5.294000     14.424000
H          12.940000      4.766000     12.138000
H          11.647000      4.877000     13.406000
H          12.179000      3.351000     12.791000
$end

--------------------------------------------------------------

             Standard Nuclear Orientation (Angstroms)
    I     Atom           X                Y                Z
 ----------------------------------------------------------------
    1      C       5.6834328125     0.6951046518    -1.3539559106
    2      C       4.3724858913     1.3105021287    -1.3293975052
    3      N       5.8820390272    -0.6162303779    -1.2554774287
    4      C       3.3392954226     0.4306112978    -1.2295647400
    5      C       4.8738358870    -1.4634181782    -1.1956839593
    6      C       3.5560885850    -0.9735664400    -1.1805075743
    7      C       2.3645483826    -1.7796690268    -1.0025425056
    8      C       1.2094957096    -1.2508397707    -0.3094574167
    9      C       2.1689764354    -3.0293777014    -1.5107952401
   10      N       0.0814045536    -1.9620159905    -0.1382156918
   11      N       2.9943258523    -3.6903238364    -2.3879751229
   12      C       0.9814641795    -3.7652485791    -1.4092191936
   13      C      -0.1068522727    -3.1801484945    -0.6801497930
   14      S       2.4345252296    -5.1907748768    -2.6601881616
   15      N       0.9193943975    -4.9759088689    -1.9940251484
   16      C      -1.3546993277    -3.9295729706    -0.4150805906
   17      S      -1.8390428612    -5.2689643207    -1.2879632589
   18      C      -2.2621497836    -3.4765879856     0.4922585266
   19      C      -3.2169816932    -5.4310895830    -0.1548763361
   20      S      -2.1585332960    -2.1233084888     1.6366702650
   21      C      -3.2478552909    -4.3749583209     0.6915482491
   22      C      -4.1947082786    -6.5096334171    -0.1415001610
   23      C      -3.6566435091    -2.7273331313     2.3482909651
   24      C      -4.0741342904    -3.9078616909     1.7423901750
   25      N      -4.1323364298    -7.3900795646    -1.1355174314
   26      S      -4.9819367699    -7.0715815772     1.3300006266
   27      C      -4.8664832501    -8.5173734255    -0.8085709565
   28      C      -5.5025819667    -8.4382559863     0.4245169778
   29      C       6.9283096869     1.5600295358    -1.3647499987
   30      H       4.2064237299     2.3816362838    -1.2580954687
   31      H       2.3243150297     0.8050177620    -1.3211103653
   32      H       5.0291537110    -2.5353479103    -1.0739628721
   33      H       1.0367351969    -0.2374468991     0.0499193953
   34      H      -4.1074037768    -2.2004616065     3.1799739440
   35      H      -4.9511610900    -4.4340827029     2.1014729500
   36      H      -4.8915449058    -9.3379770619    -1.5131400343
   37      H      -6.2166076540    -9.1453564265     0.8254001095
   38      H       6.7567849955     2.3834274670    -0.6601755689
   39      C       7.4545209830     1.9539585003    -2.8216366253
   40      H       7.7507646146     1.0595787020    -0.8383747951
   41      H       8.1217619538     2.8245234794    -2.8496920021
   42      H       6.5976765468     2.2915287424    -3.4174184174
   43      C       8.1551773539     0.7910968587    -3.5961399838
   44      H       8.9849893642     0.3550895452    -3.0271982908
   45      C       8.8065422884     1.3525058685    -4.9581108520
   46      H       7.4790117273     0.0030490389    -3.9497706940
   47      H       9.4628509011     0.6281618665    -5.4544693632
   48      H       9.5570827150     2.1269140320    -4.7570460257
   49      C       7.7452830712     1.9597776777    -5.8866337779
   50      H       6.8171145252     1.3749587930    -5.9067340867
   51      C       8.2724371264     2.2138657977    -7.3266785096
   52      H       7.3997129600     2.9420588208    -5.5407811300
   53      H       8.2439838957     1.1750914950    -7.6770102976
   54      H       9.2972156847     2.5946287737    -7.4183489109
   55      H       7.6279425585     2.8517586904    -7.9421030861
   56      C       4.2873489972     1.9159678034     2.6690299390
   57      C       3.2381562198     1.2766082974     3.3385842219
   58      N       4.0872877077     2.5111716881     1.4557711801
   59      C       1.9507140305     1.4033065541     2.8547514397
   60      C       2.8001251775     2.6328020835     0.9977693594
   61      C       1.6939858020     2.0617768651     1.6916446233
   62      C       0.2682014095     2.3639584067     1.2936783158
   63      C      -0.7566054633     1.3480938072     1.4030948995
   64      C      -0.1789509769     3.6199670842     0.7867799577
   65      N      -2.0206094164     1.6159366646     0.9636563823
   66      N       0.5927712318     4.6915585349     0.5452813129
   67      C      -1.4803365623     3.7765473918     0.3813158218
   68      C      -2.4640101605     2.7890515230     0.4850518389
   69      S      -0.2811727675     5.8557789578    -0.1336514474
   70      N      -1.7134068078     5.0506159883    -0.0954382786
   71      C      -3.8800184466     2.9363384733     0.0254649723
   72      S      -4.5976722844     4.4457443058    -0.4736973277
   73      C      -4.9350715846     2.0496535153     0.3275620783
   74      C      -6.2337044154     3.8849532958    -0.3924181204
   75      S      -4.9025467747     0.3588962490     0.9643320549
   76      C      -6.2142839300     2.5995520380     0.0919747482
   77      C      -7.3995179013     4.6480708995    -0.8390370172
   78      C      -6.6642233593     0.4062352505     0.8066753706
   79      C      -7.2137582403     1.6135029900     0.3363850138
   80      N      -7.0314474465     5.8151121831    -1.2933186287
   81      S      -9.0730989424     4.2887374665    -0.6708675113
   82      C      -8.1196514863     6.4531652410    -1.8474253540
   83      C      -9.3281383272     5.7970122213    -1.5724966902
   84      C       5.7183680312     1.4934756439     3.1122837034
   85      H       3.3602249574     0.8667404596     4.3361355132
   86      H       1.1450087902     1.1566198059     3.5396329725
   87      H       2.4834803133     3.0819230325     0.0572559872
   88      H      -0.5215545059     0.3445992598     1.7522764293
   89      H      -7.2621023406    -0.4086113110     1.1946854284
   90      H      -8.2675070067     1.8582039658     0.2639835653
   91      H      -7.9086655862     7.4380496218    -2.2416710978
   92      H     -10.3385837183     6.0571014058    -1.8591807108
   93      H       6.0057369953     0.4830273845     2.7956413284
   94      C       6.0740887394     1.9082443764     4.5787606640
   95      H       6.3076615099     2.0735559601     2.3904741560
   96      H       5.4893376945     1.2759874395     5.2589653253
   97      H       5.8175287476     2.9466053296     4.8257130917
   98      C       7.5309042291     1.7428094397     5.0103043011
   99      H       8.1412166183     2.2985669818     4.2877149695
  100      C       7.9438200697     0.2361718965     4.9367528073
  101      H       7.7814425012     2.2206723601     5.9658118120
  102      H       7.7734395895    -0.1249248035     3.9155233202
  103      H       7.2831641860    -0.3844630601     5.5552534572
  104      C       9.3617986406     0.0234098135     5.4501367459
  105      H      10.1009552951     0.7413454783     5.0732125874
  106      C       9.8324312810    -1.3153867278     5.0659678522
  107      H       9.3812444936     0.0742009818     6.5457585401
  108      H       9.1475215199    -2.1189879080     5.3631694040
  109      H      10.8518765513    -1.5000161471     5.4267452328
  110      H       9.9146119324    -1.4150803037     3.9761433106
 ----------------------------------------------------------------

    9   -5663.4785779949      8.67E-06 Convergence criterion met
 Total energy in the final basis set = -5663.4785779949

                    Orbital Energies (a.u.)
 --------------------------------------------------------------

 Alpha MOs
 -- Occupied --
-88.993 -88.984 -88.937 -88.925 -88.922 -88.917 -88.913 -88.906
-14.379 -14.379 -14.375 -14.372 -14.347 -14.344 -14.342 -14.340
-14.339 -14.319 -10.269 -10.266 -10.263 -10.255 -10.254 -10.249
-10.248 -10.247 -10.247 -10.240 -10.239 -10.237 -10.236 -10.235
-10.235 -10.235 -10.232 -10.231 -10.231 -10.228 -10.227 -10.227
-10.226 -10.226 -10.225 -10.219 -10.219 -10.215 -10.214 -10.205
-10.204 -10.204 -10.203 -10.201 -10.198 -10.196 -10.196 -10.193
-10.191 -10.186 -10.182 -10.179 -10.177 -10.177 -10.176 -10.173
-10.173 -10.172 -10.167 -10.164  -8.048  -8.039  -7.998  -7.987
 -7.981  -7.976  -7.971  -7.965  -6.013  -6.008  -6.006  -6.004
 -5.998  -5.996  -5.962  -5.958  -5.954  -5.951  -5.947  -5.946
 -5.944  -5.942  -5.940  -5.938  -5.936  -5.936  -5.933  -5.932
 -5.930  -5.928  -5.926  -5.921  -1.037  -1.025  -0.977  -0.962
 -0.953  -0.952  -0.940  -0.934  -0.922  -0.907  -0.892  -0.891
 -0.847  -0.838  -0.833  -0.833  -0.812  -0.811  -0.809  -0.806
 -0.803  -0.796  -0.794  -0.791  -0.787  -0.777  -0.768  -0.759
 -0.753  -0.743  -0.742  -0.735  -0.727  -0.715  -0.709  -0.704
 -0.693  -0.686  -0.674  -0.671  -0.656  -0.648  -0.645  -0.641
 -0.634  -0.628  -0.628  -0.616  -0.611  -0.606  -0.602  -0.597
 -0.596  -0.590  -0.585  -0.583  -0.576  -0.573  -0.570  -0.557
 -0.543  -0.540  -0.540  -0.537  -0.525  -0.521  -0.519  -0.513
 -0.510  -0.504  -0.499  -0.491  -0.488  -0.480  -0.475  -0.472
 -0.471  -0.470  -0.466  -0.464  -0.463  -0.452  -0.451  -0.450
 -0.447  -0.440  -0.437  -0.434  -0.433  -0.433  -0.431  -0.430
 -0.426  -0.424  -0.423  -0.420  -0.417  -0.414  -0.412  -0.409
 -0.407  -0.406  -0.405  -0.405  -0.399  -0.399  -0.397  -0.397
 -0.393  -0.392  -0.391  -0.390  -0.386  -0.384  -0.383  -0.378
 -0.378  -0.375  -0.371  -0.369  -0.369  -0.362  -0.359  -0.359
 -0.358  -0.350  -0.348  -0.346  -0.342  -0.340  -0.338  -0.337
 -0.335  -0.333  -0.331  -0.328  -0.327  -0.322  -0.318  -0.315
 -0.315  -0.302  -0.301  -0.301  -0.300  -0.297  -0.297  -0.295
 -0.295  -0.294  -0.292  -0.291  -0.286  -0.285  -0.282  -0.281
 -0.272  -0.265  -0.264  -0.259  -0.255  -0.250  -0.249  -0.243
 -0.242  -0.237  -0.231  -0.224  -0.195  -0.189

          Ground-State Mulliken Net Atomic Charges

     Atom                 Charge (a.u.)
  ----------------------------------------
      1 C                     0.264603
      2 C                    -0.099304
      3 N                    -0.476790
      4 C                    -0.073756
      5 C                     0.105567
      6 C                     0.040431
      7 C                     0.006344
      8 C                     0.062843
      9 C                     0.234443
     10 N                    -0.550629
     11 N                    -0.547406
     12 C                     0.201458
     13 C                     0.322000
     14 S                     0.599060
     15 N                    -0.590901
     16 C                    -0.205028
     17 S                     0.370914
     18 C                    -0.143604
     19 C                    -0.241154
     20 S                     0.314426
     21 C                     0.204690
     22 C                     0.041037
     23 C                    -0.318942
     24 C                    -0.095633
     25 N                    -0.428143
     26 S                     0.278258
     27 C                     0.114906
     28 C                    -0.312471
     29 C                    -0.241159
     30 H                     0.109238
     31 H                     0.094944
     32 H                     0.110964
     33 H                     0.110241
     34 H                     0.132335
     35 H                     0.100602
     36 H                     0.115843
     37 H                     0.132910
     38 H                     0.111034
     39 C                    -0.179677
     40 H                     0.109656
     41 H                     0.095842
     42 H                     0.098941
     43 C                    -0.171290
     44 H                     0.093739
     45 C                    -0.189701
     46 H                     0.109158
     47 H                     0.086601
     48 H                     0.088381
     49 C                    -0.175975
     50 H                     0.094113
     51 C                    -0.324497
     52 H                     0.093135
     53 H                     0.105887
     54 H                     0.101988
     55 H                     0.097632
     56 C                     0.254934
     57 C                    -0.094881
     58 N                    -0.507389
     59 C                    -0.078340
     60 C                     0.117856
     61 C                     0.033765
     62 C                    -0.023606
     63 C                     0.074594
     64 C                     0.267478
     65 N                    -0.550681
     66 N                    -0.565072
     67 C                     0.171149
     68 C                     0.345607
     69 S                     0.617312
     70 N                    -0.568157
     71 C                    -0.235581
     72 S                     0.375240
     73 C                    -0.144289
     74 C                    -0.241693
     75 S                     0.314808
     76 C                     0.151955
     77 C                     0.083828
     78 C                    -0.317535
     79 C                    -0.083741
     80 N                    -0.421147
     81 S                     0.287387
     82 C                     0.123583
     83 C                    -0.324413
     84 C                    -0.243250
     85 H                     0.093865
     86 H                     0.101353
     87 H                     0.111299
     88 H                     0.141499
     89 H                     0.123384
     90 H                     0.099968
     91 H                     0.121027
     92 H                     0.133962
     93 H                     0.129415
     94 C                    -0.183963
     95 H                     0.115857
     96 H                     0.092858
     97 H                     0.097949
     98 C                    -0.184324
     99 H                     0.095343
    100 C                    -0.170092
    101 H                     0.091567
    102 H                     0.096996
    103 H                     0.089269
    104 C                    -0.167316
    105 H                     0.092980
    106 C                    -0.314163
    107 H                     0.094230
    108 H                     0.096749
    109 H                     0.091864
    110 H                     0.100599
  ----------------------------------------
  Sum of atomic charges =     0.000000

                    Cartesian Multipole Moments
 -----------------------------------------------------------------
    Charge (ESU x 10^10)
                 0.0000
    Dipole Moment (Debye)
         X      -3.9878      Y       0.5159      Z       3.0484
       Tot       5.0460
    Quadrupole Moments (Debye-Ang)
        XX    -404.3965     XY       2.3903     YY    -416.4556
        XZ       2.9606     YZ     -13.8160     ZZ    -438.0603

 Total job time:  94.28s(wall), 1035.86s(cpu)
        *  Thank you very much for using Q-Chem.  Have a nice day.  *
