 Q-Chem 4.4, Q-Chem, Inc., Pleasanton, CA (2016)
 Q-Chem 4.4.2 for Intel X86 Linux

User input:
--------------------------------------------------------------
$comment
SP
$end

$rem
MEM_STATIC 5000
MEM_TOTAL 20000
JOBTYPE SP
EXCHANGE B3LYP
BASIS 6-31g(d,p)
$end

$molecule
0 1
C          17.382000      7.107000     12.730000
C          18.041000      7.918000     11.798000
N          17.926000      5.954000     13.170000
C          19.334000      7.507000     11.366000
C          19.139000      5.534000     12.663000
C          20.006000      6.321000     11.813000
C          21.370000      5.841000     11.304000
C          21.705000      4.468000     11.179000
C          22.394000      6.718000     10.738000
N          22.838000      4.017000     10.656000
N          22.282000      8.075000     10.709000
C          23.525000      6.254000     10.110000
C          23.774000      4.845000     10.215000
S          23.648000      8.558000     10.046000
N          24.324000      7.192000      9.559000
C          24.968000      4.206000      9.636000
S          26.359000      5.082000      8.921000
C          25.362000      2.877000      9.718000
C          27.293000      3.591000      8.546000
S          24.539000      1.532000     10.533000
C          26.657000      2.627000      9.222000
C          28.516000      3.535000      7.874000
C          26.009000      0.615000     10.155000
C          26.970000      1.263000      9.412000
N          28.926000      4.734000      7.493000
S          29.597000      2.186000      7.467000
C          30.071000      4.641000      6.715000
C          30.569000      3.407000      6.654000
C          16.061000      7.525000     13.439000
H          17.582000      8.827000     11.421000
H          19.766000      8.138000     10.595000
H          19.463000      4.512000     12.850000
H          21.093000      3.682000     11.619000
H          26.128000     -0.416000     10.462000
H          27.923000      0.842000      9.112000
H          30.541000      5.514000      6.282000
H          31.549000      3.064000      6.350000
H          15.320000      7.899000     12.722000
C          16.305000      8.491000     14.660000
H          15.544000      6.656000     13.865000
H          16.663000      9.466000     14.307000
H          17.136000      8.046000     15.221000
C          15.070000      8.758000     15.542000
H          14.257000      8.953000     14.833000
C          15.232000      9.982000     16.453000
H          14.888000      7.922000     16.228000
H          15.776000     10.793000     15.954000
H          15.746000      9.702000     17.381000
C          13.876000     10.472000     16.984000
H          13.285000     10.727000     16.095000
C          14.262000     11.728000     17.796000
H          13.164000      9.832000     17.520000
H          14.699000     12.484000     17.131000
H          14.984000     11.630000     18.616000
H          13.403000     12.259000     18.223000
C          18.154000      0.410000     13.138000
C          19.023000      1.088000     12.276000
N          18.265000     -0.938000     13.330000
C          20.114000      0.421000     11.754000
C          19.360000     -1.579000     12.809000
C          20.311000     -0.905000     11.989000
C          21.611000     -1.559000     11.583000
C          22.188000     -1.302000     10.281000
C          22.353000     -2.458000     12.405000
N          23.320000     -1.964000      9.903000
N          21.993000     -2.890000     13.624000
C          23.486000     -3.061000     11.920000
C          24.035000     -2.812000     10.659000
S          23.045000     -3.983000     14.152000
N          24.049000     -3.908000     12.853000
C          25.255000     -3.479000     10.107000
S          26.335000     -4.479000     11.043000
C          25.952000     -3.080000      8.947000
C          27.622000     -4.460000      9.885000
S          25.455000     -1.989000      7.595000
C          27.249000     -3.631000      8.855000
C          28.845000     -5.257000      9.985000
C          27.021000     -2.387000      6.874000
C          27.846000     -3.251000      7.618000
N          28.833000     -5.972000     11.077000
S          30.260000     -5.218000      9.008000
C          29.915000     -6.825000     11.076000
C          30.828000     -6.538000     10.051000
C          16.816000      1.142000     13.449000
H          18.999000      2.168000     12.171000
H          20.911000      1.034000     11.344000
H          19.587000     -2.642000     12.880000
H          21.692000     -0.653000      9.562000
H          27.353000     -1.866000      5.985000
H          28.867000     -3.530000      7.383000
H          29.992000     -7.452000     11.954000
H          31.765000     -7.019000      9.803000
H          16.113000      1.168000     12.607000
C          16.994000      2.463000     14.269000
H          16.327000      0.370000     14.057000
H          17.450000      3.211000     13.608000
H          17.663000      2.367000     15.134000
C          15.724000      3.114000     14.816000
H          15.207000      2.351000     15.411000
C          14.784000      3.529000     13.637000
H          15.899000      3.918000     15.542000
H          14.564000      2.640000     13.034000
H          15.298000      4.205000     12.942000
C          13.551000      4.266000     14.143000
H          13.059000      3.802000     15.007000
C          12.547000      4.346000     13.072000
H          13.811000      5.294000     14.424000
H          12.940000      4.766000     12.138000
H          11.647000      4.877000     13.406000
H          12.179000      3.351000     12.791000
$end

--------------------------------------------------------------

             Standard Nuclear Orientation (Angstroms)
    I     Atom           X                Y                Z
 ----------------------------------------------------------------
    1      C       7.6838997829     0.7333425369     0.5246254527
    2      C       7.4285478772     2.0492621554     0.9293191171
    3      N       6.7070008735    -0.0537736933     0.0295885238
    4      C       6.1062479317     2.5470848101     0.7529970863
    5      C       5.4146881078     0.4253331106    -0.0425390447
    6      C       5.0181309748     1.7962418731     0.1960182968
    7      C       3.5784903606     2.3057186828     0.0624320608
    8      C       2.4475811255     1.4580727900     0.1870103185
    9      C       3.2089065953     3.7172819736    -0.0322142094
   10      N       1.1893207888     1.8789273806     0.1702371694
   11      N       4.1219185223     4.7236193892    -0.1245626100
   12      C       1.9125628029     4.1670691513     0.0454083819
   13      C       0.8907239510     3.1605191244     0.0136372627
   14      S       3.2310712479     6.0391646686    -0.2451683805
   15      N       1.7485197501     5.5067838594     0.0353895107
   16      C      -0.5450251562     3.4877536373     0.0408415781
   17      S      -1.2262057120     5.1403108916    -0.0952817902
   18      C      -1.6294278506     2.6250591291    -0.0487685879
   19      C      -2.9398008960     4.5984084814    -0.0178523170
   20      S      -1.6208814954     0.8571910637    -0.2073512577
   21      C      -2.8726558446     3.2730632426    -0.1902458787
   22      C      -4.0634054874     5.4275553949     0.0039907141
   23      C      -3.3688078484     1.0314760757    -0.4503557826
   24      C      -3.8875775273     2.3012549707    -0.3319768234
   25      N      -3.7325642916     6.7086960302    -0.0052166607
   26      S      -5.8053155140     5.0819994443     0.0227402292
   27      C      -4.8542694075     7.5102482066     0.1505066247
   28      C      -5.9981765946     6.8281020186     0.1253287442
   29      C       9.1139083409     0.1212652306     0.4709328549
   30      H       8.2115415423     2.6661009634     1.3600415398
   31      H       5.9524049229     3.5477198533     1.1457919934
   32      H       4.6026978760    -0.2747214352    -0.2296873717
   33      H       2.5367905914     0.3727242379     0.1874483279
   34      H      -4.0016398514     0.1753842804    -0.6452955017
   35      H      -4.9297823088     2.5696461533    -0.4632222672
   36      H      -4.7844603047     8.5887838652     0.1995527469
   37      H      -7.0128642047     7.1720804401    -0.0248474838
   38      H       9.6682352346     0.3108903552     1.3981922615
   39      C       9.9012422361     0.5276146840    -0.8323393573
   40      H       9.0785816495    -0.9751925394     0.4495229631
   41      H      10.1394798646     1.5982636140    -0.8135856638
   42      H       9.1908618417     0.3877779364    -1.6564221076
   43      C      11.2272006701    -0.2240784874    -1.0586789415
   44      H      11.7253095939    -0.2125266965    -0.0822420228
   45      C      12.1408728823     0.4590447048    -2.0847816620
   46      H      11.0471893628    -1.2251930429    -1.4685344967
   47      H      12.0987980701     1.5519797936    -2.0049029926
   48      H      11.8727448812     0.1474423916    -3.1020286199
   49      C      13.5874984292    -0.0470336538    -1.9754371513
   50      H      13.9077092902     0.1915179480    -0.9530941864
   51      C      14.3287670887     0.8115264314    -3.0238985738
   52      H      13.8684772500    -1.1062160813    -2.0304234008
   53      H      14.2804961079     1.8711651258    -2.7418245592
   54      H      13.9900471516     0.7869832646    -4.0669491177
   55      H      15.4089706958     0.6273698268    -3.0615484382
   56      C       3.0983692929    -4.2235144518     0.6460170455
   57      C       2.6292552603    -2.9315043882     0.9078013461
   58      N       2.2405311175    -5.2855010022     0.5951522102
   59      C       1.2679941670    -2.6996107938     0.9369148621
   60      C       0.8927701247    -5.0318211302     0.6182569499
   61      C       0.3742715585    -3.7175861889     0.8054006271
   62      C      -1.0958103628    -3.4144803365     0.6335344384
   63      C      -1.7457148751    -2.4282583420     1.4696996747
   64      C      -1.9445307007    -4.0505171420    -0.3201845822
   65      N      -3.0904524188    -2.2267031960     1.3530443639
   66      N      -1.5853554242    -5.0313629059    -1.1634637224
   67      C      -3.2855360726    -3.7619517109    -0.3511294434
   68      C      -3.9077845285    -2.8116687142     0.4632980152
   69      S      -2.8673211652    -5.5494596433    -1.9809455934
   70      N      -3.9388833040    -4.4902128250    -1.3245975450
   71      C      -5.3716453373    -2.5033202718     0.4582215535
   72      S      -6.4939949157    -3.0907162872    -0.7408586544
   73      C      -5.9781006881    -1.4006736868     1.0961811261
   74      C      -7.7633115971    -1.9859638823    -0.3333647450
   75      S      -5.3471597137    -0.2903503227     2.3745744590
   76      C      -7.2880640645    -1.1389179007     0.6381921952
   77      C      -9.1143664110    -2.0253414029    -0.8937559482
   78      C      -6.9461556050     0.4652918878     2.3214897207
   79      C      -7.8568129508    -0.0720562895     1.3927178786
   80      N      -9.2210573323    -3.0017175255    -1.7534882988
   81      S     -10.4099039880    -0.9095509289    -0.7070235066
   82      C     -10.5347670241    -3.1170759523    -2.1524786230
   83      C     -11.3268424745    -2.0438106654    -1.7197187531
   84      C       4.6158478843    -4.4491151241     0.9089848409
   85      H       3.2840690952    -2.0665348685     0.8754351369
   86      H       0.9463959079    -1.6665304524     0.8452766173
   87      H       0.0909903206    -5.7683363537     0.5831361406
   88      H      -1.1994463421    -1.9012425143     2.2494579753
   89      H      -7.1309451718     1.3752381245     2.8781194560
   90      H      -8.8409243050     0.3158944875     1.1549658289
   91      H     -10.7157022701    -3.8988311075    -2.8777808455
   92      H     -12.3790057876    -1.8498045604    -1.8814221662
   93      H       4.8895924504    -4.4624141179     1.9714047434
   94      C       5.5507002360    -3.6480669421    -0.0571921050
   95      H       4.6748505864    -5.5256417079     0.7031251907
   96      H       5.4848872295    -2.5865762213     0.2134868523
   97      H       5.2651694783    -3.7149241610    -1.1150221001
   98      C       7.0394332763    -3.9921127728    -0.0223151638
   99      H       7.1204293140    -5.0708227620    -0.2048183173
  100      C       7.6250239003    -3.6949437868     1.3970650583
  101      H       7.6280809337    -3.5574516961    -0.8400441432
  102      H       7.0532659157    -4.2650419968     2.1389618423
  103      H       7.4623383998    -2.6470642368     1.6793395287
  104      C       9.1278785107    -3.9380605953     1.4396823961
  105      H       9.4565727521    -4.8749484696     0.9727164372
  106      C       9.5848140130    -3.9739506003     2.8366000222
  107      H       9.6601506230    -3.1173525782     0.9432251983
  108      H       9.2797161201    -3.0943875721     3.4166768752
  109      H      10.6668826494    -4.1433300023     2.8994894832
  110      H       9.1513465142    -4.8235187904     3.3795086866
 ----------------------------------------------------------------

    9   -5663.4868260017      9.10E-06 Convergence criterion met
 Total energy in the final basis set = -5663.4868260017

                    Orbital Energies (a.u.)
 --------------------------------------------------------------

 Alpha MOs
 -- Occupied --
-88.992 -88.992 -88.938 -88.931 -88.919 -88.915 -88.913 -88.911
-14.391 -14.386 -14.378 -14.373 -14.351 -14.348 -14.341 -14.341
-14.338 -14.334 -10.270 -10.268 -10.266 -10.266 -10.261 -10.257
-10.253 -10.248 -10.247 -10.245 -10.242 -10.240 -10.239 -10.239
-10.238 -10.236 -10.236 -10.236 -10.233 -10.232 -10.231 -10.230
-10.229 -10.229 -10.229 -10.228 -10.228 -10.227 -10.222 -10.217
-10.208 -10.206 -10.205 -10.204 -10.201 -10.199 -10.195 -10.191
-10.190 -10.183 -10.183 -10.181 -10.179 -10.178 -10.173 -10.171
-10.168 -10.167 -10.167 -10.161  -8.049  -8.047  -7.999  -7.991
 -7.978  -7.974  -7.972  -7.969  -6.014  -6.012  -6.008  -6.007
 -6.007  -6.005  -5.963  -5.960  -5.956  -5.955  -5.952  -5.948
 -5.942  -5.938  -5.938  -5.936  -5.935  -5.935  -5.934  -5.933
 -5.930  -5.930  -5.928  -5.926  -1.058  -1.035  -0.978  -0.971
 -0.969  -0.953  -0.932  -0.927  -0.917  -0.909  -0.909  -0.890
 -0.841  -0.838  -0.830  -0.830  -0.814  -0.813  -0.809  -0.806
 -0.804  -0.800  -0.797  -0.795  -0.783  -0.781  -0.770  -0.765
 -0.753  -0.749  -0.744  -0.742  -0.717  -0.711  -0.710  -0.706
 -0.696  -0.690  -0.679  -0.673  -0.654  -0.649  -0.647  -0.642
 -0.638  -0.632  -0.627  -0.624  -0.612  -0.611  -0.601  -0.600
 -0.592  -0.588  -0.584  -0.578  -0.577  -0.575  -0.574  -0.561
 -0.551  -0.544  -0.544  -0.540  -0.527  -0.525  -0.523  -0.521
 -0.507  -0.503  -0.500  -0.497  -0.489  -0.484  -0.484  -0.479
 -0.474  -0.471  -0.468  -0.468  -0.464  -0.458  -0.453  -0.448
 -0.443  -0.441  -0.440  -0.438  -0.436  -0.436  -0.431  -0.427
 -0.425  -0.424  -0.423  -0.419  -0.418  -0.416  -0.415  -0.413
 -0.409  -0.407  -0.402  -0.400  -0.399  -0.399  -0.398  -0.395
 -0.394  -0.393  -0.392  -0.389  -0.388  -0.385  -0.383  -0.382
 -0.380  -0.379  -0.372  -0.366  -0.364  -0.363  -0.362  -0.361
 -0.355  -0.354  -0.352  -0.350  -0.347  -0.346  -0.339  -0.336
 -0.334  -0.332  -0.330  -0.328  -0.328  -0.325  -0.324  -0.318
 -0.313  -0.311  -0.308  -0.305  -0.303  -0.302  -0.299  -0.298
 -0.297  -0.294  -0.292  -0.288  -0.286  -0.286  -0.285  -0.280
 -0.276  -0.272  -0.266  -0.264  -0.258  -0.256  -0.252  -0.244
 -0.241  -0.241  -0.232  -0.230  -0.197  -0.194

          Ground-State Mulliken Net Atomic Charges

     Atom                 Charge (a.u.)
  ----------------------------------------
      1 C                     0.266763
      2 C                    -0.107456
      3 N                    -0.491824
      4 C                    -0.086647
      5 C                     0.069596
      6 C                     0.050474
      7 C                     0.048741
      8 C                     0.056878
      9 C                     0.186303
     10 N                    -0.518418
     11 N                    -0.530759
     12 C                     0.206415
     13 C                     0.310635
     14 S                     0.613976
     15 N                    -0.536820
     16 C                    -0.236570
     17 S                     0.332487
     18 C                    -0.116953
     19 C                    -0.213178
     20 S                     0.291063
     21 C                     0.138115
     22 C                     0.065563
     23 C                    -0.295554
     24 C                    -0.079332
     25 N                    -0.438476
     26 S                     0.265107
     27 C                     0.135883
     28 C                    -0.307070
     29 C                    -0.244931
     30 H                     0.097155
     31 H                     0.111822
     32 H                     0.097146
     33 H                     0.106207
     34 H                     0.130665
     35 H                     0.105232
     36 H                     0.119929
     37 H                     0.132339
     38 H                     0.095014
     39 C                    -0.178968
     40 H                     0.131584
     41 H                     0.088918
     42 H                     0.108931
     43 C                    -0.177456
     44 H                     0.090531
     45 C                    -0.171136
     46 H                     0.101718
     47 H                     0.094682
     48 H                     0.098867
     49 C                    -0.178391
     50 H                     0.092625
     51 C                    -0.325125
     52 H                     0.099806
     53 H                     0.102034
     54 H                     0.105236
     55 H                     0.090489
     56 C                     0.253000
     57 C                    -0.097107
     58 N                    -0.500887
     59 C                    -0.090915
     60 C                     0.116988
     61 C                     0.038161
     62 C                    -0.015738
     63 C                     0.076583
     64 C                     0.267370
     65 N                    -0.544607
     66 N                    -0.559893
     67 C                     0.172972
     68 C                     0.334078
     69 S                     0.620630
     70 N                    -0.571066
     71 C                    -0.235535
     72 S                     0.375433
     73 C                    -0.144737
     74 C                    -0.241497
     75 S                     0.298686
     76 C                     0.151265
     77 C                     0.084828
     78 C                    -0.309444
     79 C                    -0.087179
     80 N                    -0.420556
     81 S                     0.284602
     82 C                     0.123622
     83 C                    -0.324469
     84 C                    -0.240915
     85 H                     0.083865
     86 H                     0.114227
     87 H                     0.114518
     88 H                     0.131446
     89 H                     0.126437
     90 H                     0.099778
     91 H                     0.121749
     92 H                     0.134193
     93 H                     0.119841
     94 C                    -0.196846
     95 H                     0.114651
     96 H                     0.119591
     97 H                     0.092733
     98 C                    -0.176272
     99 H                     0.088134
    100 C                    -0.172418
    101 H                     0.094657
    102 H                     0.087614
    103 H                     0.103505
    104 C                    -0.172714
    105 H                     0.090129
    106 C                    -0.313430
    107 H                     0.094926
    108 H                     0.095275
    109 H                     0.088954
    110 H                     0.097912
  ----------------------------------------
  Sum of atomic charges =     0.000000

                    Cartesian Multipole Moments
 -----------------------------------------------------------------
    Charge (ESU x 10^10)
                 0.0000
    Dipole Moment (Debye)
         X      -3.0581      Y       3.9901      Z      -0.4630
       Tot       5.0485
    Quadrupole Moments (Debye-Ang)
        XX    -361.1292     XY      -0.2391     YY    -442.5361
        XZ      12.4014     YZ       8.6888     ZZ    -448.4883

 Total job time:  91.64s(wall), 1014.35s(cpu)
        *  Thank you very much for using Q-Chem.  Have a nice day.  *
