 Q-Chem 4.4, Q-Chem, Inc., Pleasanton, CA (2016)
 Q-Chem 4.4.2 for Intel X86 Linux

User input:
--------------------------------------------------------------
$comment
SP
$end

$rem
MEM_STATIC 5000
MEM_TOTAL 20000
JOBTYPE SP
EXCHANGE B3LYP
BASIS 6-31g(d,p)
$end

$molecule
0 1
C          21.539000     11.757000      3.698000
C          20.646000     12.050000      4.710000
N          22.817000     11.580000      3.900000
C          21.153000     12.061000      6.010000
C          23.362000     11.577000      5.105000
C          22.558000     11.795000      6.237000
C          23.125000     11.904000      7.619000
C          22.321000     12.506000      8.640000
C          24.349000     11.319000      7.977000
N          22.700000     12.545000      9.908000
N          25.114000     10.564000      7.200000
C          24.766000     11.432000      9.300000
C          23.953000     12.098000     10.218000
S          26.396000     10.214000      8.158000
N          25.925000     10.766000      9.586000
C          24.308000     12.084000     11.636000
S          25.961000     12.049000     12.237000
C          23.501000     12.531000     12.632000
C          25.496000     12.769000     13.763000
S          21.784000     12.836000     12.663000
C          24.132000     12.980000     13.834000
C          26.463000     12.930000     14.781000
C          21.899000     13.402000     14.346000
C          23.204000     13.379000     14.853000
N          27.570000     12.256000     14.580000
S          26.170000     13.507000     16.390000
C          28.428000     12.370000     15.701000
C          27.822000     13.012000     16.758000
C          21.120000     11.819000      2.284000
H          19.575000     12.127000      4.546000
H          20.517000     12.313000      6.853000
H          24.441000     11.460000      5.186000
H          21.467000     13.128000      8.374000
H          21.104000     13.935000     14.851000
H          23.517000     13.743000     15.825000
H          29.401000     11.899000     15.674000
H          28.120000     12.915000     17.794000
H          21.842000     11.277000      1.661000
C          21.103000     13.274000      1.690000
H          20.147000     11.341000      2.113000
H          21.041000     13.191000      0.597000
H          22.055000     13.803000      1.819000
C          19.912000     14.160000      2.137000
H          19.900000     14.202000      3.233000
C          18.505000     13.635000      1.698000
H          20.113000     15.149000      1.706000
H          17.999000     12.787000      2.176000
H          18.561000     13.307000      0.652000
C          17.554000     14.849000      1.735000
H          17.330000     15.260000      2.727000
C          16.292000     14.576000      0.997000
H          18.060000     15.706000      1.275000
H          15.801000     13.666000      1.362000
H          16.546000     14.370000     -0.050000
H          15.609000     15.434000      1.028000
C          21.650000      5.201000     15.228000
C          22.469000      6.309000     15.143000
N          22.002000      4.069000     14.600000
C          23.712000      6.197000     14.469000
C          23.197000      3.865000     14.029000
C          23.996000      4.985000     13.838000
C          25.313000      4.732000     13.213000
C          25.997000      3.471000     13.338000
C          26.138000      5.767000     12.634000
N          27.213000      3.195000     12.900000
N          25.789000      7.056000     12.372000
C          27.476000      5.510000     12.257000
C          27.987000      4.225000     12.437000
S          27.174000      7.763000     11.833000
N          28.150000      6.520000     11.810000
C          29.351000      3.828000     12.040000
S          30.155000      4.476000     10.641000
C          30.042000      2.708000     12.425000
C          31.202000      3.046000     10.460000
S          29.654000      1.634000     13.735000
C          31.019000      2.238000     11.573000
C          32.347000      2.951000      9.554000
C          31.180000      0.763000     13.363000
C          31.761000      1.184000     12.192000
N          32.896000      1.768000      9.307000
S          32.870000      4.260000      8.702000
C          33.911000      2.025000      8.398000
C          34.101000      3.313000      8.099000
C          20.318000      5.095000     15.948000
H          22.341000      7.212000     15.732000
H          24.456000      6.982000     14.368000
H          23.403000      2.861000     13.661000
H          25.491000      2.596000     13.746000
H          31.500000     -0.049000     14.002000
H          32.692000      0.761000     11.831000
H          34.528000      1.195000      8.080000
H          34.919000      3.654000      7.478000
H          19.961000      6.068000     16.310000
C          20.569000      4.267000     17.240000
H          19.525000      4.620000     15.357000
H          21.320000      4.873000     17.762000
H          21.176000      3.375000     17.043000
C          19.213000      3.898000     17.971000
H          18.526000      4.729000     18.171000
C          19.556000      3.140000     19.352000
H          18.765000      3.079000     17.395000
H          20.235000      3.798000     19.908000
H          20.043000      2.170000     19.195000
C          18.277000      2.864000     20.204000
H          17.741000      3.794000     20.434000
C          18.591000      2.116000     21.545000
H          17.669000      2.135000     19.654000
H          18.999000      1.127000     21.301000
H          17.638000      2.075000     22.085000
H          19.238000      2.653000     22.250000
$end

--------------------------------------------------------------

             Standard Nuclear Orientation (Angstroms)
    I     Atom           X                Y                Z
 ----------------------------------------------------------------
    1      C       8.3129833777    -2.5242770872    -2.4092415046
    2      C       8.3594087984    -1.1484111013    -2.2984287385
    3      N       7.4754542408    -3.2686338452    -1.7384994068
    4      C       7.3910613239    -0.5513450228    -1.4903537007
    5      C       6.5335136837    -2.7678542285    -0.9568173983
    6      C       6.4192839765    -1.3755175880    -0.8028230688
    7      C       5.4423411673    -0.7469823124     0.1425975545
    8      C       5.6503274584     0.6157114275     0.5312728353
    9      C       4.2664016921    -1.3956981853     0.5486752157
   10      N       4.7794673536     1.2801771316     1.2749622906
   11      N       3.8352979897    -2.5757347279     0.1236547975
   12      C       3.3964203848    -0.7075136005     1.3892235499
   13      C       3.7102213718     0.5952726737     1.7784867824
   14      S       2.4508347600    -2.7991903799     0.9704824880
   15      N       2.2372549603    -1.3748395912     1.6714371940
   16      C       2.7299397338     1.3774526701     2.5296108490
   17      S       1.5852123722     0.6857682190     3.6724174327
   18      C       2.8488196840     2.7036951862     2.7942282067
   19      C       1.4267541544     2.1990085659     4.5374582675
   20      S       3.8481544798     3.9311473543     2.0615849505
   21      C       2.1732326068     3.2035016895     3.9510953384
   22      C       0.5021918971     2.2999370850     5.6015691952
   23      C       3.2228401232     5.1440831356     3.2034425362
   24      C       2.3038128754     4.6221351560     4.1218989719
   25      N      -0.3619770920     1.3148536414     5.6558699080
   26      S       0.1189108663     3.7376387343     6.4925061284
   27      C      -1.3251436834     1.5579841176     6.6653245572
   28      C      -1.2040443305     2.8176363283     7.2087031128
   29      C       9.3536433393    -3.2538234461    -3.1599677892
   30      H       9.0101149265    -0.5301979857    -2.9101967325
   31      H       7.3841435505     0.5226170277    -1.3315876511
   32      H       5.8990261557    -3.4567526240    -0.4024388477
   33      H       6.6244029511     1.0847743861     0.3966887522
   34      H       3.6722416784     6.1186397391     3.3427862434
   35      H       1.8512775439     5.1602528316     4.9470596478
   36      H      -2.0874808472     0.8163107935     6.8604187113
   37      H      -1.9970942796     3.3514609242     7.7162581138
   38      H       8.9994759823    -4.2653251612    -3.3936486907
   39      C      10.6807918375    -3.4799449372    -2.3489832424
   40      H       9.5871968792    -2.7802643598    -4.1220740909
   41      H      11.2731013458    -4.2387876926    -2.8769123275
   42      H      10.5153895311    -3.9628946179    -1.3783197153
   43      C      11.5884756674    -2.2321490712    -2.1993117960
   44      H      11.0017251567    -1.4263347682    -1.7415879193
   45      C      12.1470531888    -1.6640396576    -3.5458769993
   46      H      12.4056171485    -2.5497444082    -1.5392390714
   47      H      11.5425638132    -1.0869791553    -4.2566637264
   48      H      12.4915452466    -2.5012410380    -4.1665661894
   49      C      13.3951410215    -0.8321914402    -3.1855003834
   50      H      13.2166342110     0.0908912322    -2.6205094998
   51      C      14.2247891089    -0.5453638091    -4.3860131742
   52      H      13.9955134351    -1.3950567949    -2.4610553837
   53      H      13.6353463447    -0.0683182860    -5.1780932186
   54      H      14.5587322325    -1.5015471094    -4.8071503092
   55      H      15.1092704295     0.0534330544    -4.1355154501
   56      C      -2.6978990301     4.8701939591    -2.5381738388
   57      C      -2.2882336594     4.3990758367    -1.3069663019
   58      N      -3.2729632642     4.0283801185    -3.4101615591
   59      C      -2.5691597137     3.0538922133    -0.9556394295
   60      C      -3.6516946422     2.7780863186    -3.1118161933
   61      C      -3.1644398670     2.2455054462    -1.9251307260
   62      C      -3.6032967213     0.8669593456    -1.6150689420
   63      C      -4.8487868583     0.3271481642    -2.0956521368
   64      C      -2.9659617418     0.0251131127    -0.6290719622
   65      N      -5.3613955516    -0.8507505032    -1.7850671132
   66      N      -1.7821766624     0.2423198829     0.0060973890
   67      C      -3.5579072691    -1.1889635053    -0.2118903971
   68      C      -4.7690545940    -1.5748155696    -0.7854637072
   69      S      -1.6534979927    -0.9937451302     1.0850691603
   70      N      -2.9409084511    -1.8362556695     0.7232621641
   71      C      -5.4565039536    -2.8394283005    -0.4631563710
   72      S      -4.6061669507    -4.3106655552    -0.0944980986
   73      C      -6.7573381315    -3.1774985021    -0.7345324574
   74      C      -5.9639121465    -5.3401731891    -0.6146057940
   75      S      -8.0414434500    -2.1089303529    -1.2134433486
   76      C      -7.0536020472    -4.5180275399    -0.8631504619
   77      C      -6.0556666599    -6.7843103827    -0.3979612108
   78      C      -9.1396908304    -3.5278188022    -1.1340125011
   79      C      -8.4664871886    -4.7128789822    -0.9652753488
   80      N      -6.9740157562    -7.4911236173    -1.0452238998
   81      S      -4.9360205992    -7.5824890346     0.5088009071
   82      C      -6.7649421318    -8.8028649743    -0.6475081318
   83      C      -5.8154338591    -8.9782074960     0.2756029342
   84      C      -2.5482270312     6.2802885300    -3.0795531825
   85      H      -1.9515313259     5.0305677228    -0.4905328776
   86      H      -2.3331575384     2.5795448050    -0.0073464845
   87      H      -4.2186240814     2.2401013194    -3.8701295531
   88      H      -5.4318628122     0.8500591276    -2.8537494632
   89      H     -10.2011611114    -3.3900383986    -1.2900971034
   90      H      -8.9873901102    -5.6611357340    -0.8912464419
   91      H      -7.4367832393    -9.5606278639    -1.0284778541
   92      H      -5.6197152080    -9.9370787115     0.7374537779
   93      H      -1.9275216448     6.9122969091    -2.4310840376
   94      C      -3.9577807993     6.9347328846    -3.0274978136
   95      H      -2.1597660776     6.3285672639    -4.1045030600
   96      H      -4.1988494883     6.8823343735    -1.9584509095
   97      H      -4.7353078951     6.2630407563    -3.4111686362
   98      C      -3.9806286661     8.3344160757    -3.7688634047
   99      H      -3.2082164311     9.0545158197    -3.4732865147
  100      C      -5.4367661139     8.9999907063    -3.5789999166
  101      H      -3.9959297880     8.1141626807    -4.8433378426
  102      H      -5.6279689920     9.0278628864    -2.4992751364
  103      H      -6.2329554160     8.4283461489    -4.0709583450
  104      C      -5.5017048775    10.4471385782    -4.1616378778
  105      H      -4.7507367765    11.0995184956    -3.6973714083
  106      C      -6.9147361196    11.1047948025    -3.9966772785
  107      H      -5.3953840272    10.3660815750    -5.2505504726
  108      H      -7.6371699774    10.5213639042    -4.5813299172
  109      H      -6.7982049648    12.1362292694    -4.3488894737
  110      H      -7.2569415046    11.2461285769    -2.9637575146
 ----------------------------------------------------------------

   12   -5663.5068815781      3.34E-06 Convergence criterion met
 Total energy in the final basis set = -5663.5068815781

                    Orbital Energies (a.u.)
 --------------------------------------------------------------

 Alpha MOs
 -- Occupied --
-88.993 -88.985 -88.932 -88.925 -88.919 -88.918 -88.913 -88.898
-14.395 -14.386 -14.381 -14.379 -14.352 -14.346 -14.345 -14.338
-14.319 -14.317 -10.266 -10.260 -10.259 -10.256 -10.255 -10.254
-10.254 -10.246 -10.241 -10.238 -10.237 -10.236 -10.236 -10.234
-10.233 -10.232 -10.231 -10.228 -10.226 -10.224 -10.224 -10.223
-10.220 -10.219 -10.219 -10.219 -10.218 -10.216 -10.214 -10.213
-10.212 -10.210 -10.207 -10.206 -10.203 -10.198 -10.196 -10.193
-10.184 -10.182 -10.181 -10.181 -10.181 -10.179 -10.178 -10.177
-10.176 -10.174 -10.171 -10.168  -8.049  -8.041  -7.993  -7.990
 -7.978  -7.978  -7.972  -7.958  -6.014  -6.008  -6.007  -6.007
 -6.001  -5.999  -5.957  -5.954  -5.953  -5.950  -5.950  -5.947
 -5.942  -5.942  -5.938  -5.938  -5.936  -5.935  -5.934  -5.933
 -5.928  -5.923  -5.919  -5.915  -1.052  -1.052  -0.980  -0.971
 -0.962  -0.955  -0.948  -0.938  -0.920  -0.914  -0.910  -0.908
 -0.845  -0.840  -0.831  -0.829  -0.824  -0.816  -0.809  -0.808
 -0.807  -0.798  -0.795  -0.791  -0.790  -0.779  -0.768  -0.764
 -0.751  -0.748  -0.743  -0.735  -0.723  -0.719  -0.712  -0.706
 -0.694  -0.689  -0.679  -0.674  -0.659  -0.652  -0.648  -0.645
 -0.638  -0.628  -0.625  -0.625  -0.615  -0.605  -0.601  -0.596
 -0.591  -0.590  -0.585  -0.581  -0.578  -0.576  -0.568  -0.566
 -0.547  -0.546  -0.542  -0.537  -0.526  -0.524  -0.521  -0.515
 -0.508  -0.508  -0.502  -0.500  -0.487  -0.484  -0.480  -0.476
 -0.476  -0.472  -0.470  -0.470  -0.469  -0.464  -0.453  -0.447
 -0.442  -0.441  -0.439  -0.439  -0.437  -0.434  -0.432  -0.432
 -0.429  -0.428  -0.425  -0.423  -0.417  -0.415  -0.414  -0.414
 -0.409  -0.405  -0.405  -0.404  -0.402  -0.400  -0.398  -0.397
 -0.396  -0.395  -0.390  -0.389  -0.388  -0.384  -0.384  -0.383
 -0.380  -0.379  -0.378  -0.369  -0.367  -0.365  -0.360  -0.358
 -0.352  -0.351  -0.347  -0.347  -0.346  -0.343  -0.343  -0.340
 -0.337  -0.337  -0.336  -0.334  -0.330  -0.326  -0.322  -0.321
 -0.318  -0.313  -0.311  -0.311  -0.308  -0.303  -0.301  -0.300
 -0.296  -0.295  -0.292  -0.288  -0.287  -0.285  -0.281  -0.278
 -0.278  -0.272  -0.271  -0.269  -0.256  -0.249  -0.244  -0.240
 -0.239  -0.236  -0.231  -0.227  -0.194  -0.191

          Ground-State Mulliken Net Atomic Charges

     Atom                 Charge (a.u.)
  ----------------------------------------
      1 C                     0.293292
      2 C                    -0.114159
      3 N                    -0.482805
      4 C                    -0.088228
      5 C                     0.087757
      6 C                     0.023900
      7 C                     0.027842
      8 C                     0.064533
      9 C                     0.255685
     10 N                    -0.520315
     11 N                    -0.563174
     12 C                     0.202877
     13 C                     0.286240
     14 S                     0.612155
     15 N                    -0.540130
     16 C                    -0.228433
     17 S                     0.359063
     18 C                    -0.128181
     19 C                    -0.263859
     20 S                     0.295136
     21 C                     0.154207
     22 C                     0.089063
     23 C                    -0.309710
     24 C                    -0.078183
     25 N                    -0.441115
     26 S                     0.273004
     27 C                     0.116332
     28 C                    -0.313805
     29 C                    -0.230419
     30 H                     0.098408
     31 H                     0.094120
     32 H                     0.125280
     33 H                     0.118396
     34 H                     0.131552
     35 H                     0.112805
     36 H                     0.124058
     37 H                     0.134187
     38 H                     0.113636
     39 C                    -0.188765
     40 H                     0.095444
     41 H                     0.090928
     42 H                     0.101786
     43 C                    -0.175503
     44 H                     0.096692
     45 C                    -0.174337
     46 H                     0.095774
     47 H                     0.092396
     48 H                     0.091644
     49 C                    -0.173779
     50 H                     0.090588
     51 C                    -0.314045
     52 H                     0.091327
     53 H                     0.097091
     54 H                     0.100500
     55 H                     0.096559
     56 C                     0.267353
     57 C                    -0.136594
     58 N                    -0.481391
     59 C                    -0.061085
     60 C                     0.076137
     61 C                     0.044868
     62 C                     0.032646
     63 C                     0.061231
     64 C                     0.206737
     65 N                    -0.497076
     66 N                    -0.568331
     67 C                     0.230139
     68 C                     0.267352
     69 S                     0.613389
     70 N                    -0.548647
     71 C                    -0.213479
     72 S                     0.303809
     73 C                    -0.110463
     74 C                    -0.250570
     75 S                     0.259502
     76 C                     0.152649
     77 C                     0.066020
     78 C                    -0.301669
     79 C                    -0.045731
     80 N                    -0.428349
     81 S                     0.294829
     82 C                     0.102839
     83 C                    -0.292870
     84 C                    -0.203822
     85 H                     0.090475
     86 H                     0.125997
     87 H                     0.112691
     88 H                     0.106760
     89 H                     0.124312
     90 H                     0.120057
     91 H                     0.108667
     92 H                     0.128459
     93 H                     0.092017
     94 C                    -0.179244
     95 H                     0.115541
     96 H                     0.084672
     97 H                     0.113692
     98 C                    -0.184153
     99 H                     0.094975
    100 C                    -0.175653
    101 H                     0.106156
    102 H                     0.090471
    103 H                     0.091305
    104 C                    -0.180907
    105 H                     0.090537
    106 C                    -0.319189
    107 H                     0.095650
    108 H                     0.102974
    109 H                     0.098601
    110 H                     0.100403
  ----------------------------------------
  Sum of atomic charges =     0.000000

                    Cartesian Multipole Moments
 -----------------------------------------------------------------
    Charge (ESU x 10^10)
                 0.0000
    Dipole Moment (Debye)
         X       1.2565      Y       1.5615      Z       4.1192
       Tot       4.5810
    Quadrupole Moments (Debye-Ang)
        XX    -428.5447     XY      14.5316     YY    -403.5889
        XZ     -20.3259     YZ       4.5469     ZZ    -437.8948

 Total job time:  111.89s(wall), 1206.04s(cpu)
        *  Thank you very much for using Q-Chem.  Have a nice day.  *
