 Q-Chem 4.4, Q-Chem, Inc., Pleasanton, CA (2016)
 Q-Chem 4.4.2 for Intel X86 Linux

User input:
--------------------------------------------------------------
$comment
SP
$end

$rem
MEM_STATIC 5000
MEM_TOTAL 20000
JOBTYPE SP
EXCHANGE B3LYP
BASIS 6-31g(d,p)
$end

$molecule
0 1
C          17.382000      7.107000     12.730000
C          18.041000      7.918000     11.798000
N          17.926000      5.954000     13.170000
C          19.334000      7.507000     11.366000
C          19.139000      5.534000     12.663000
C          20.006000      6.321000     11.813000
C          21.370000      5.841000     11.304000
C          21.705000      4.468000     11.179000
C          22.394000      6.718000     10.738000
N          22.838000      4.017000     10.656000
N          22.282000      8.075000     10.709000
C          23.525000      6.254000     10.110000
C          23.774000      4.845000     10.215000
S          23.648000      8.558000     10.046000
N          24.324000      7.192000      9.559000
C          24.968000      4.206000      9.636000
S          26.359000      5.082000      8.921000
C          25.362000      2.877000      9.718000
C          27.293000      3.591000      8.546000
S          24.539000      1.532000     10.533000
C          26.657000      2.627000      9.222000
C          28.516000      3.535000      7.874000
C          26.009000      0.615000     10.155000
C          26.970000      1.263000      9.412000
N          28.926000      4.734000      7.493000
S          29.597000      2.186000      7.467000
C          30.071000      4.641000      6.715000
C          30.569000      3.407000      6.654000
C          16.061000      7.525000     13.439000
H          17.582000      8.827000     11.421000
H          19.766000      8.138000     10.595000
H          19.463000      4.512000     12.850000
H          21.093000      3.682000     11.619000
H          26.128000     -0.416000     10.462000
H          27.923000      0.842000      9.112000
H          30.541000      5.514000      6.282000
H          31.549000      3.064000      6.350000
H          15.320000      7.899000     12.722000
C          16.305000      8.491000     14.660000
H          15.544000      6.656000     13.865000
H          16.663000      9.466000     14.307000
H          17.136000      8.046000     15.221000
C          15.070000      8.758000     15.542000
H          14.257000      8.953000     14.833000
C          15.232000      9.982000     16.453000
H          14.888000      7.922000     16.228000
H          15.776000     10.793000     15.954000
H          15.746000      9.702000     17.381000
C          13.876000     10.472000     16.984000
H          13.285000     10.727000     16.095000
C          14.262000     11.728000     17.796000
H          13.164000      9.832000     17.520000
H          14.699000     12.484000     17.131000
H          14.984000     11.630000     18.616000
H          13.403000     12.259000     18.223000
C          21.650000      5.201000     15.228000
C          22.469000      6.309000     15.143000
N          22.002000      4.069000     14.600000
C          23.712000      6.197000     14.469000
C          23.197000      3.865000     14.029000
C          23.996000      4.985000     13.838000
C          25.313000      4.732000     13.213000
C          25.997000      3.471000     13.338000
C          26.138000      5.767000     12.634000
N          27.213000      3.195000     12.900000
N          25.789000      7.056000     12.372000
C          27.476000      5.510000     12.257000
C          27.987000      4.225000     12.437000
S          27.174000      7.763000     11.833000
N          28.150000      6.520000     11.810000
C          29.351000      3.828000     12.040000
S          30.155000      4.476000     10.641000
C          30.042000      2.708000     12.425000
C          31.202000      3.046000     10.460000
S          29.654000      1.634000     13.735000
C          31.019000      2.238000     11.573000
C          32.347000      2.951000      9.554000
C          31.180000      0.763000     13.363000
C          31.761000      1.184000     12.192000
N          32.896000      1.768000      9.307000
S          32.870000      4.260000      8.702000
C          33.911000      2.025000      8.398000
C          34.101000      3.313000      8.099000
C          20.318000      5.095000     15.948000
H          22.341000      7.212000     15.732000
H          24.456000      6.982000     14.368000
H          23.403000      2.861000     13.661000
H          25.491000      2.596000     13.746000
H          31.500000     -0.049000     14.002000
H          32.692000      0.761000     11.831000
H          34.528000      1.195000      8.080000
H          34.919000      3.654000      7.478000
H          19.961000      6.068000     16.310000
C          20.569000      4.267000     17.240000
H          19.525000      4.620000     15.357000
H          21.320000      4.873000     17.762000
H          21.176000      3.375000     17.043000
C          19.213000      3.898000     17.971000
H          18.526000      4.729000     18.171000
C          19.556000      3.140000     19.352000
H          18.765000      3.079000     17.395000
H          20.235000      3.798000     19.908000
H          20.043000      2.170000     19.195000
C          18.277000      2.864000     20.204000
H          17.741000      3.794000     20.434000
C          18.591000      2.116000     21.545000
H          17.669000      2.135000     19.654000
H          18.999000      1.127000     21.301000
H          17.638000      2.075000     22.085000
H          19.238000      2.653000     22.250000
$end

--------------------------------------------------------------

             Standard Nuclear Orientation (Angstroms)
    I     Atom           X                Y                Z
 ----------------------------------------------------------------
    1      C       7.2942395778     2.2598558779     1.4012003125
    2      C       6.5484676315     3.3528365244     0.9431135186
    3      N       6.6984218208     1.1165852426     1.7972791618
    4      C       5.1353974772     3.1977114908     0.8621014029
    5      C       5.3210967645     1.0283124805     1.7960107716
    6      C       4.4225377496     2.0054759183     1.2204229742
    7      C       2.8972393944     1.8544504021     1.1952590893
    8      C       2.1882297776     1.0497691043     2.1241144991
    9      C       2.0049754263     2.6393376924     0.3432743753
   10      N       0.8654435956     0.9694763096     2.1905131712
   11      N       2.4516801637     3.5120243153    -0.6020863684
   12      C       0.6365848087     2.6322885756     0.4709396707
   13      C       0.0887930284     1.6442565096     1.3552607673
   14      S       1.1168623048     4.0681176629    -1.2712914732
   15      N      -0.0377338847     3.4840579489    -0.3300779536
   16      C      -1.3604653694     1.4809491568     1.5606355590
   17      S      -2.6340201982     2.3128471441     0.6122232875
   18      C      -2.0224945342     0.5330455990     2.3296591153
   19      C      -3.9992040396     1.5189698447     1.4736720167
   20      S      -1.3254457593    -0.7664695988     3.3175671353
   21      C      -3.4211512517     0.5252836766     2.1586616324
   22      C      -5.3571852521     1.7784947685     1.2762312906
   23      C      -3.0044977654    -1.3049654419     3.5059273956
   24      C      -3.9770209297    -0.5123579655     2.9389652423
   25      N      -5.5530575333     2.7301153294     0.3779471721
   26      S      -6.8255859043     1.0692255472     1.9796143274
   27      C      -6.8974452369     3.0628668356     0.2951453755
   28      C      -7.6842508379     2.2641342679     1.0144813412
   29      C       8.8492484970     2.2111462756     1.3562488294
   30      H       7.0317761430     4.2828529138     0.6592589816
   31      H       4.6061095758     4.0981628187     0.5650025585
   32      H       4.8455383378     0.2001245738     2.3179092043
   33      H       2.6942408378     0.3422263806     2.7793061514
   34      H      -3.2542541411    -2.1935646322     4.0710682910
   35      H      -5.0422859746    -0.7130692185     2.9583398910
   36      H      -7.2540169567     3.8441806184    -0.3628237586
   37      H      -8.7538568690     2.1092693418     0.9652391541
   38      H       9.2928684224     3.1272478625     1.7649115806
   39      C       9.4049303702     1.8174011116    -0.0649180860
   40      H       9.2447828031     1.4462575780     2.0362663976
   41      H       9.2062434287     2.6199812353    -0.7858803904
   42      H       8.7990339089     0.9615170512    -0.3868791913
   43      C      10.9173068482     1.5274524909    -0.1204625387
   44      H      11.3791148414     2.3410853443     0.4508604499
   45      C      11.4834046516     1.5451144929    -1.5464928086
   46      H      11.1393177422     0.5213702378     0.2552044187
   47      H      11.0184608145     2.3257926813    -2.1605178849
   48      H      11.3501648139     0.5655623386    -2.0224179316
   49      C      13.0136123455     1.6838579869    -1.5430786439
   50      H      13.2233676644     2.6321724573    -1.0318747987
   51      C      13.3523090393     1.7563588876    -3.0483706983
   52      H      13.6854946074     1.0099804360    -0.9969071758
   53      H      12.8962779378     2.6507435798    -3.4920391071
   54      H      13.0417684740     0.9332327102    -3.7035926861
   55      H      14.4183086725     1.9093976811    -3.2542709403
   56      C       4.1233109402    -1.6088017111    -0.3501888602
   57      C       3.6716487799    -1.0154463391    -1.5119034101
   58      N       3.2535491824    -1.8819964014     0.6339814228
   59      C       2.2805406343    -0.7922848334    -1.6758731320
   60      C       1.9226622956    -1.7856146083     0.5109666091
   61      C       1.4472725426    -1.0996667782    -0.5993316199
   62      C      -0.0251988685    -1.0139808252    -0.7159886429
   63      C      -0.9030225562    -2.0064029875    -0.1519622029
   64      C      -0.7079570737    -0.0860875625    -1.5877376470
   65      N      -2.2157532926    -2.0602747176    -0.2951817918
   66      N      -0.1708894119     0.9676918012    -2.2608449039
   67      C      -2.0960982950    -0.1975952044    -1.8307438103
   68      C      -2.8070726698    -1.2154141309    -1.1956799779
   69      S      -1.4107117444     1.5618482239    -3.1655071222
   70      N      -2.5992046491     0.6409945474    -2.6779959715
   71      C      -4.2634541940    -1.4018968762    -1.3367155820
   72      S      -5.3737470511    -0.0756088017    -1.5148467552
   73      C      -5.0011409770    -2.5095146108    -1.0064018461
   74      C      -6.7397555879    -1.0021741085    -0.8444980328
   75      S      -4.4028577204    -4.1038501294    -0.6596001751
   76      C      -6.3309790800    -2.3196522253    -0.6952493200
   77      C      -8.1381654698    -0.5721119826    -0.8640523193
   78      C      -6.1157856968    -4.6290680146    -0.5342011289
   79      C      -6.9975926148    -3.5763601046    -0.5504988406
   80      N      -9.0334060969    -1.2057942937    -0.1164628945
   81      S      -8.5997011093     0.7887008098    -1.6690910746
   82      C     -10.2263742370    -0.5343919974    -0.3369191791
   83      C     -10.1731856654     0.4487443180    -1.2397253384
   84      C       5.5528614584    -1.9844280296    -0.0050074808
   85      H       4.2695443562    -0.8932186101    -2.4098428636
   86      H       1.8012770604    -0.3704399976    -2.5546878799
   87      H       1.3224627012    -2.1539911453     1.3415899738
   88      H      -0.5261628647    -2.7631152476     0.5361426788
   89      H      -6.3430354814    -5.6760437212    -0.3849885115
   90      H      -8.0697733226    -3.7273160210    -0.4900683754
   91      H     -11.1162966944    -0.9099652990     0.1506212959
   92      H     -11.0523174845     0.9858230527    -1.5709649454
   93      H       6.2734461533    -1.6027926901    -0.7400817391
   94      C       5.6541581622    -3.5312535882    -0.1271494845
   95      H       5.8681008292    -1.6750341894     0.9993104921
   96      H       5.3814663067    -3.6997403076    -1.1764217930
   97      H       4.8069667213    -4.0360613159     0.3528065764
   98      C       7.0390796785    -4.0718024258     0.4197118761
   99      H       7.9407569190    -3.5919877494     0.0206053361
  100      C       7.1163112445    -5.6611452486     0.1600993251
  101      H       6.9692841409    -4.0473896794     1.5141403118
  102      H       6.9342177690    -5.8108441187    -0.9111491122
  103      H       6.3692802340    -6.2225141604     0.7341442836
  104      C       8.5096961573    -6.2520372447     0.5438259644
  105      H       9.3191347741    -5.7623701063    -0.0130682978
  106      C       8.5980646917    -7.7991722563     0.3094219161
  107      H       8.6137130522    -6.1633549618     1.6323667024
  108      H       7.8782313026    -8.2907497678     0.9759895736
  109      H       9.6405316200    -8.0657542806     0.5184356182
  110      H       8.4737918605    -8.1317211018    -0.7288316796
 ----------------------------------------------------------------

   10   -5663.4802770169      3.91E-06 Convergence criterion met
 Total energy in the final basis set = -5663.4802770169

                    Orbital Energies (a.u.)
 --------------------------------------------------------------

 Alpha MOs
 -- Occupied --
-88.987 -88.986 -88.928 -88.927 -88.917 -88.912 -88.910 -88.899
-14.383 -14.382 -14.381 -14.379 -14.346 -14.344 -14.341 -14.337
-14.328 -14.320 -10.263 -10.262 -10.260 -10.256 -10.255 -10.254
-10.250 -10.247 -10.238 -10.236 -10.236 -10.236 -10.232 -10.232
-10.230 -10.229 -10.228 -10.227 -10.226 -10.225 -10.225 -10.224
-10.224 -10.223 -10.223 -10.221 -10.220 -10.220 -10.219 -10.209
-10.208 -10.207 -10.204 -10.198 -10.198 -10.197 -10.194 -10.194
-10.185 -10.181 -10.180 -10.180 -10.177 -10.177 -10.177 -10.176
-10.176 -10.174 -10.171 -10.169  -8.043  -8.042  -7.992  -7.987
 -7.976  -7.971  -7.968  -7.960  -6.008  -6.007  -6.003  -6.002
 -6.001  -6.001  -5.956  -5.952  -5.951  -5.950  -5.948  -5.944
 -5.941  -5.937  -5.935  -5.933  -5.932  -5.932  -5.929  -5.927
 -5.924  -5.924  -5.920  -5.916  -1.053  -1.051  -0.984  -0.967
 -0.963  -0.955  -0.939  -0.923  -0.915  -0.911  -0.909  -0.906
 -0.841  -0.836  -0.830  -0.828  -0.822  -0.810  -0.808  -0.804
 -0.800  -0.795  -0.792  -0.791  -0.778  -0.777  -0.766  -0.764
 -0.750  -0.748  -0.740  -0.735  -0.720  -0.709  -0.707  -0.705
 -0.693  -0.689  -0.675  -0.674  -0.649  -0.648  -0.645  -0.641
 -0.633  -0.628  -0.626  -0.620  -0.608  -0.605  -0.597  -0.594
 -0.591  -0.589  -0.580  -0.578  -0.575  -0.574  -0.572  -0.564
 -0.549  -0.546  -0.538  -0.538  -0.526  -0.522  -0.519  -0.517
 -0.508  -0.501  -0.499  -0.492  -0.488  -0.483  -0.482  -0.476
 -0.472  -0.472  -0.468  -0.466  -0.464  -0.460  -0.449  -0.447
 -0.446  -0.438  -0.436  -0.435  -0.433  -0.431  -0.430  -0.427
 -0.425  -0.422  -0.421  -0.419  -0.415  -0.414  -0.412  -0.410
 -0.409  -0.404  -0.403  -0.397  -0.396  -0.395  -0.394  -0.392
 -0.391  -0.388  -0.388  -0.386  -0.384  -0.382  -0.381  -0.378
 -0.378  -0.376  -0.370  -0.366  -0.363  -0.361  -0.358  -0.354
 -0.350  -0.348  -0.348  -0.347  -0.345  -0.343  -0.341  -0.338
 -0.337  -0.332  -0.328  -0.327  -0.326  -0.325  -0.323  -0.319
 -0.316  -0.315  -0.310  -0.309  -0.308  -0.303  -0.299  -0.296
 -0.295  -0.292  -0.292  -0.288  -0.286  -0.280  -0.278  -0.276
 -0.271  -0.270  -0.267  -0.265  -0.257  -0.250  -0.244  -0.239
 -0.237  -0.236  -0.229  -0.225  -0.195  -0.188

          Ground-State Mulliken Net Atomic Charges

     Atom                 Charge (a.u.)
  ----------------------------------------
      1 C                     0.259664
      2 C                    -0.108462
      3 N                    -0.491933
      4 C                    -0.088491
      5 C                     0.068617
      6 C                     0.045693
      7 C                     0.056190
      8 C                     0.053049
      9 C                     0.190805
     10 N                    -0.521482
     11 N                    -0.533739
     12 C                     0.224934
     13 C                     0.309605
     14 S                     0.609651
     15 N                    -0.552270
     16 C                    -0.237481
     17 S                     0.321121
     18 C                    -0.113695
     19 C                    -0.215080
     20 S                     0.282500
     21 C                     0.144985
     22 C                     0.066057
     23 C                    -0.296651
     24 C                    -0.077536
     25 N                    -0.437313
     26 S                     0.284106
     27 C                     0.129990
     28 C                    -0.310762
     29 C                    -0.229069
     30 H                     0.092811
     31 H                     0.109089
     32 H                     0.114638
     33 H                     0.120340
     34 H                     0.121068
     35 H                     0.110283
     36 H                     0.116203
     37 H                     0.135831
     38 H                     0.093221
     39 C                    -0.178628
     40 H                     0.117046
     41 H                     0.087720
     42 H                     0.106790
     43 C                    -0.174991
     44 H                     0.090341
     45 C                    -0.170419
     46 H                     0.099515
     47 H                     0.094156
     48 H                     0.096917
     49 C                    -0.177948
     50 H                     0.092662
     51 C                    -0.324881
     52 H                     0.099136
     53 H                     0.101982
     54 H                     0.104406
     55 H                     0.090022
     56 C                     0.271566
     57 C                    -0.133072
     58 N                    -0.493717
     59 C                    -0.065039
     60 C                     0.076973
     61 C                     0.036379
     62 C                     0.037311
     63 C                     0.070597
     64 C                     0.214628
     65 N                    -0.498645
     66 N                    -0.591310
     67 C                     0.251365
     68 C                     0.269863
     69 S                     0.606331
     70 N                    -0.549189
     71 C                    -0.218508
     72 S                     0.331625
     73 C                    -0.111806
     74 C                    -0.257373
     75 S                     0.258828
     76 C                     0.149780
     77 C                     0.067270
     78 C                    -0.302099
     79 C                    -0.047522
     80 N                    -0.431129
     81 S                     0.297828
     82 C                     0.094344
     83 C                    -0.300155
     84 C                    -0.207338
     85 H                     0.090308
     86 H                     0.121093
     87 H                     0.124179
     88 H                     0.109285
     89 H                     0.123792
     90 H                     0.118914
     91 H                     0.108936
     92 H                     0.127744
     93 H                     0.093354
     94 C                    -0.183356
     95 H                     0.130847
     96 H                     0.082734
     97 H                     0.111032
     98 C                    -0.181479
     99 H                     0.095949
    100 C                    -0.175828
    101 H                     0.107201
    102 H                     0.089820
    103 H                     0.090181
    104 C                    -0.180624
    105 H                     0.090438
    106 C                    -0.319363
    107 H                     0.095847
    108 H                     0.102471
    109 H                     0.098272
    110 H                     0.100155
  ----------------------------------------
  Sum of atomic charges =     0.000000

                    Cartesian Multipole Moments
 -----------------------------------------------------------------
    Charge (ESU x 10^10)
                 0.0000
    Dipole Moment (Debye)
         X      -2.7032      Y       1.2946      Z      -2.6862
       Tot       4.0248
    Quadrupole Moments (Debye-Ang)
        XX    -384.8009     XY       2.2262     YY    -436.3264
        XZ      -5.4565     YZ     -10.4094     ZZ    -444.3550

 Total job time:  125.81s(wall), 1328.05s(cpu)
        *  Thank you very much for using Q-Chem.  Have a nice day.  *
