 Q-Chem 4.4, Q-Chem, Inc., Pleasanton, CA (2016)
 Q-Chem 4.4.2 for Intel X86 Linux

User input:
--------------------------------------------------------------
$comment
SP
$end

$rem
MEM_STATIC 5000
MEM_TOTAL 20000
JOBTYPE SP
EXCHANGE B3LYP
BASIS 6-31g(d,p)
$end

$molecule
0 1
C          28.549000     25.884000      3.320000
C          28.060000     24.740000      3.973000
N          27.694000     26.924000      3.049000
C          26.750000     24.638000      4.488000
C          26.400000     26.813000      3.550000
C          25.881000     25.737000      4.277000
C          24.385000     25.696000      4.688000
C          24.055000     24.891000      5.845000
C          23.254000     26.372000      4.120000
N          22.761000     24.831000      6.260000
N          23.472000     27.192000      3.099000
C          22.003000     26.317000      4.683000
C          21.744000     25.439000      5.726000
S          22.061000     27.986000      2.892000
N          21.212000     27.268000      4.082000
C          20.417000     25.294000      6.247000
S          18.956000     26.107000      5.600000
C          20.055000     24.489000      7.323000
C          17.931000     25.375000      6.878000
S          21.082000     23.673000      8.428000
C          18.687000     24.531000      7.631000
C          16.516000     25.545000      6.934000
C          19.598000     23.195000      9.266000
C          18.432000     23.752000      8.744000
N          15.791000     24.727000      7.693000
S          15.691000     26.906000      6.202000
C          14.519000     25.155000      7.619000
C          14.251000     26.288000      6.952000
C          29.961000     26.105000      2.827000
H          28.847000     24.014000      4.158000
H          26.352000     23.841000      5.110000
H          25.821000     27.700000      3.295000
H          24.709000     24.187000      6.357000
H          19.739000     22.739000     10.237000
H          17.457000     23.563000      9.178000
H          13.790000     24.527000      8.114000
H          13.319000     26.811000      6.784000
H          30.253000     25.223000      2.244000
C          30.955000     26.133000      4.005000
H          30.048000     27.027000      2.240000
H          30.937000     25.170000      4.531000
H          30.764000     26.902000      4.764000
C          32.396000     26.277000      3.471000
H          32.626000     25.747000      2.539000
C          33.300000     25.865000      4.626000
H          32.595000     27.339000      3.280000
H          33.094000     24.852000      4.992000
H          33.161000     26.459000      5.538000
C          34.792000     26.068000      4.147000
H          35.135000     25.282000      3.463000
C          35.836000     26.260000      5.279000
H          34.910000     27.043000      3.658000
H          35.995000     25.384000      5.920000
H          35.468000     27.025000      5.974000
H          36.829000     26.423000      4.841000
C          24.591000     21.665000     -0.159000
C          24.856000     22.980000      0.315000
N          23.371000     21.117000     -0.173000
C          23.728000     23.720000      0.782000
C          22.300000     21.836000      0.274000
C          22.409000     23.140000      0.809000
C          21.222000     23.975000      1.213000
C          21.132000     25.374000      0.937000
C          20.114000     23.427000      1.869000
N          20.106000     26.159000      1.205000
N          19.955000     22.067000      2.118000
C          19.023000     24.213000      2.194000
C          19.064000     25.614000      1.908000
S          18.391000     21.908000      2.787000
N          18.023000     23.544000      2.714000
C          17.870000     26.475000      2.149000
S          16.261000     25.905000      2.552000
C          17.872000     27.845000      2.044000
C          15.635000     27.498000      2.559000
S          19.154000     28.960000      1.613000
C          16.624000     28.388000      2.335000
C          14.301000     27.862000      2.803000
C          17.971000     30.263000      1.776000
C          16.710000     29.870000      2.199000
N          13.872000     29.095000      2.546000
S          13.173000     26.676000      3.125000
C          12.451000     29.104000      2.689000
C          11.940000     27.876000      2.926000
C          25.725000     20.713000     -0.613000
H          25.875000     23.349000      0.245000
H          23.869000     24.759000      1.064000
H          21.333000     21.338000      0.240000
H          22.024000     25.785000      0.466000
H          18.332000     31.201000      1.376000
H          15.905000     30.593000      2.132000
H          11.865000     29.984000      2.458000
H          10.897000     27.625000      3.072000
H          26.308000     21.313000     -1.323000
C          25.202000     19.464000     -1.357000
H          26.402000     20.451000      0.210000
H          24.417000     19.766000     -2.062000
H          24.801000     18.670000     -0.716000
C          26.313000     18.811000     -2.153000
H          26.841000     19.600000     -2.703000
C          25.828000     17.651000     -3.085000
H          27.035000     18.392000     -1.442000
H          25.272000     16.884000     -2.531000
H          26.718000     17.109000     -3.426000
C          25.041000     18.157000     -4.339000
H          24.234000     18.851000     -4.075000
C          24.414000     16.998000     -5.096000
H          25.722000     18.757000     -4.955000
H          23.703000     17.301000     -5.875000
H          23.815000     16.261000     -4.548000
H          25.208000     16.390000     -5.548000
$end

--------------------------------------------------------------

             Standard Nuclear Orientation (Angstroms)
    I     Atom           X                Y                Z
 ----------------------------------------------------------------
    1      C      -6.6697871801     2.4432621336     1.0012129937
    2      C      -6.3362602538     2.1043098100    -0.3209583688
    3      N      -5.6685974688     2.6501524131     1.9182089448
    4      C      -5.0119517262     2.0817997045    -0.8082254606
    5      C      -4.3639260474     2.6159046427     1.4340420601
    6      C      -3.9747750747     2.3658343456     0.1143101302
    7      C      -2.4754467248     2.2538437164    -0.2705152823
    8      C      -2.1394690063     2.5402086354    -1.6491697372
    9      C      -1.3353185077     1.9440099172     0.5436540277
   10      N      -0.8380441466     2.4728225840    -2.0390587657
   11      N      -1.5378519129     1.7389126460     1.8395245186
   12      C      -0.0498553516     2.0015848498     0.0648381951
   13      C       0.1833646569     2.1769293571    -1.2918772251
   14      S      -0.0434265597     1.6970589547     2.4946177426
   15      N       0.8163241531     1.9244559943     1.1302335232
   16      C       1.5158269388     2.1281862640    -1.8168185344
   17      S       2.9900074303     1.7559943628    -0.8668900807
   18      C       1.8692778104     2.3456000342    -3.1452193526
   19      C       4.0307143800     1.9942403276    -2.3090762355
   20      S       0.8877502094     2.9438506198    -4.4181332559
   21      C       3.2461638893     2.2410118508    -3.3928037579
   22      C       5.4387523480     1.7670853064    -2.2995537952
   23      C       2.3523121385     2.8874166217    -5.4105331550
   24      C       3.5082468637     2.5301215072    -4.7188366086
   25      N       6.0867362083     1.6440902966    -3.4553302201
   26      S       6.4038441302     1.8332962455    -0.8390799120
   27      C       7.3908960233     1.5148977974    -3.1567996941
   28      C       7.7815875634     1.6372739002    -1.8789944625
   29      C      -8.0632158219     2.5816907582     1.5711499516
   30      H      -7.2189363164     2.0068485570    -0.9471007429
   31      H      -4.6968851542     1.9553903985    -1.8403353107
   32      H      -3.6585929914     2.8140931060     2.2404300642
   33      H      -2.8355312765     2.6654668922    -2.4769883678
   34      H       2.2788507957     3.3718282595    -6.3752127890
   35      H       4.4780428879     2.4822464546    -5.2004024409
   36      H       8.0399222097     1.3095281345    -3.9978932150
   37      H       8.7632309618     1.5853742969    -1.4272648203
   38      H      -8.6291320280     1.6848132084     1.2911026190
   39      C      -8.8203186230     3.7407916625     0.8930758832
   40      H      -8.0463203839     2.7286035747     2.6575905475
   41      H      -8.9224701599     3.5414583901    -0.1812612660
   42      H      -8.3468527284     4.7268271502     0.9796037025
   43      C     -10.2649005813     3.8092402426     1.4324002360
   44      H     -10.7532551730     2.8500498375     1.6418938149
   45      C     -11.0333014677     4.6589661218     0.4281537483
   46      H     -10.2606737606     4.3669666129     2.3773073372
   47      H     -10.9914847032     4.2600523306    -0.5924735811
   48      H     -10.6221625806     5.6662354317     0.2857657121
   49      C     -12.5053051201     4.8179449807     0.9801002760
   50      H     -13.1164125413     3.9176138926     0.8413463515
   51      C     -13.2830264438     6.0559168441     0.4597165635
   52      H     -12.4907777576     5.0785876200     2.0457101344
   53      H     -13.5180463492     6.0422201986    -0.6117852078
   54      H     -12.6505307601     6.9450676944     0.5738830012
   55      H     -14.2763768822     6.0896797093     0.9250948778
   56      C      -4.3346383344    -3.7731628990    -0.2121730463
   57      C      -4.2303095587    -2.5467961488     0.5014557790
   58      N      -3.2795468907    -4.4393701342    -0.6936810577
   59      C      -2.9089419399    -2.0434518465     0.6981919714
   60      C      -2.0208494617    -3.9487689273    -0.4966982210
   61      C      -1.7586254370    -2.7246284088     0.1599908622
   62      C      -0.3704921046    -2.2259302461     0.4662521790
   63      C      -0.0298745774    -1.6022075994     1.7057790082
   64      C       0.6870873031    -2.3620216932    -0.4400087737
   65      N       1.1701441760    -1.1932264241     2.0710383538
   66      N       0.5901202284    -3.0477108101    -1.6471996540
   67      C       1.9592914190    -1.9269626591    -0.1145516733
   68      C       2.1725568599    -1.2749843893     1.1407252633
   69      S       2.1721526928    -3.0568421021    -2.2922019028
   70      N       2.8645921585    -2.2100553100    -1.0191234626
   71      C       3.5461537712    -0.8840562906     1.5713582240
   72      S       5.0397521394    -1.3545793882     0.7814456154
   73      C       3.8201406988    -0.1260265707     2.6841255434
   74      C       5.9845777798    -0.5422164503     1.9548785987
   75      S       2.7534228630     0.5699916808     3.8883604260
   76      C       5.1859076518     0.0939967372     2.8367832459
   77      C       7.3871015523    -0.4891879314     1.9961465499
   78      C       4.1981796791     1.1752399367     4.7070296455
   79      C       5.3978802830     0.9193314566     4.0599374490
   80      N       8.0217274034    -0.0418569292     3.0766667966
   81      S       8.2723964394    -1.2694070254     0.8170896690
   82      C       9.4154118808    -0.3038276180     2.9070026119
   83      C       9.6836424378    -1.0106595057     1.7873084345
   84      C      -5.7050138954    -4.3945731355    -0.5786374237
   85      H      -5.1440090489    -2.1055220097     0.8885634847
   86      H      -2.7759044177    -1.1616195269     1.3175454874
   87      H      -1.2019517711    -4.5327669949    -0.9121519844
   88      H      -0.8783350090    -1.4683799543     2.3755782748
   89      H       3.9854711134     1.5438143765     5.7015511126
   90      H       6.3166763772     1.0983884720     4.6067420964
   91      H      10.1299387964    -0.0938219342     3.6921815084
   92      H      10.6582190343    -1.3294673831     1.4398490918
   93      H      -6.2548598599    -4.4053916595     0.3708579027
   94      C      -5.5912623240    -5.8503678092    -1.0834031596
   95      H      -6.2774148006    -3.7611790384    -1.2681815640
   96      H      -4.8868821093    -6.3996352315    -0.4457450912
   97      H      -5.2695364670    -5.9615402872    -2.1256368920
   98      C      -6.9318176548    -6.5509274589    -1.0029445858
   99      H      -7.3619108908    -6.3413587005    -0.0155714325
  100      C      -6.8665644302    -8.0828763953    -1.3165103252
  101      H      -7.5995902093    -6.0851639137    -1.7374581224
  102      H      -6.4041443391    -8.2834078466    -2.2913414883
  103      H      -7.8956501857    -8.4339505572    -1.4574870634
  104      C      -6.2070016045    -8.9183965676    -0.1698613289
  105      H      -5.2379813376    -8.5102437900     0.1415741101
  106      C      -5.9759927436   -10.3563826811    -0.6037851050
  107      H      -6.8357281917    -8.8331652935     0.7249322274
  108      H      -5.3548348627   -10.9408390051     0.0866819054
  109      H      -5.4667375792   -10.5544183606    -1.5544243884
  110      H      -6.9450480203   -10.8559543432    -0.7293399740
 ----------------------------------------------------------------

    9   -5663.5188681459      9.99E-06 Convergence criterion met
 Total energy in the final basis set = -5663.5188681459

                    Orbital Energies (a.u.)
 --------------------------------------------------------------

 Alpha MOs
 -- Occupied --
-88.988 -88.984 -88.928 -88.927 -88.923 -88.919 -88.910 -88.907
-14.384 -14.383 -14.378 -14.373 -14.357 -14.345 -14.339 -14.339
-14.327 -14.323 -10.269 -10.264 -10.263 -10.253 -10.251 -10.251
-10.248 -10.245 -10.242 -10.242 -10.241 -10.234 -10.234 -10.233
-10.231 -10.231 -10.230 -10.228 -10.228 -10.228 -10.225 -10.224
-10.223 -10.223 -10.221 -10.220 -10.219 -10.218 -10.218 -10.218
-10.217 -10.214 -10.210 -10.203 -10.202 -10.202 -10.199 -10.190
-10.188 -10.185 -10.184 -10.181 -10.180 -10.180 -10.175 -10.174
-10.171 -10.169 -10.166 -10.166  -8.042  -8.039  -7.991  -7.986
 -7.984  -7.977  -7.970  -7.967  -6.008  -6.004  -6.002  -6.000
 -5.998  -5.997  -5.955  -5.951  -5.951  -5.948  -5.947  -5.947
 -5.944  -5.943  -5.941  -5.941  -5.937  -5.934  -5.933  -5.931
 -5.931  -5.928  -5.926  -5.923  -1.036  -1.021  -0.975  -0.972
 -0.961  -0.961  -0.928  -0.920  -0.920  -0.910  -0.896  -0.890
 -0.849  -0.840  -0.828  -0.824  -0.815  -0.810  -0.809  -0.809
 -0.807  -0.799  -0.796  -0.792  -0.779  -0.775  -0.766  -0.764
 -0.749  -0.749  -0.743  -0.738  -0.730  -0.716  -0.711  -0.707
 -0.694  -0.692  -0.681  -0.671  -0.650  -0.650  -0.644  -0.643
 -0.635  -0.631  -0.626  -0.622  -0.607  -0.604  -0.599  -0.592
 -0.591  -0.587  -0.585  -0.584  -0.580  -0.577  -0.574  -0.557
 -0.553  -0.547  -0.542  -0.540  -0.522  -0.522  -0.515  -0.511
 -0.503  -0.501  -0.500  -0.493  -0.485  -0.479  -0.477  -0.475
 -0.472  -0.466  -0.463  -0.462  -0.458  -0.456  -0.450  -0.448
 -0.444  -0.444  -0.440  -0.436  -0.435  -0.433  -0.429  -0.429
 -0.426  -0.425  -0.422  -0.418  -0.418  -0.415  -0.414  -0.412
 -0.411  -0.411  -0.404  -0.403  -0.402  -0.400  -0.397  -0.394
 -0.393  -0.391  -0.389  -0.387  -0.385  -0.385  -0.384  -0.383
 -0.379  -0.376  -0.370  -0.369  -0.364  -0.361  -0.356  -0.355
 -0.352  -0.349  -0.348  -0.348  -0.346  -0.342  -0.341  -0.339
 -0.337  -0.333  -0.332  -0.331  -0.328  -0.325  -0.323  -0.320
 -0.318  -0.306  -0.304  -0.302  -0.302  -0.301  -0.299  -0.298
 -0.294  -0.293  -0.292  -0.291  -0.286  -0.284  -0.281  -0.280
 -0.277  -0.264  -0.262  -0.261  -0.255  -0.254  -0.249  -0.247
 -0.246  -0.241  -0.231  -0.229  -0.197  -0.188

          Ground-State Mulliken Net Atomic Charges

     Atom                 Charge (a.u.)
  ----------------------------------------
      1 C                     0.273068
      2 C                    -0.124517
      3 N                    -0.497119
      4 C                    -0.070023
      5 C                     0.056933
      6 C                     0.056530
      7 C                     0.016726
      8 C                     0.047763
      9 C                     0.214518
     10 N                    -0.552650
     11 N                    -0.576919
     12 C                     0.202716
     13 C                     0.372055
     14 S                     0.643985
     15 N                    -0.583291
     16 C                    -0.219725
     17 S                     0.327376
     18 C                    -0.129376
     19 C                    -0.253655
     20 S                     0.287002
     21 C                     0.196884
     22 C                     0.059947
     23 C                    -0.311971
     24 C                    -0.071821
     25 N                    -0.437441
     26 S                     0.278375
     27 C                     0.137075
     28 C                    -0.311010
     29 C                    -0.226221
     30 H                     0.081659
     31 H                     0.101506
     32 H                     0.122466
     33 H                     0.117353
     34 H                     0.122195
     35 H                     0.126255
     36 H                     0.102026
     37 H                     0.134893
     38 H                     0.105300
     39 C                    -0.187336
     40 H                     0.126229
     41 H                     0.092038
     42 H                     0.109506
     43 C                    -0.170626
     44 H                     0.096561
     45 C                    -0.179851
     46 H                     0.101496
     47 H                     0.092952
     48 H                     0.093267
     49 C                    -0.181869
     50 H                     0.094184
     51 C                    -0.325753
     52 H                     0.098661
     53 H                     0.095131
     54 H                     0.101352
     55 H                     0.099674
     56 C                     0.269285
     57 C                    -0.110865
     58 N                    -0.483594
     59 C                    -0.111796
     60 C                     0.090994
     61 C                     0.039242
     62 C                     0.014362
     63 C                     0.073178
     64 C                     0.229396
     65 N                    -0.523971
     66 N                    -0.571949
     67 C                     0.281818
     68 C                     0.304328
     69 S                     0.598808
     70 N                    -0.601897
     71 C                    -0.226026
     72 S                     0.343313
     73 C                    -0.099244
     74 C                    -0.237651
     75 S                     0.281205
     76 C                     0.141329
     77 C                     0.091338
     78 C                    -0.305107
     79 C                    -0.058034
     80 N                    -0.457241
     81 S                     0.270612
     82 C                     0.114743
     83 C                    -0.303648
     84 C                    -0.240979
     85 H                     0.099370
     86 H                     0.112925
     87 H                     0.121322
     88 H                     0.109295
     89 H                     0.132362
     90 H                     0.130629
     91 H                     0.119828
     92 H                     0.129577
     93 H                     0.102796
     94 C                    -0.146059
     95 H                     0.115232
     96 H                     0.110249
     97 H                     0.101653
     98 C                    -0.187261
     99 H                     0.080118
    100 C                    -0.176163
    101 H                     0.080299
    102 H                     0.090835
    103 H                     0.086734
    104 C                    -0.170526
    105 H                     0.099799
    106 C                    -0.321717
    107 H                     0.095262
    108 H                     0.095262
    109 H                     0.102789
    110 H                     0.098959
  ----------------------------------------
  Sum of atomic charges =     0.000000

                    Cartesian Multipole Moments
 -----------------------------------------------------------------
    Charge (ESU x 10^10)
                 0.0000
    Dipole Moment (Debye)
         X       2.5356      Y       0.3178      Z      -0.3341
       Tot       2.5771
    Quadrupole Moments (Debye-Ang)
        XX    -369.8637     XY     -10.8372     YY    -459.3909
        XZ       6.3343     YZ      -1.1332     ZZ    -437.4721

 Total job time:  101.97s(wall), 1092.12s(cpu)
        *  Thank you very much for using Q-Chem.  Have a nice day.  *
