 Q-Chem 4.4, Q-Chem, Inc., Pleasanton, CA (2016)
 Q-Chem 4.4.2 for Intel X86 Linux

User input:
--------------------------------------------------------------
$comment
SP
$end

$rem
MEM_STATIC 5000
MEM_TOTAL 20000
JOBTYPE SP
EXCHANGE B3LYP
BASIS 6-31g(d,p)
$end

$molecule
0 1
C         -22.788000      4.834000    -11.896000
C         -24.117000      4.428000    -12.071000
N         -22.507000      5.984000    -11.261000
C         -25.168000      5.163000    -11.632000
C         -23.504000      6.795000    -10.889000
C         -24.837000      6.415000    -11.005000
C         -25.966000      7.344000    -10.643000
C         -27.132000      7.317000    -11.437000
C         -25.997000      8.233000     -9.595000
N         -28.199000      8.094000    -11.181000
N         -24.912000      8.355000     -8.768000
C         -27.042000      9.015000     -9.297000
C         -28.195000      8.978000    -10.135000
S         -25.394000      9.396000     -7.616000
N         -26.805000      9.907000     -8.253000
C         -29.539000      9.552000     -9.940000
S         -30.754000      9.436000    -11.290000
C         -30.212000     10.003000     -8.823000
C         -32.047000      9.929000    -10.219000
S         -29.541000     10.377000     -7.300000
C         -31.561000     10.228000     -9.021000
C         -33.454000     10.017000    -10.577000
C         -31.208000     10.774000     -6.790000
C         -32.143000     10.747000     -7.842000
N         -34.347000     10.008000     -9.594000
S         -34.033000      9.953000    -12.210000
C         -35.640000      9.994000    -10.182000
C         -35.624000      9.921000    -11.516000
C         -21.629000      4.114000    -12.515000
H         -24.299000      3.471000    -12.550000
H         -26.201000      4.832000    -11.695000
H         -23.269000      7.770000    -10.464000
H         -27.221000      6.707000    -12.335000
H         -31.396000     11.084000     -5.771000
H         -33.193000     10.917000     -7.632000
H         -36.486000     10.059000     -9.509000
H         -36.469000      9.859000    -12.188000
H         -20.778000      4.113000    -11.822000
C         -21.274000      4.718000    -13.867000
H         -21.940000      3.064000    -12.578000
H         -20.787000      5.667000    -13.612000
H         -22.237000      4.936000    -14.345000
C         -20.535000      3.778000    -14.806000
H         -19.720000      3.210000    -14.340000
C         -19.985000      4.598000    -16.038000
H         -21.273000      3.040000    -15.142000
H         -20.734000      5.218000    -16.546000
H         -19.736000      3.861000    -16.811000
C         -18.784000      5.482000    -15.917000
H         -18.799000      6.143000    -16.792000
C         -17.497000      4.620000    -15.888000
H         -18.801000      6.135000    -15.036000
H         -17.360000      4.082000    -16.834000
H         -17.481000      4.011000    -14.976000
H         -16.693000      5.365000    -15.850000
C         -26.428000     19.421000     -5.278000
C         -25.040000     19.522000     -5.046000
N         -27.105000     18.259000     -5.213000
C         -24.301000     18.339000     -4.942000
C         -26.392000     17.101000     -5.160000
C         -24.991000     17.064000     -5.064000
C         -24.283000     15.807000     -4.723000
C         -23.262000     15.604000     -3.765000
C         -24.688000     14.606000     -5.413000
N         -22.764000     14.373000     -3.447000
N         -25.661000     14.580000     -6.422000
C         -24.086000     13.414000     -5.151000
C         -23.070000     13.289000     -4.174000
S         -25.837000     13.052000     -6.876000
N         -24.720000     12.404000     -5.830000
C         -22.411000     12.115000     -3.760000
S         -21.967000     11.798000     -2.067000
C         -22.267000     10.970000     -4.511000
C         -21.773000     10.052000     -2.368000
S         -22.303000     10.605000     -6.247000
C         -21.969000      9.835000     -3.714000
C         -21.327000      9.131000     -1.359000
C         -21.976000      8.887000     -5.815000
C         -21.854000      8.670000     -4.473000
N         -21.539000      7.840000     -1.556000
S         -20.605000      9.622000      0.116000
C         -21.025000      7.154000     -0.496000
C         -20.634000      7.922000      0.565000
C         -27.283000     20.647000     -5.626000
H         -24.529000     20.474000     -4.936000
H         -23.252000     18.338000     -4.659000
H         -27.005000     16.201000     -5.192000
H         -22.953000     16.436000     -3.134000
H         -21.877000      8.170000     -6.620000
H         -21.593000      7.696000     -4.076000
H         -21.243000      6.115000     -0.287000
H         -20.161000      7.525000      1.453000
H         -26.780000     21.171000     -6.448000
C         -27.618000     21.574000     -4.485000
H         -28.287000     20.311000     -5.916000
H         -27.749000     21.101000     -3.504000
H         -28.586000     22.030000     -4.729000
C         -26.498000     22.655000     -4.269000
H         -25.544000     22.157000     -4.055000
C         -26.984000     23.606000     -3.149000
H         -26.352000     23.242000     -5.184000
H         -27.056000     22.988000     -2.246000
H         -27.969000     24.054000     -3.329000
C         -25.949000     24.699000     -2.706000
H         -25.043000     24.084000     -2.634000
C         -26.523000     25.347000     -1.448000
H         -25.771000     25.446000     -3.489000
H         -25.857000     26.119000     -1.043000
H         -26.741000     24.636000     -0.642000
H         -27.393000     25.945000     -1.744000
$end

--------------------------------------------------------------

             Standard Nuclear Orientation (Angstroms)
    I     Atom           X                Y                Z
 ----------------------------------------------------------------
    1      C       8.0899401612    -1.7907927357     1.0930577891
    2      C       8.4059050548    -0.6011487044     0.4247649905
    3      N       6.8106740734    -2.0986222470     1.3639918561
    4      C       7.4613926442     0.2903451957     0.0365872836
    5      C       5.8448874914    -1.2146480828     1.0883835198
    6      C       6.1063757770    -0.0409445205     0.3892491806
    7      C       5.0366140716     0.9861663361     0.1258498984
    8      C       5.3943453313     2.3499343297     0.1795733159
    9      C       3.7182861919     0.7426949104    -0.1779909587
   10      N       4.5145991677     3.3379904134    -0.0603138723
   11      N       3.2564187233    -0.5452435508    -0.2406883403
   12      C       2.8131540469     1.6947682520    -0.4361481828
   13      C       3.2046098269     3.0631159092    -0.3500722784
   14      S       1.7148510346    -0.4005590754    -0.7364145384
   15      N       1.5181965508     1.2135139438    -0.6184895503
   16      C       2.5024155192     4.2882202837    -0.7741942254
   17      S       3.2364993537     5.9074148703    -0.3849503240
   18      C       1.4525398700     4.5138954481    -1.6407107234
   19      C       2.1224731275     6.7144262279    -1.4664387595
   20      S       0.3610300482     3.3566585210    -2.2563851533
   21      C       1.2562076956     5.8424236201    -1.9664354129
   22      C       2.1229334665     8.1360668001    -1.7738389412
   23      C      -0.3967598209     4.7108850938    -3.1443169659
   24      C       0.1237566032     5.9733020821    -2.8022292580
   25      N       1.5090362671     8.5321553586    -2.8829210312
   26      S       3.0262224960     9.3107163399    -0.8736759627
   27      C       1.7310812252     9.9277162740    -3.0274712571
   28      C       2.5293105940    10.4458217101    -2.0896345805
   29      C       9.1308941159    -2.7027460356     1.6671640887
   30      H       9.4477691820    -0.4116028686     0.1860067098
   31      H       7.6794714319     1.1824475657    -0.5441140199
   32      H       4.8225794866    -1.4263884381     1.3990720541
   33      H       6.3879453477     2.6888589918     0.4699421861
   34      H      -1.2328281136     4.5174553751    -3.8026328126
   35      H      -0.2257743510     6.8576109401    -3.3231188391
   36      H       1.2310715265    10.4215370878    -3.8514866120
   37      H       2.8770548064    11.4661262855    -2.0030000823
   38      H       8.8243284332    -3.7481472185     1.5344808231
   39      C       9.4076041445    -2.3610902284     3.1250556722
   40      H      10.0088838652    -2.5842077601     1.0204240502
   41      H       8.5229231894    -2.7335552908     3.6555312938
   42      H       9.4056825020    -1.2649334409     3.1676421076
   43      C      10.7705390619    -2.8050898567     3.6317259211
   44      H      11.0562442192    -3.8257201014     3.3476634868
   45      C      10.8191169794    -2.6488857328     5.2020648837
   46      H      11.5028152766    -2.1374744921     3.1624229589
   47      H      10.5192990173    -1.6609829265     5.5730395928
   48      H      11.8788609548    -2.6861391956     5.4818038442
   49      C      10.1253023758    -3.6173310260     6.1071797990
   50      H      10.0588218702    -3.1293215228     7.0870767666
   51      C      10.9376427120    -4.9338976419     6.1909026996
   52      H       9.0960754087    -3.8467976930     5.8056903315
   53      H      11.9179770505    -4.7649640308     6.6530011955
   54      H      10.9406712250    -5.4287332822     5.2121230936
   55      H      10.3698639946    -5.5375447478     6.9093193611
   56      C      -7.9795820900     1.3420867233     2.4285778810
   57      C      -8.0688941548     0.0223856845     2.9194765704
   58      N      -7.1116682300     1.7161854231     1.4696338292
   59      C      -7.0801346640    -0.8909599390     2.5392392214
   60      C      -6.1177843736     0.8513877424     1.1283687541
   61      C      -6.0164556928    -0.4487573704     1.6506150407
   62      C      -5.0998802552    -1.4443181586     1.0453529616
   63      C      -5.3702086788    -2.7859756183     0.6871745088
   64      C      -3.7589108888    -1.0120016529     0.7332158168
   65      N      -4.4810298259    -3.5795172371     0.0207349639
   66      N      -3.2663104043     0.2670363271     1.0279913386
   67      C      -2.8619846822    -1.8688687654     0.1735604483
   68      C      -3.2079189545    -3.2000245945    -0.1592512668
   69      S      -1.7642406888     0.3400244120     0.4709138672
   70      N      -1.7056728909    -1.2022452522    -0.1452704363
   71      C      -2.4047829185    -4.1668802836    -0.7949521276
   72      S      -3.0371755010    -5.3125576579    -1.9996832078
   73      C      -1.0281329631    -4.1912613186    -0.7933820014
   74      C      -1.4061347717    -5.6719355302    -2.6220228934
   75      S       0.2295138309    -3.5138934632     0.2590980839
   76      C      -0.5005853975    -4.9845769238    -1.8443729227
   77      C      -1.1599868488    -6.6465855061    -3.6490119998
   78      C       1.4445030199    -4.2870494136    -0.8230794187
   79      C       0.8945049443    -4.9832594340    -1.8602538131
   80      N       0.0005368708    -6.6045200599    -4.2829277628
   81      S      -2.3175197081    -7.8091736401    -4.1454961486
   82      C       0.0296741886    -7.6193479470    -5.1926900264
   83      C      -1.1582551001    -8.2673587507    -5.3859049413
   84      C      -8.8795610177     2.4666411748     2.9583138673
   85      H      -8.8739137375    -0.3117608850     3.5674075402
   86      H      -7.1429327228    -1.9460286713     2.7909878536
   87      H      -5.4079357093     1.2541664198     0.4067890906
   88      H      -6.3811097347    -3.1734688090     0.8046227202
   89      H       2.4920878986    -4.1733852707    -0.5749637510
   90      H       1.5060610855    -5.5514594807    -2.5513064833
   91      H       0.7566224902    -7.6933238642    -5.9906873512
   92      H      -1.2774420242    -9.1240627774    -6.0353159728
   93      H      -8.8159814975     2.4449784297     4.0531916551
   94      C     -10.3075559818     2.4640510860     2.4743111049
   95      H      -8.5294870653     3.4246923781     2.5526069291
   96      H     -10.4683550651     2.0966697280     1.4533186502
   97      H     -10.6364225808     3.5111092076     2.4708397894
   98      C     -11.2243056097     1.5641256626     3.3794748205
   99      H     -10.8452898229     0.5344396028     3.3763681098
  100      C     -12.6739360481     1.7095590043     2.8575382964
  101      H     -11.1931398162     1.9112540758     4.4194943193
  102      H     -12.6662430190     1.2956002326     1.8421093463
  103      H     -13.0329932784     2.7442599811     2.7958877169
  104      C     -13.7334270982     0.7950610095     3.5669712617
  105      H     -13.1832552628    -0.1542878941     3.5840771302
  106      C     -15.0157424437     0.9092917846     2.7456536101
  107      H     -13.9049656278     1.0878689272     4.6098615034
  108      H     -15.8206490748     0.2839450037     3.1514019544
  109      H     -14.8902796662     0.6492603086     1.6876726448
  110      H     -15.4250067705     1.9149739369     2.8980547891
 ----------------------------------------------------------------

   10   -5663.5076357954      4.16E-06 Convergence criterion met
 Total energy in the final basis set = -5663.5076357954

                    Orbital Energies (a.u.)
 --------------------------------------------------------------

 Alpha MOs
 -- Occupied --
-88.991 -88.990 -88.929 -88.925 -88.921 -88.915 -88.911 -88.906
-14.388 -14.378 -14.377 -14.375 -14.347 -14.345 -14.342 -14.341
-14.328 -14.324 -10.267 -10.266 -10.264 -10.256 -10.255 -10.252
-10.251 -10.247 -10.240 -10.240 -10.239 -10.235 -10.235 -10.232
-10.232 -10.230 -10.228 -10.226 -10.226 -10.226 -10.226 -10.226
-10.225 -10.224 -10.224 -10.222 -10.220 -10.218 -10.217 -10.216
-10.212 -10.210 -10.207 -10.202 -10.197 -10.194 -10.193 -10.192
-10.183 -10.181 -10.181 -10.181 -10.180 -10.179 -10.179 -10.176
-10.175 -10.174 -10.172 -10.170  -8.045  -8.044  -7.990  -7.987
 -7.980  -7.974  -7.971  -7.967  -6.010  -6.009  -6.005  -6.004
 -6.003  -6.003  -5.954  -5.951  -5.951  -5.948  -5.947  -5.945
 -5.944  -5.941  -5.939  -5.937  -5.935  -5.935  -5.932  -5.931
 -5.931  -5.928  -5.927  -5.923  -1.037  -1.026  -0.975  -0.963
 -0.956  -0.953  -0.940  -0.933  -0.915  -0.909  -0.897  -0.882
 -0.843  -0.841  -0.831  -0.831  -0.812  -0.810  -0.809  -0.807
 -0.807  -0.807  -0.797  -0.797  -0.788  -0.783  -0.769  -0.767
 -0.752  -0.751  -0.743  -0.742  -0.722  -0.718  -0.713  -0.710
 -0.696  -0.691  -0.673  -0.671  -0.657  -0.651  -0.645  -0.642
 -0.639  -0.633  -0.625  -0.623  -0.613  -0.611  -0.596  -0.595
 -0.589  -0.587  -0.585  -0.581  -0.580  -0.576  -0.574  -0.555
 -0.554  -0.554  -0.543  -0.539  -0.520  -0.518  -0.512  -0.509
 -0.508  -0.506  -0.501  -0.500  -0.485  -0.482  -0.478  -0.477
 -0.475  -0.469  -0.468  -0.464  -0.463  -0.462  -0.448  -0.447
 -0.442  -0.441  -0.439  -0.436  -0.434  -0.433  -0.429  -0.429
 -0.427  -0.425  -0.424  -0.423  -0.422  -0.419  -0.417  -0.415
 -0.412  -0.408  -0.404  -0.404  -0.401  -0.400  -0.398  -0.395
 -0.394  -0.392  -0.390  -0.388  -0.386  -0.385  -0.384  -0.381
 -0.379  -0.375  -0.373  -0.373  -0.371  -0.369  -0.361  -0.358
 -0.354  -0.353  -0.348  -0.345  -0.345  -0.343  -0.339  -0.338
 -0.338  -0.337  -0.332  -0.330  -0.327  -0.326  -0.325  -0.321
 -0.319  -0.313  -0.306  -0.305  -0.302  -0.301  -0.299  -0.297
 -0.294  -0.291  -0.288  -0.287  -0.286  -0.284  -0.283  -0.281
 -0.274  -0.273  -0.267  -0.264  -0.255  -0.254  -0.252  -0.245
 -0.244  -0.240  -0.231  -0.230  -0.193  -0.190

          Ground-State Mulliken Net Atomic Charges

     Atom                 Charge (a.u.)
  ----------------------------------------
      1 C                     0.261101
      2 C                    -0.119696
      3 N                    -0.486787
      4 C                    -0.063898
      5 C                     0.091991
      6 C                     0.029672
      7 C                     0.025696
      8 C                     0.058381
      9 C                     0.222807
     10 N                    -0.510222
     11 N                    -0.559028
     12 C                     0.205735
     13 C                     0.264762
     14 S                     0.658676
     15 N                    -0.572765
     16 C                    -0.235048
     17 S                     0.296927
     18 C                    -0.110045
     19 C                    -0.236666
     20 S                     0.280909
     21 C                     0.190077
     22 C                     0.065225
     23 C                    -0.309680
     24 C                    -0.065799
     25 N                    -0.445511
     26 S                     0.273682
     27 C                     0.125045
     28 C                    -0.304568
     29 C                    -0.221907
     30 H                     0.082459
     31 H                     0.108823
     32 H                     0.117175
     33 H                     0.113412
     34 H                     0.122505
     35 H                     0.130813
     36 H                     0.116429
     37 H                     0.129853
     38 H                     0.114648
     39 C                    -0.161324
     40 H                     0.086249
     41 H                     0.117916
     42 H                     0.096323
     43 C                    -0.180713
     44 H                     0.093737
     45 C                    -0.171930
     46 H                     0.094844
     47 H                     0.082499
     48 H                     0.081033
     49 C                    -0.175094
     50 H                     0.092632
     51 C                    -0.314240
     52 H                     0.095180
     53 H                     0.103841
     54 H                     0.107798
     55 H                     0.096974
     56 C                     0.265869
     57 C                    -0.109502
     58 N                    -0.477067
     59 C                    -0.087504
     60 C                     0.100600
     61 C                     0.032756
     62 C                     0.029047
     63 C                     0.052662
     64 C                     0.193354
     65 N                    -0.523411
     66 N                    -0.547067
     67 C                     0.235065
     68 C                     0.302184
     69 S                     0.644004
     70 N                    -0.589530
     71 C                    -0.236702
     72 S                     0.300930
     73 C                    -0.089758
     74 C                    -0.219128
     75 S                     0.262061
     76 C                     0.143914
     77 C                     0.056055
     78 C                    -0.319432
     79 C                    -0.038175
     80 N                    -0.425613
     81 S                     0.275486
     82 C                     0.111205
     83 C                    -0.295839
     84 C                    -0.229039
     85 H                     0.094907
     86 H                     0.100457
     87 H                     0.120576
     88 H                     0.110746
     89 H                     0.142720
     90 H                     0.129729
     91 H                     0.113740
     92 H                     0.128837
     93 H                     0.105739
     94 C                    -0.175260
     95 H                     0.117362
     96 H                     0.105246
     97 H                     0.097339
     98 C                    -0.186309
     99 H                     0.089634
    100 C                    -0.171624
    101 H                     0.090008
    102 H                     0.091100
    103 H                     0.091252
    104 C                    -0.177600
    105 H                     0.089641
    106 C                    -0.315322
    107 H                     0.091146
    108 H                     0.095128
    109 H                     0.106017
    110 H                     0.106458
  ----------------------------------------
  Sum of atomic charges =     0.000000

                    Cartesian Multipole Moments
 -----------------------------------------------------------------
    Charge (ESU x 10^10)
                 0.0000
    Dipole Moment (Debye)
         X       0.5277      Y       0.2119      Z      -0.5431
       Tot       0.7863
    Quadrupole Moments (Debye-Ang)
        XX    -401.9047     XY       8.3402     YY    -404.5609
        XZ      -8.1701     YZ      10.1946     ZZ    -429.4099

 Total job time:  95.44s(wall), 1022.40s(cpu)
        *  Thank you very much for using Q-Chem.  Have a nice day.  *
