 Q-Chem 4.4, Q-Chem, Inc., Pleasanton, CA (2016)
 Q-Chem 4.4.2 for Intel X86 Linux

User input:
--------------------------------------------------------------
$comment
SP
$end

$rem
MEM_STATIC 5000
MEM_TOTAL 20000
JOBTYPE SP
EXCHANGE B3LYP
BASIS 6-31g(d,p)
$end

$molecule
0 1
C           2.241000     18.856000     10.678000
C           3.570000     19.191000     10.754000
N           1.723000     18.268000      9.609000
C           4.441000     19.018000      9.700000
C           2.505000     17.939000      8.607000
C           3.864000     18.345000      8.551000
C           4.750000     17.919000      7.451000
C           6.040000     17.460000      7.664000
C           4.439000     18.010000      6.089000
N           6.887000     16.921000      6.703000
N           3.253000     18.485000      5.672000
C           5.322000     17.608000      5.082000
C           6.562000     17.011000      5.440000
S           3.266000     18.360000      4.063000
N           4.750000     17.717000      3.848000
C           7.647000     16.519000      4.571000
S           9.015000     15.631000      5.263000
C           8.063000     16.959000      3.348000
C           9.886000     15.554000      3.688000
S           7.378000     18.203000      2.383000
C           9.327000     16.449000      2.860000
C          11.151000     15.000000      3.552000
C           8.644000     17.926000      1.206000
C           9.539000     16.923000      1.579000
N          11.801000     15.030000      2.432000
S          11.976000     14.379000      5.006000
C          13.047000     14.472000      2.591000
C          13.272000     13.979000      3.863000
C           1.254000     19.160000     11.854000
H           3.910000     19.669000     11.668000
H           5.500000     19.220000      9.829000
H           2.083000     17.512000      7.698000
H           6.369000     17.350000      8.697000
H           8.520000     18.305000      0.200000
H          10.426000     16.656000      1.016000
H          13.751000     14.457000      1.769000
H          14.127000     13.456000      4.271000
H           1.659000     19.968000     12.477000
C           0.857000     17.983000     12.724000
H           0.352000     19.361000     11.262000
H           1.715000     17.685000     13.340000
H           0.718000     17.184000     11.986000
C          -0.316000     18.265000     13.653000
H          -0.247000     19.199000     14.225000
C          -0.708000     17.063000     14.593000
H          -1.151000     18.505000     12.984000
H          -0.564000     16.094000     14.099000
H          -1.747000     17.059000     14.945000
C           0.115000     17.079000     15.901000
H           1.175000     17.251000     15.676000
C          -0.029000     15.768000     16.792000
H          -0.248000     17.939000     16.477000
H          -1.009000     15.801000     17.285000
H           0.642000     15.822000     17.657000
H           0.118000     14.822000     16.256000
C          11.543000     11.175000      1.142000
C          10.419000     11.428000      0.352000
N          11.504000     11.482000      2.480000
C           9.239000     11.872000      0.926000
C          10.393000     11.826000      3.032000
C           9.203000     12.102000      2.347000
C           7.943000     12.547000      3.004000
C           7.068000     13.538000      2.438000
C           7.370000     11.847000      4.088000
N           5.884000     13.910000      2.885000
N           8.023000     10.961000      4.804000
C           6.150000     12.283000      4.644000
C           5.456000     13.333000      4.048000
S           6.952000     10.483000      5.979000
N           5.775000     11.545000      5.731000
C           4.235000     13.886000      4.567000
S           2.808000     14.371000      3.642000
C           3.995000     14.096000      5.869000
C           1.970000     14.942000      5.097000
S           5.048000     14.047000      7.237000
C           2.798000     14.769000      6.181000
C           0.557000     15.448000      5.185000
C           3.780000     14.614000      8.254000
C           2.631000     14.930000      7.545000
N          -0.243000     15.164000      4.169000
S          -0.063000     16.580000      6.370000
C          -1.431000     15.792000      4.293000
C          -1.557000     16.618000      5.425000
C          12.796000     10.612000      0.562000
H          10.441000     11.223000     -0.714000
H           8.386000     12.056000      0.279000
H          10.430000     11.950000      4.114000
H           7.450000     14.006000      1.532000
H           3.909000     14.550000      9.326000
H           1.734000     15.334000      8.001000
H          -2.195000     15.828000      3.528000
H          -2.394000     17.272000      5.636000
H          12.750000     10.476000     -0.526000
C          13.031000      9.126000      0.869000
H          13.666000     11.224000      0.828000
H          12.321000      8.518000      0.295000
H          12.765000      8.929000      1.915000
C          14.422000      8.635000      0.499000
H          14.522000      8.883000     -0.565000
C          14.401000      7.076000      0.595000
H          15.127000      9.230000      1.092000
H          13.687000      6.801000     -0.191000
H          14.068000      6.725000      1.579000
C          15.755000      6.484000      0.222000
H          16.249000      6.986000     -0.619000
C          15.739000      5.053000      0.000000
H          16.438000      6.791000      1.024000
H          15.416000      4.514000      0.899000
H          16.760000      4.748000     -0.259000
H          15.170000      4.756000     -0.890000
$end

--------------------------------------------------------------

             Standard Nuclear Orientation (Angstroms)
    I     Atom           X                Y                Z
 ----------------------------------------------------------------
    1      C      -7.5612274741     0.6106296141    -1.9312105517
    2      C      -6.7892808094     0.7023362553    -3.0625505709
    3      N      -7.0982094668     0.0915684317    -0.8029291977
    4      C      -5.5119697388     0.1895996881    -3.1337098390
    5      C      -5.8467085643    -0.2993825121    -0.7345782614
    6      C      -5.0113411042    -0.3459069329    -1.8812472132
    7      C      -3.5899160576    -0.7285268472    -1.7831409545
    8      C      -2.5815057836    -0.0346543865    -2.4326020601
    9      C      -3.1079549889    -1.8612093453    -1.1162152565
   10      N      -1.2158522440    -0.2486746160    -2.2889470882
   11      N      -3.9367895855    -2.6980344569    -0.4690159486
   12      C      -1.7498029709    -2.1903305908    -1.0667753751
   13      C      -0.7976757239    -1.3094712150    -1.6496248116
   14      S      -2.9941813894    -3.8163196647     0.2133351214
   15      N      -1.5334175622    -3.2879068399    -0.2855425465
   16      C       0.6689101951    -1.4402765542    -1.7300344216
   17      S       1.6549578744    -0.1003091662    -2.3391562264
   18      C       1.4490149110    -2.5559843144    -1.8249966575
   19      C       3.1761125096    -1.0631269004    -2.2738447681
   20      S       0.9517271902    -4.1991126637    -1.7963583879
   21      C       2.8438222855    -2.3574628072    -2.1582257067
   22      C       4.3979752206    -0.5736588622    -2.7132870908
   23      C       2.6251108589    -4.6631758777    -2.0182737561
   24      C       3.4942500673    -3.5763923756    -2.1165674789
   25      N       5.4654948286    -1.3067378755    -2.7415191101
   26      S       4.4623133458     1.0625702556    -3.4196842027
   27      C       6.5140823120    -0.5981561227    -3.2777440529
   28      C       6.1912871272     0.7080765295    -3.5958910741
   29      C      -9.0447602989     1.1089736716    -1.9126482775
   30      H      -7.2486557457     1.1426640824    -3.9426449253
   31      H      -4.9065116729     0.3552306776    -4.0196629448
   32      H      -5.4709015319    -0.7839252695     0.1658002094
   33      H      -2.8624871550     0.8680510629    -2.9744529071
   34      H       2.9239012777    -5.6791754948    -1.7957382226
   35      H       4.5547848029    -3.6597124865    -2.3247761091
   36      H       7.4767660100    -1.0700120274    -3.4264622522
   37      H       6.8072829974     1.5068318582    -3.9877545870
   38      H      -9.4393043585     1.1335255530    -2.9367333277
   39      C      -9.3030823424     2.4356798209    -1.2249284834
   40      H      -9.4563168361     0.3698283112    -1.2135385916
   41      H      -8.8948544469     3.2464575451    -1.8417051589
   42      H      -8.6580147361     2.3694096522    -0.3406988481
   43      C     -10.7760468790     2.7289254911    -0.9741767116
   44      H     -11.4384518331     2.5719715519    -1.8349241412
   45      C     -11.0583578661     4.1247712619    -0.3003940383
   46      H     -11.1139406157     1.9199640157    -0.3155454384
   47      H     -10.2703056240     4.4021954610     0.4107616953
   48      H     -11.9970806916     4.1952996764     0.2628698426
   49      C     -11.1879565383     5.2447367684    -1.3574325657
   50      H     -10.3753839123     5.1655787130    -2.0904187387
   51      C     -11.2183435759     6.7201229954    -0.7610684916
   52      H     -12.1319012402     5.0570990428    -1.8836506609
   53      H     -12.2075111623     6.8832777540    -0.3144523131
   54      H     -11.2313753735     7.4567814224    -1.5725772927
   55      H     -10.4149988399     6.9520768183    -0.0506772900
   56      C       7.6332358231     0.1451454320     0.3865190678
   57      C       7.1479018406    -0.8165566577     1.2759374260
   58      N       6.7422861750     0.9400775186    -0.2919392599
   59      C       5.7947556641    -0.8930048048     1.5625785013
   60      C       5.4935936329     0.9240274831     0.0209030828
   61      C       4.8934999096     0.0136126173     0.8998418153
   62      C       3.4369508117    -0.0165323269     1.2077866281
   63      C       2.6928729058    -1.2359118289     1.3736893104
   64      C       2.7309858909     1.1321433081     1.6267649285
   65      N       1.4370729496    -1.3618748851     1.7572890737
   66      N       3.1883395320     2.3547719077     1.4851035207
   67      C       1.3623070913     1.0398802615     1.9520922619
   68      C       0.7397082821    -0.2056626096     1.9706847029
   69      S       1.9792045026     3.3362133355     2.0603558170
   70      N       0.8134841836     2.2521698897     2.2619071637
   71      C      -0.6594785113    -0.4004668130     2.2358990305
   72      S      -1.3883028188    -1.6678876482     3.2307048182
   73      C      -1.6339699686     0.3919108369     1.7674888900
   74      C      -3.0312798751    -1.1040194542     2.8729492420
   75      S      -1.6030152463     1.6412665031     0.5755215145
   76      C      -2.9539933724    -0.0295146951     2.0185281986
   77      C      -4.3129174910    -1.6263690903     3.4602352702
   78      C      -3.3143308023     1.8003015841     0.6740553201
   79      C      -3.8888868577     0.8541068317     1.5091234788
   80      N      -4.2118531548    -2.3529328400     4.5624163431
   81      S      -5.8911618772    -1.5815148035     2.7005104842
   82      C      -5.4033598062    -2.8842024866     4.9076241967
   83      C      -6.4661804842    -2.5908456463     4.0335933216
   84      C       9.0930891686     0.3068179834     0.1294817249
   85      H       7.8342753659    -1.4768804095     1.7972136738
   86      H       5.4558154865    -1.6531475906     2.2607020585
   87      H       4.8755734306     1.6590916833    -0.4940732771
   88      H       3.2631937894    -2.1393440854     1.1631465647
   89      H      -3.7802799362     2.6652463625     0.2216363385
   90      H      -4.9566825690     0.7681909492     1.6770275589
   91      H      -5.5504344166    -3.6211665870     5.6857437079
   92      H      -7.4636961257    -3.0080425965     4.0945461699
   93      H       9.7130415106    -0.4267432945     0.6604270566
   94      C       9.7296877999     1.5292566620     0.8062799664
   95      H       9.3122937733     0.2773311543    -0.9444269622
   96      H       9.7923702612     1.3563487115     1.8876743208
   97      H       9.0504624254     2.3857576920     0.7127926612
   98      C      11.1432742846     1.8274831976     0.3312050420
   99      H      11.6910381832     0.8938664526     0.5098512980
  100      C      11.7421680198     2.8911510088     1.3059229915
  101      H      11.0721608804     2.0219364947    -0.7457489027
  102      H      11.7755293188     2.3465690174     2.2575187452
  103      H      11.1144506407     3.7872194080     1.3792599943
  104      C      13.1739388613     3.2447304798     0.9213156398
  105      H      13.7748084943     2.3890632460     0.5894869653
  106      C      13.8955934461     3.9902819459     1.9315971212
  107      H      13.0958316763     3.7749993694    -0.0361059874
  108      H      13.4019272009     4.9449043597     2.1507789760
  109      H      14.9026093607     4.1831794998     1.5426800590
  110      H      14.0996108425     3.4093222129     2.8398551741
 ----------------------------------------------------------------

   10   -5663.4993831388      6.87E-06 Convergence criterion met
 Total energy in the final basis set = -5663.4993831388

                    Orbital Energies (a.u.)
 --------------------------------------------------------------

 Alpha MOs
 -- Occupied --
-88.985 -88.984 -88.928 -88.920 -88.913 -88.910 -88.903 -88.902
-14.382 -14.381 -14.373 -14.372 -14.347 -14.346 -14.339 -14.334
-14.329 -14.320 -10.270 -10.261 -10.255 -10.254 -10.253 -10.249
-10.248 -10.245 -10.238 -10.234 -10.233 -10.231 -10.228 -10.228
-10.228 -10.227 -10.227 -10.225 -10.224 -10.224 -10.223 -10.223
-10.222 -10.221 -10.219 -10.218 -10.218 -10.217 -10.216 -10.213
-10.210 -10.208 -10.200 -10.199 -10.195 -10.195 -10.192 -10.189
-10.186 -10.183 -10.183 -10.181 -10.180 -10.180 -10.179 -10.178
-10.176 -10.174 -10.170 -10.167  -8.040  -8.039  -7.988  -7.978
 -7.974  -7.969  -7.965  -7.964  -6.005  -6.004  -6.000  -5.999
 -5.998  -5.997  -5.952  -5.949  -5.945  -5.943  -5.939  -5.938
 -5.935  -5.935  -5.934  -5.931  -5.930  -5.929  -5.928  -5.925
 -5.925  -5.925  -5.921  -5.920  -1.037  -1.036  -0.967  -0.966
 -0.961  -0.956  -0.953  -0.940  -0.918  -0.910  -0.904  -0.898
 -0.847  -0.843  -0.834  -0.823  -0.814  -0.810  -0.808  -0.804
 -0.801  -0.800  -0.794  -0.793  -0.789  -0.784  -0.768  -0.767
 -0.749  -0.747  -0.743  -0.742  -0.722  -0.714  -0.711  -0.707
 -0.693  -0.691  -0.671  -0.669  -0.657  -0.654  -0.643  -0.637
 -0.636  -0.631  -0.627  -0.618  -0.614  -0.606  -0.597  -0.594
 -0.594  -0.586  -0.584  -0.580  -0.576  -0.574  -0.572  -0.568
 -0.549  -0.544  -0.539  -0.537  -0.522  -0.519  -0.512  -0.511
 -0.507  -0.504  -0.500  -0.498  -0.488  -0.486  -0.478  -0.475
 -0.472  -0.469  -0.467  -0.465  -0.465  -0.460  -0.456  -0.445
 -0.444  -0.443  -0.438  -0.436  -0.434  -0.433  -0.431  -0.429
 -0.427  -0.425  -0.424  -0.421  -0.419  -0.415  -0.412  -0.411
 -0.410  -0.409  -0.409  -0.406  -0.402  -0.397  -0.396  -0.394
 -0.392  -0.392  -0.389  -0.386  -0.384  -0.382  -0.381  -0.377
 -0.377  -0.373  -0.371  -0.370  -0.366  -0.364  -0.357  -0.354
 -0.354  -0.353  -0.347  -0.345  -0.340  -0.339  -0.337  -0.334
 -0.334  -0.332  -0.330  -0.330  -0.326  -0.324  -0.323  -0.321
 -0.316  -0.312  -0.311  -0.306  -0.303  -0.302  -0.298  -0.295
 -0.293  -0.291  -0.290  -0.288  -0.282  -0.281  -0.280  -0.279
 -0.276  -0.275  -0.269  -0.260  -0.251  -0.251  -0.247  -0.242
 -0.238  -0.234  -0.229  -0.224  -0.190  -0.187

          Ground-State Mulliken Net Atomic Charges

     Atom                 Charge (a.u.)
  ----------------------------------------
      1 C                     0.266986
      2 C                    -0.116229
      3 N                    -0.494901
      4 C                    -0.066653
      5 C                     0.118025
      6 C                     0.004906
      7 C                     0.079714
      8 C                     0.025323
      9 C                     0.198001
     10 N                    -0.516033
     11 N                    -0.554808
     12 C                     0.235347
     13 C                     0.315543
     14 S                     0.623008
     15 N                    -0.554872
     16 C                    -0.202704
     17 S                     0.284164
     18 C                    -0.140411
     19 C                    -0.229113
     20 S                     0.285452
     21 C                     0.178520
     22 C                     0.088042
     23 C                    -0.305122
     24 C                    -0.078282
     25 N                    -0.456318
     26 S                     0.237581
     27 C                     0.134424
     28 C                    -0.283910
     29 C                    -0.218325
     30 H                     0.083004
     31 H                     0.107678
     32 H                     0.114892
     33 H                     0.100597
     34 H                     0.128840
     35 H                     0.124270
     36 H                     0.110494
     37 H                     0.126235
     38 H                     0.091611
     39 C                    -0.170193
     40 H                     0.119397
     41 H                     0.086754
     42 H                     0.110671
     43 C                    -0.178585
     44 H                     0.091441
     45 C                    -0.174046
     46 H                     0.091391
     47 H                     0.092629
     48 H                     0.090747
     49 C                    -0.177442
     50 H                     0.092714
     51 C                    -0.328172
     52 H                     0.093652
     53 H                     0.103051
     54 H                     0.101711
     55 H                     0.106641
     56 C                     0.277288
     57 C                    -0.117652
     58 N                    -0.481855
     59 C                    -0.068924
     60 C                     0.102384
     61 C                     0.022523
     62 C                     0.002611
     63 C                     0.076225
     64 C                     0.250114
     65 N                    -0.492640
     66 N                    -0.546769
     67 C                     0.217957
     68 C                     0.231453
     69 S                     0.606795
     70 N                    -0.529630
     71 C                    -0.204466
     72 S                     0.336924
     73 C                    -0.109824
     74 C                    -0.231188
     75 S                     0.280151
     76 C                     0.133569
     77 C                     0.033808
     78 C                    -0.307049
     79 C                    -0.088437
     80 N                    -0.419491
     81 S                     0.306575
     82 C                     0.122657
     83 C                    -0.326453
     84 C                    -0.225368
     85 H                     0.084885
     86 H                     0.100076
     87 H                     0.116217
     88 H                     0.109332
     89 H                     0.134388
     90 H                     0.116132
     91 H                     0.115710
     92 H                     0.133179
     93 H                     0.097537
     94 C                    -0.186067
     95 H                     0.108160
     96 H                     0.087375
     97 H                     0.107435
     98 C                    -0.176466
     99 H                     0.090019
    100 C                    -0.166471
    101 H                     0.095254
    102 H                     0.091347
    103 H                     0.097939
    104 C                    -0.171093
    105 H                     0.086974
    106 C                    -0.307773
    107 H                     0.090422
    108 H                     0.100976
    109 H                     0.095542
    110 H                     0.100340
  ----------------------------------------
  Sum of atomic charges =     0.000000

                    Cartesian Multipole Moments
 -----------------------------------------------------------------
    Charge (ESU x 10^10)
                 0.0000
    Dipole Moment (Debye)
         X      -0.2366      Y       0.1823      Z      -1.2791
       Tot       1.3135
    Quadrupole Moments (Debye-Ang)
        XX    -389.2148     XY      -5.6198     YY    -429.2245
        XZ       7.6124     YZ      -8.8872     ZZ    -443.5710

 Total job time:  125.51s(wall), 1330.02s(cpu)
        *  Thank you very much for using Q-Chem.  Have a nice day.  *
