 Q-Chem 4.4, Q-Chem, Inc., Pleasanton, CA (2016)
 Q-Chem 4.4.2 for Intel X86 Linux

User input:
--------------------------------------------------------------
$comment
SP
$end

$rem
MEM_STATIC 5000
MEM_TOTAL 20000
JOBTYPE SP
EXCHANGE B3LYP
BASIS 6-31g(d,p)
$end

$molecule
0 1
C          15.823000     15.778000    -14.767000
C          15.794000     17.142000    -14.345000
N          14.718000     15.028000    -14.571000
C          14.613000     17.714000    -13.781000
C          13.638000     15.615000    -13.968000
C          13.485000     16.944000    -13.598000
C          12.129000     17.447000    -13.077000
C          12.019000     18.472000    -12.106000
C          10.894000     17.002000    -13.505000
N          10.839000     18.914000    -11.542000
N          10.775000     16.176000    -14.556000
C           9.656000     17.419000    -12.980000
C           9.648000     18.396000    -11.954000
S           9.211000     15.856000    -14.703000
N           8.596000     16.782000    -13.509000
C           8.416000     18.892000    -11.295000
S           6.818000     18.151000    -11.325000
C           8.360000     20.156000    -10.705000
C           6.118000     19.505000    -10.534000
S           9.640000     21.364000    -10.468000
C           7.083000     20.440000    -10.294000
C           4.764000     19.552000    -10.146000
C           8.422000     22.333000     -9.640000
C           7.106000     21.756000     -9.661000
N           4.487000     20.336000     -9.153000
S           3.412000     18.576000    -10.628000
C           3.118000     20.368000     -8.878000
C           2.340000     19.512000     -9.615000
C          17.026000     15.226000    -15.404000
H          16.751000     17.655000    -14.341000
H          14.555000     18.744000    -13.442000
H          12.771000     14.957000    -13.928000
H          12.837000     19.134000    -11.826000
H           8.697000     23.340000     -9.352000
H           6.198000     22.273000     -9.373000
H           2.806000     21.022000     -8.074000
H           1.287000     19.338000     -9.793000
H          16.825000     14.271000    -15.905000
C          18.205000     15.036000    -14.508000
H          17.345000     15.943000    -16.171000
H          18.652000     16.007000    -14.259000
H          19.006000     14.652000    -15.151000
C          17.883000     14.212000    -13.255000
H          17.175000     13.427000    -13.548000
C          17.417000     14.852000    -11.951000
H          18.812000     13.734000    -12.921000
H          16.599000     15.547000    -12.177000
H          18.185000     15.471000    -11.472000
C          16.923000     13.811000    -10.883000
H          16.633000     14.375000     -9.988000
C          18.035000     12.726000    -10.470000
H          16.001000     13.324000    -11.223000
H          17.638000     12.113000     -9.652000
H          18.928000     13.315000    -10.226000
H          18.245000     11.960000    -11.227000
C           0.902000     14.124000     -4.074000
C           1.259000     14.301000     -5.398000
N           1.206000     14.985000     -3.187000
C           2.109000     15.418000     -5.704000
C           2.141000     15.902000     -3.393000
C           2.696000     16.163000     -4.661000
C           3.595000     17.311000     -4.926000
C           3.335000     18.282000     -5.985000
C           4.655000     17.736000     -4.082000
N           3.803000     19.550000     -6.026000
N           5.262000     16.893000     -3.255000
C           5.282000     19.005000     -4.188000
C           4.734000     19.937000     -5.144000
S           6.455000     17.745000     -2.541000
N           6.402000     19.159000     -3.363000
C           5.204000     21.306000     -5.275000
S           5.405000     22.157000     -6.781000
C           5.715000     22.004000     -4.173000
C           6.113000     23.563000     -5.927000
S           5.516000     21.705000     -2.513000
C           6.187000     23.290000     -4.584000
C           6.433000     24.835000     -6.503000
C           6.083000     23.402000     -2.224000
C           6.372000     24.077000     -3.384000
N           6.957000     25.817000     -5.760000
S           6.240000     25.139000     -8.200000
C           7.159000     26.922000     -6.524000
C           6.865000     26.765000     -7.784000
C          -0.185000     13.098000     -3.784000
H           0.869000     13.643000     -6.169000
H           2.376000     15.641000     -6.733000
H           2.562000     16.488000     -2.578000
H           2.473000     18.185000     -6.644000
H           6.260000     23.744000     -1.212000
H           6.730000     25.100000     -3.384000
H           7.492000     27.802000     -5.990000
H           6.926000     27.516000     -8.561000
H          -0.130000     12.299000     -4.534000
C          -1.579000     13.791000     -3.680000
H           0.163000     12.561000     -2.892000
H          -1.782000     14.335000     -4.611000
H          -1.631000     14.585000     -2.925000
C          -2.734000     12.783000     -3.413000
H          -2.515000     11.888000     -4.008000
C          -4.020000     13.444000     -3.772000
H          -2.759000     12.556000     -2.340000
H          -3.901000     14.114000     -4.633000
H          -4.259000     14.108000     -2.932000
C          -5.339000     12.613000     -3.848000
H          -6.197000     13.294000     -3.923000
C          -5.443000     11.709000     -2.561000
H          -5.148000     11.943000     -4.695000
H          -4.762000     10.854000     -2.651000
H          -6.421000     11.238000     -2.721000
H          -5.513000     12.222000     -1.594000
$end

--------------------------------------------------------------

             Standard Nuclear Orientation (Angstroms)
    I     Atom           X                Y                Z
 ----------------------------------------------------------------
    1      C      10.9780051209    -2.2708922402     0.1765444570
    2      C      10.6681591024    -0.8771460232     0.2063425683
    3      N       9.9824343945    -3.1378603638    -0.1047848898
    4      C       9.3559612659    -0.4070634093    -0.1054268561
    5      C       8.7309520015    -2.6316765156    -0.3331436686
    6      C       8.3494691231    -1.2990897847    -0.4054860367
    7      C       6.9196896220    -0.9295876145    -0.8325512828
    8      C       6.2447690720     0.2090154268    -0.3289330090
    9      C       6.1587874282    -1.6183948450    -1.7561347661
   10      N       4.9379285988     0.5524279513    -0.6119450502
   11      N       6.6831620183    -2.6101922039    -2.4926178196
   12      C       4.8270311523    -1.3143540418    -2.0969314969
   13      C       4.2068092422    -0.1983999869    -1.4827325637
   14      S       5.4879308996    -3.1817431847    -3.3953121472
   15      N       4.2741530529    -2.1802231197    -2.9651518302
   16      C       2.8015520031     0.2050397685    -1.7289224411
   17      S       1.5268794474    -0.7636357123    -2.4640841164
   18      C       2.3780342773     1.5240219192    -1.5561485368
   19      C       0.4557441880     0.5781608116    -2.4994160375
   20      S       3.2573222882     2.9334168624    -0.9282221972
   21      C       1.0831578637     1.6742053915    -1.9816435407
   22      C      -0.8813582214     0.4818498127    -2.9341002195
   23      C       1.7516508145     3.8274233048    -1.1326112726
   24      C       0.6986682522     3.0627056480    -1.7422510261
   25      N      -1.6979842515     1.3636783083    -2.4514674072
   26      S      -1.6897016010    -0.7512515235    -3.8499856247
   27      C      -2.9830995912     1.2324037483    -2.9825564333
   28      C      -3.1783555630     0.1621612983    -3.8178080144
   29      C      12.3488790136    -2.7298184215     0.4368779557
   30      H      11.4370018502    -0.2317234286     0.6202803698
   31      H       9.0807370493     0.6432057402    -0.0861565612
   32      H       8.0165104647    -3.3979446087    -0.6309011201
   33      H       6.7379141655     1.0229623893     0.2002798585
   34      H       1.7805758886     4.8973210349    -0.9679899276
   35      H      -0.2306345138     3.4761741293    -2.1166000398
   36      H      -3.7172871243     1.9519126455    -2.6438063587
   37      H      -3.9398771877    -0.1948512726    -4.4985398554
   38      H      12.4994673453    -3.7718853388     0.1289060509
   39      C      12.8213935271    -2.5940970059     1.8465824396
   40      H      13.0201324331    -2.1048827453    -0.1656278512
   41      H      13.0154077384    -1.5396149636     2.0812675652
   42      H      13.8583735243    -2.9507178329     1.8463157061
   43      C      11.8768694366    -3.2461593066     2.8641078685
   44      H      11.4860450229    -4.1655875438     2.4110670378
   45      C      10.7337696657    -2.4835855666     3.5266606626
   46      H      12.4707745583    -3.5189594898     3.7449811661
   47      H      10.1628046924    -1.9650830616     2.7466740272
   48      H      11.0747823373    -1.6873085276     4.1990290400
   49      C       9.7595097610    -3.4028617409     4.3476904754
   50      H       8.9951946569    -2.7532835569     4.7916404778
   51      C      10.4808278413    -4.2275874337     5.5240687133
   52      H       9.2084131948    -4.0713665540     3.6751974349
   53      H       9.7128331767    -4.7546751500     6.1027436950
   54      H      11.0586868344    -3.4793005318     6.0808915726
   55      H      11.1082786671    -5.0642252767     5.1920332019
   56      C      -7.3059906959    -4.4249661939     1.0527113191
   57      C      -6.2699451860    -4.4101558836     0.1372090766
   58      N      -7.5864249627    -3.3973471549     1.7497491463
   59      C      -5.4352676200    -3.2412084550     0.1107464638
   60      C      -6.7311835045    -2.3947001446     1.8940094003
   61      C      -5.5664605704    -2.2591288657     1.1136178863
   62      C      -4.7156261268    -1.0459939712     1.1403475961
   63      C      -4.3656376410    -0.3072800596    -0.0695002524
   64      C      -4.3332908813    -0.3365734624     2.3095795242
   65      N      -4.0008529785     0.9937363737    -0.1225793482
   66      N      -4.2706110505    -0.9351811234     3.4931195983
   67      C      -3.8007382527     0.9790046108     2.2903953867
   68      C      -3.7450107637     1.6527072818     1.0152941523
   69      S      -3.7200805910     0.1900690229     4.5369957028
   70      N      -3.3487545716     1.4300630930     3.5357860875
   71      C      -3.3312603790     3.0381648397     0.8685291210
   72      S      -2.3445222023     3.6578649298    -0.4256723969
   73      C      -3.5567995134     3.9723658224     1.8879061968
   74      C      -2.2922449800     5.2728081935     0.3467532286
   75      S      -4.6481267409     3.9160923169     3.1880754839
   76      C      -2.9803417022     5.2323840209     1.5335736814
   77      C      -1.7474099601     6.4698624078    -0.2210284277
   78      C      -4.4030891826     5.7033137226     3.3630476011
   79      C      -3.5331094039     6.2199131967     2.4351434207
   80      N      -1.7693446385     7.6256764018     0.4531836170
   81      S      -0.9585375687     6.4659787406    -1.7660654069
   82      C      -1.2097744421     8.6119582386    -0.2949168667
   83      C      -0.7349456455     8.2129903056    -1.4412358460
   84      C      -8.3301958097    -5.5434400427     0.9171932959
   85      H      -6.1330164325    -5.2341612709    -0.5568879182
   86      H      -4.6416632833    -3.1479270944    -0.6250182707
   87      H      -6.8648984648    -1.6292234192     2.6562611254
   88      H      -4.7006720298    -0.6372800120    -1.0521426033
   89      H      -4.8407397391     6.2254583489     4.2046318094
   90      H      -3.2736302087     7.2718872672     2.4084207309
   91      H      -1.2675622501     9.6060431400     0.1280497727
   92      H      -0.2719347566     8.8305857691    -2.1999503906
   93      H      -7.8333367548    -6.4345276601     0.5134360204
   94      C      -9.5623770485    -5.0609915361     0.0905895013
   95      H      -8.5284326960    -5.8721982228     1.9456665313
   96      H      -9.2228102779    -4.7097725473    -0.8918796485
   97      H     -10.0594128030    -4.1735297290     0.5011159922
   98      C     -10.6302796926    -6.1758384589    -0.1045470697
   99      H     -10.0824202766    -7.1110612827    -0.2725331708
  100      C     -11.5107693156    -5.7823511598    -1.2401102645
  101      H     -11.2490842936    -6.2294898114     0.7997125159
  102      H     -10.9496671662    -5.2484589244    -2.0176097558
  103      H     -12.2054567855    -5.0363212108    -0.8345666363
  104      C     -12.5263005506    -6.8041040371    -1.8407893539
  105      H     -13.2150508226    -6.2811474870    -2.5173168917
  106      C     -13.3075127382    -7.4958962512    -0.6594629593
  107      H     -11.8670229162    -7.5643455595    -2.2768808908
  108      H     -12.6654172962    -8.2416743800    -0.1752993238
  109      H     -14.0070130328    -8.1284567010    -1.2202584792
  110      H     -13.9293434233    -6.8513795117    -0.0261519998
 ----------------------------------------------------------------

   11   -5663.4824758314      7.73E-06 Convergence criterion met
 Total energy in the final basis set = -5663.4824758314

                    Orbital Energies (a.u.)
 --------------------------------------------------------------

 Alpha MOs
 -- Occupied --
-88.988 -88.987 -88.926 -88.923 -88.921 -88.920 -88.910 -88.905
-14.391 -14.385 -14.380 -14.378 -14.352 -14.349 -14.336 -14.333
-14.328 -14.321 -10.265 -10.264 -10.263 -10.259 -10.258 -10.255
-10.254 -10.253 -10.244 -10.241 -10.240 -10.235 -10.233 -10.232
-10.231 -10.231 -10.229 -10.229 -10.228 -10.227 -10.227 -10.224
-10.223 -10.223 -10.220 -10.220 -10.219 -10.218 -10.216 -10.215
-10.214 -10.213 -10.205 -10.205 -10.202 -10.200 -10.198 -10.193
-10.184 -10.183 -10.183 -10.183 -10.182 -10.180 -10.175 -10.174
-10.174 -10.173 -10.172 -10.169  -8.044  -8.042  -7.986  -7.984
 -7.982  -7.979  -7.969  -7.966  -6.009  -6.007  -6.003  -6.002
 -6.001  -6.000  -5.951  -5.948  -5.947  -5.946  -5.945  -5.944
 -5.943  -5.942  -5.941  -5.940  -5.939  -5.936  -5.934  -5.930
 -5.930  -5.927  -5.926  -5.922  -1.045  -1.034  -0.974  -0.967
 -0.959  -0.955  -0.949  -0.932  -0.915  -0.909  -0.908  -0.900
 -0.842  -0.840  -0.835  -0.830  -0.814  -0.809  -0.807  -0.806
 -0.804  -0.798  -0.794  -0.793  -0.785  -0.776  -0.766  -0.763
 -0.749  -0.747  -0.740  -0.739  -0.725  -0.719  -0.709  -0.704
 -0.693  -0.693  -0.674  -0.671  -0.658  -0.654  -0.646  -0.644
 -0.639  -0.638  -0.630  -0.627  -0.616  -0.609  -0.598  -0.593
 -0.590  -0.587  -0.585  -0.583  -0.575  -0.574  -0.557  -0.555
 -0.552  -0.546  -0.539  -0.537  -0.522  -0.520  -0.516  -0.513
 -0.507  -0.505  -0.502  -0.499  -0.488  -0.484  -0.475  -0.473
 -0.473  -0.472  -0.471  -0.466  -0.463  -0.462  -0.449  -0.445
 -0.444  -0.443  -0.439  -0.436  -0.434  -0.433  -0.432  -0.429
 -0.427  -0.426  -0.423  -0.421  -0.416  -0.414  -0.411  -0.409
 -0.409  -0.408  -0.406  -0.403  -0.398  -0.397  -0.396  -0.396
 -0.393  -0.392  -0.389  -0.388  -0.384  -0.383  -0.381  -0.378
 -0.374  -0.372  -0.371  -0.370  -0.367  -0.364  -0.361  -0.359
 -0.356  -0.355  -0.352  -0.349  -0.347  -0.342  -0.341  -0.339
 -0.338  -0.336  -0.335  -0.335  -0.331  -0.326  -0.323  -0.315
 -0.314  -0.312  -0.311  -0.311  -0.302  -0.301  -0.298  -0.296
 -0.294  -0.292  -0.289  -0.287  -0.286  -0.283  -0.276  -0.276
 -0.274  -0.272  -0.268  -0.261  -0.254  -0.252  -0.248  -0.245
 -0.241  -0.238  -0.230  -0.229  -0.194  -0.191

          Ground-State Mulliken Net Atomic Charges

     Atom                 Charge (a.u.)
  ----------------------------------------
      1 C                     0.305448
      2 C                    -0.129956
      3 N                    -0.496412
      4 C                    -0.092724
      5 C                     0.060766
      6 C                     0.094636
      7 C                     0.051550
      8 C                     0.035910
      9 C                     0.199868
     10 N                    -0.528632
     11 N                    -0.536011
     12 C                     0.217573
     13 C                     0.298100
     14 S                     0.604859
     15 N                    -0.569913
     16 C                    -0.221676
     17 S                     0.327449
     18 C                    -0.115454
     19 C                    -0.218749
     20 S                     0.294288
     21 C                     0.176668
     22 C                     0.061994
     23 C                    -0.317438
     24 C                    -0.055209
     25 N                    -0.431117
     26 S                     0.239644
     27 C                     0.143401
     28 C                    -0.323637
     29 C                    -0.237614
     30 H                     0.089022
     31 H                     0.094539
     32 H                     0.110141
     33 H                     0.114196
     34 H                     0.137137
     35 H                     0.111214
     36 H                     0.128746
     37 H                     0.147350
     38 H                     0.119718
     39 C                    -0.187137
     40 H                     0.105787
     41 H                     0.086657
     42 H                     0.098612
     43 C                    -0.169021
     44 H                     0.106246
     45 C                    -0.183691
     46 H                     0.092565
     47 H                     0.097294
     48 H                     0.083191
     49 C                    -0.185339
     50 H                     0.092567
     51 C                    -0.322465
     52 H                     0.100824
     53 H                     0.101021
     54 H                     0.104411
     55 H                     0.108702
     56 C                     0.267500
     57 C                    -0.113412
     58 N                    -0.460570
     59 C                    -0.099672
     60 C                     0.089236
     61 C                     0.054215
     62 C                     0.022902
     63 C                     0.062754
     64 C                     0.195644
     65 N                    -0.507162
     66 N                    -0.522161
     67 C                     0.184013
     68 C                     0.278358
     69 S                     0.609605
     70 N                    -0.532843
     71 C                    -0.214789
     72 S                     0.366016
     73 C                    -0.125351
     74 C                    -0.242553
     75 S                     0.264937
     76 C                     0.143753
     77 C                     0.068504
     78 C                    -0.299856
     79 C                    -0.050257
     80 N                    -0.454879
     81 S                     0.244997
     82 C                     0.161222
     83 C                    -0.322200
     84 C                    -0.224024
     85 H                     0.091843
     86 H                     0.098414
     87 H                     0.104340
     88 H                     0.104753
     89 H                     0.127091
     90 H                     0.126015
     91 H                     0.114245
     92 H                     0.119358
     93 H                     0.089581
     94 C                    -0.173018
     95 H                     0.109220
     96 H                     0.091764
     97 H                     0.117919
     98 C                    -0.167209
     99 H                     0.084240
    100 C                    -0.175402
    101 H                     0.105824
    102 H                     0.080166
    103 H                     0.087324
    104 C                    -0.183674
    105 H                     0.096937
    106 C                    -0.324383
    107 H                     0.094240
    108 H                     0.111801
    109 H                     0.097936
    110 H                     0.106853
  ----------------------------------------
  Sum of atomic charges =     0.000000

                    Cartesian Multipole Moments
 -----------------------------------------------------------------
    Charge (ESU x 10^10)
                 0.0000
    Dipole Moment (Debye)
         X      -0.0105      Y       1.1830      Z      -1.9020
       Tot       2.2399
    Quadrupole Moments (Debye-Ang)
        XX    -422.8903     XY      19.8013     YY    -419.3710
        XZ      12.6455     YZ       5.1449     ZZ    -435.4923

 Total job time:  110.30s(wall), 1212.94s(cpu)
        *  Thank you very much for using Q-Chem.  Have a nice day.  *
