 Q-Chem 4.4, Q-Chem, Inc., Pleasanton, CA (2016)
 Q-Chem 4.4.2 for Intel X86 Linux

User input:
--------------------------------------------------------------
$comment
SP
$end

$rem
MEM_STATIC 5000
MEM_TOTAL 20000
JOBTYPE SP
EXCHANGE B3LYP
BASIS 6-31g(d,p)
$end

$molecule
0 1
C           8.643000     18.493000     -6.994000
C           7.331000     18.106000     -6.943000
N           9.607000     17.570000     -6.936000
C           6.987000     16.849000     -6.563000
C           9.333000     16.266000     -6.707000
C           7.968000     15.816000     -6.454000
C           7.544000     14.406000     -6.205000
C           6.416000     14.161000     -5.473000
C           8.211000     13.240000     -6.709000
N           5.828000     12.961000     -5.267000
N           9.352000     13.250000     -7.466000
C           7.649000     11.981000     -6.509000
C           6.455000     11.864000     -5.737000
S           9.617000     11.699000     -7.782000
N           8.353000     11.019000     -7.152000
C           5.748000     10.613000     -5.444000
S           6.288000      8.973000     -5.848000
C           4.439000     10.508000     -4.812000
C           4.932000      8.230000     -4.956000
S           3.181000     11.713000     -4.381000
C           4.037000      9.192000     -4.649000
C           4.673000      6.870000     -4.717000
C           2.038000     10.409000     -4.145000
C           2.688000      9.181000     -4.288000
N           5.346000      6.058000     -5.483000
S           3.604000      6.116000     -3.644000
C           4.946000      4.701000     -5.269000
C           4.121000      4.540000     -4.194000
C           9.065000     19.878000     -7.183000
H           6.524000     18.804000     -7.148000
H           5.939000     16.585000     -6.452000
H          10.142000     15.553000     -6.559000
H           5.855000     14.927000     -4.940000
H           0.999000     10.605000     -3.917000
H           2.273000      8.191000     -4.134000
H           5.442000      3.970000     -5.893000
H           3.705000      3.607000     -3.837000
H           9.971000     19.931000     -7.800000
C           9.387000     20.601000     -5.870000
H           8.260000     20.419000     -7.696000
H          10.038000     19.963000     -5.259000
H           8.477000     20.789000     -5.286000
C           9.972000     22.066000     -6.196000
H          10.984000     22.008000     -6.617000
C           9.875000     23.090000     -5.055000
H           9.325000     22.437000     -7.000000
H          10.485000     22.611000     -4.279000
H           8.835000     23.152000     -4.714000
C          10.413000     24.502000     -5.327000
H          11.464000     24.448000     -5.637000
C          10.090000     25.453000     -4.232000
H           9.855000     24.915000     -6.176000
H          10.348000     25.117000     -3.220000
H           9.118000     25.897000     -3.984000
H          10.628000     26.405000     -4.315000
C           0.902000     14.124000     -4.074000
C           1.259000     14.301000     -5.398000
N           1.206000     14.985000     -3.187000
C           2.109000     15.418000     -5.704000
C           2.141000     15.902000     -3.393000
C           2.696000     16.163000     -4.661000
C           3.595000     17.311000     -4.926000
C           3.335000     18.282000     -5.985000
C           4.655000     17.736000     -4.082000
N           3.803000     19.550000     -6.026000
N           5.262000     16.893000     -3.255000
C           5.282000     19.005000     -4.188000
C           4.734000     19.937000     -5.144000
S           6.455000     17.745000     -2.541000
N           6.402000     19.159000     -3.363000
C           5.204000     21.306000     -5.275000
S           5.405000     22.157000     -6.781000
C           5.715000     22.004000     -4.173000
C           6.113000     23.563000     -5.927000
S           5.516000     21.705000     -2.513000
C           6.187000     23.290000     -4.584000
C           6.433000     24.835000     -6.503000
C           6.083000     23.402000     -2.224000
C           6.372000     24.077000     -3.384000
N           6.957000     25.817000     -5.760000
S           6.240000     25.139000     -8.200000
C           7.159000     26.922000     -6.524000
C           6.865000     26.765000     -7.784000
C          -0.185000     13.098000     -3.784000
H           0.869000     13.643000     -6.169000
H           2.376000     15.641000     -6.733000
H           2.562000     16.488000     -2.578000
H           2.473000     18.185000     -6.644000
H           6.260000     23.744000     -1.212000
H           6.730000     25.100000     -3.384000
H           7.492000     27.802000     -5.990000
H           6.926000     27.516000     -8.561000
H          -0.130000     12.299000     -4.534000
C          -1.579000     13.791000     -3.680000
H           0.163000     12.561000     -2.892000
H          -1.782000     14.335000     -4.611000
H          -1.631000     14.585000     -2.925000
C          -2.734000     12.783000     -3.413000
H          -2.515000     11.888000     -4.008000
C          -4.020000     13.444000     -3.772000
H          -2.759000     12.556000     -2.340000
H          -3.901000     14.114000     -4.633000
H          -4.259000     14.108000     -2.932000
C          -5.339000     12.613000     -3.848000
H          -6.197000     13.294000     -3.923000
C          -5.443000     11.709000     -2.561000
H          -5.148000     11.943000     -4.695000
H          -4.762000     10.854000     -2.651000
H          -6.421000     11.238000     -2.721000
H          -5.513000     12.222000     -1.594000
$end

--------------------------------------------------------------

             Standard Nuclear Orientation (Angstroms)
    I     Atom           X                Y                Z
 ----------------------------------------------------------------
    1      C       3.3243229674     2.9917342108     0.8706798759
    2      C       2.5592906716     1.8968094503     1.1699779804
    3      N       2.7310497457     4.1417424456     0.5388712801
    4      C       1.2342328222     1.8682025152     0.8763994750
    5      C       1.3924957929     4.2312093544     0.3709368059
    6      C       0.5379203153     3.0541464435     0.4890793341
    7      C      -0.9478258314     3.0336679088     0.3407013805
    8      C      -1.5687753658     1.8848724189    -0.0629365736
    9      C      -1.8232409837     4.1339495707     0.6261651710
   10      N      -2.9009325165     1.6611815072    -0.1220948537
   11      N      -1.4203229295     5.3733199169     1.0464605273
   12      C      -3.2033409762     3.9537270291     0.5647742414
   13      C      -3.7249853911     2.6947729474     0.1426004329
   14      S      -2.7953664043     6.1746678521     1.2532912050
   15      N      -3.8641087653     5.0617094488     0.9774119595
   16      C      -5.1472496109     2.3550435949     0.0310322652
   17      S      -6.5185764383     3.4583808647     0.2467302061
   18      C      -5.6824507832     1.0239176736    -0.2250799888
   19      C      -7.6926239044     2.2118659330    -0.2575138541
   20      S      -4.9421379812    -0.6098791384    -0.2798059638
   21      C      -7.0663173510     1.0172748503    -0.2950670980
   22      C      -9.0806489607     2.3296199863    -0.4400581668
   23      C      -6.5416715797    -1.3172784390    -0.2194777190
   24      C      -7.5056737286    -0.3082121108    -0.2779414018
   25      N      -9.5996257197     3.3954676987     0.1018466012
   26      S     -10.1914083601     1.3015748626    -1.1963271535
   27      C     -11.0253681901     3.3898605780    -0.0184528932
   28      C     -11.4988226414     2.4025236668    -0.8328101283
   29      C       4.7816090174     3.0023176553     0.9614287563
   30      H       2.9954930626     0.9980503617     1.5971050983
   31      H       0.6613166261     0.9613178495     1.0485861049
   32      H       0.9464861893     5.1513530357    -0.0021115011
   33      H      -1.0441892815     0.9967252875    -0.4116056333
   34      H      -6.6820942239    -2.3877971363    -0.1547305200
   35      H      -8.5826070054    -0.4244403672    -0.3303504636
   36      H     -11.5299599905     4.2316681300     0.4359699939
   37      H     -12.5355873042     2.2146394612    -1.0794121544
   38      H       5.1455001661     3.9767720318     1.3112228385
   39      C       5.4770592020     2.7306109550    -0.3775658328
   40      H       5.0899068337     2.2343620624     1.6818950385
   41      H       5.0236425472     3.3617398841    -1.1523274813
   42      H       5.3435420746     1.6871876577    -0.6905211003
   43      C       7.0686309101     2.9017022055    -0.1976956518
   44      H       7.3453736877     3.9557897348    -0.0670743836
   45      C       7.9365744552     2.1993969695    -1.2528294622
   46      H       7.2822650099     2.4068019848     0.7573437416
   47      H       7.6109761306     2.7009373950    -2.1726989816
   48      H       7.6606719291     1.1394492940    -1.2988046871
   49      C       9.4599586043     2.3295908554    -1.1131072870
   50      H       9.7446682255     3.3890155773    -1.0998148037
   51      C      10.1938074029     1.4549932089    -2.0640541296
   52      H       9.7432926843     1.9150282283    -0.1381233756
   53      H       9.8827548021     1.5287048340    -3.1135382295
   54      H      10.3081082134     0.3644116732    -2.0325701859
   55      H      11.2666354755     1.6767908022    -2.1138813744
   56      C      -3.3518601854    -3.5153759880     0.0809094211
   57      C      -2.9865817125    -2.8958000892     1.2617783143
   58      N      -2.5015840561    -3.7341637095    -0.8408651917
   59      C      -1.6480812897    -2.3807071176     1.3449699533
   60      C      -1.3347060865    -3.1061541078    -0.8802319805
   61      C      -0.8339374849    -2.3459014447     0.1945780938
   62      C       0.5459697171    -1.8062479620     0.2255657107
   63      C       1.4638739011    -2.0643491360     1.3313494567
   64      C       1.2108981473    -1.1882951481    -0.8664807638
   65      N       2.8135720453    -2.0145933662     1.2652564694
   66      N       0.5345600599    -0.5911614318    -1.8406599652
   67      C       2.6136220685    -0.9763308891    -0.9129861790
   68      C       3.4010907744    -1.5129648481     0.1708869830
   69      S       1.6545092246     0.0515188707    -2.8364636091
   70      N       3.0399439911    -0.2153289350    -2.0074571216
   71      C       4.8536055313    -1.4687701181     0.1925597006
   72      S       5.8258414178    -1.1510339816     1.6019706161
   73      C       5.5962386359    -1.5045462773    -0.9948514070
   74      C       7.3180845797    -1.1588205667     0.6117354344
   75      S       5.1394343000    -2.0302614889    -2.5439012173
   76      C       6.9893671483    -1.3596038442    -0.7055667048
   77      C       8.6635193144    -1.1053633066     1.1007218308
   78      C       6.9046554089    -2.1081566045    -2.9473188513
   79      C       7.7123166176    -1.7466511959    -1.8976792885
   80      N       9.7046585766    -1.1222423098     0.2600714064
   81      S       9.0100799631    -0.9301101730     2.7914778913
   82      C      10.8685583839    -1.0761741383     0.9591707999
   83      C      10.7165085515    -0.9664639495     2.2489496658
   84      C      -4.6737267485    -4.2710273529     0.0787176225
   85      H      -3.6773348531    -2.8484217165     2.0985102837
   86      H      -1.2860234619    -1.9349671442     2.2669726678
   87      H      -0.7061598771    -3.1146149534    -1.7688939392
   88      H       1.1578726510    -2.6503481514     2.1972030176
   89      H       7.2145019967    -2.3166352962    -3.9636695423
   90      H       8.7931172210    -1.7330935147    -1.9775494646
   91      H      11.7695574970    -1.1816692488     0.3696656006
   92      H      11.5021576149    -0.9373376388     2.9928301718
   93      H      -5.3666794300    -3.7787616942     0.7725598975
   94      C      -4.4392144649    -5.7863371734     0.3670596706
   95      H      -5.1409286689    -4.0218114764    -0.8829220254
   96      H      -3.9192380197    -5.8948141689     1.3271446866
   97      H      -3.7504596534    -6.2756351505    -0.3324896837
   98      C      -5.7627766195    -6.6036917798     0.4056947620
   99      H      -6.5084351534    -5.9725792637     0.9043944141
  100      C      -5.4949274913    -7.8889279498     1.1099836458
  101      H      -6.0590803735    -6.8383445883    -0.6241718045
  102      H      -4.7632716438    -7.7598455967     1.9176961361
  103      H      -4.9917047353    -8.5317056530     0.3770302488
  104      C      -6.6759498305    -8.8206764685     1.5260712956
  105      H      -6.2800329053    -9.7949761137     1.8415708831
  106      C      -7.6546840086    -8.9759590620     0.3003601858
  107      H      -7.1987964534    -8.2181354000     2.2786439962
  108      H      -8.2580441941    -8.0669109449     0.1886730902
  109      H      -8.3852100348    -9.6841880850     0.7110527425
  110      H      -7.2531062655    -9.4510910120    -0.6030461161
 ----------------------------------------------------------------

   10   -5663.4777811753      3.75E-06 Convergence criterion met
 Total energy in the final basis set = -5663.4777811753

                    Orbital Energies (a.u.)
 --------------------------------------------------------------

 Alpha MOs
 -- Occupied --
-88.994 -88.988 -88.934 -88.928 -88.928 -88.925 -88.913 -88.910
-14.398 -14.388 -14.381 -14.376 -14.358 -14.343 -14.340 -14.335
-14.326 -14.319 -10.271 -10.267 -10.266 -10.263 -10.259 -10.259
-10.253 -10.252 -10.249 -10.244 -10.244 -10.242 -10.239 -10.234
-10.233 -10.232 -10.231 -10.231 -10.231 -10.231 -10.227 -10.226
-10.225 -10.225 -10.224 -10.223 -10.221 -10.218 -10.217 -10.216
-10.215 -10.213 -10.202 -10.201 -10.200 -10.198 -10.197 -10.192
-10.188 -10.185 -10.185 -10.179 -10.176 -10.175 -10.172 -10.172
-10.171 -10.170 -10.163 -10.159  -8.049  -8.044  -7.993  -7.990
 -7.989  -7.983  -7.974  -7.969  -6.014  -6.009  -6.009  -6.007
 -6.003  -6.002  -5.957  -5.954  -5.953  -5.953  -5.950  -5.950
 -5.949  -5.947  -5.947  -5.946  -5.944  -5.940  -5.938  -5.935
 -5.933  -5.930  -5.930  -5.925  -1.049  -1.041  -0.974  -0.970
 -0.964  -0.963  -0.954  -0.932  -0.917  -0.909  -0.908  -0.903
 -0.849  -0.842  -0.837  -0.829  -0.814  -0.811  -0.808  -0.806
 -0.803  -0.800  -0.797  -0.796  -0.789  -0.782  -0.770  -0.769
 -0.754  -0.748  -0.747  -0.737  -0.729  -0.719  -0.715  -0.708
 -0.700  -0.692  -0.679  -0.674  -0.659  -0.649  -0.648  -0.646
 -0.643  -0.636  -0.631  -0.618  -0.614  -0.605  -0.602  -0.599
 -0.595  -0.594  -0.589  -0.582  -0.579  -0.571  -0.561  -0.560
 -0.554  -0.545  -0.544  -0.540  -0.527  -0.519  -0.518  -0.516
 -0.514  -0.510  -0.504  -0.495  -0.490  -0.484  -0.480  -0.477
 -0.476  -0.474  -0.473  -0.469  -0.465  -0.462  -0.453  -0.451
 -0.447  -0.443  -0.441  -0.439  -0.438  -0.436  -0.434  -0.431
 -0.431  -0.429  -0.426  -0.422  -0.419  -0.415  -0.414  -0.413
 -0.411  -0.411  -0.409  -0.403  -0.401  -0.400  -0.398  -0.396
 -0.394  -0.392  -0.391  -0.390  -0.385  -0.384  -0.381  -0.381
 -0.378  -0.377  -0.374  -0.369  -0.367  -0.365  -0.364  -0.360
 -0.358  -0.351  -0.350  -0.348  -0.345  -0.345  -0.342  -0.342
 -0.339  -0.335  -0.333  -0.330  -0.329  -0.327  -0.320  -0.319
 -0.316  -0.314  -0.311  -0.308  -0.303  -0.301  -0.298  -0.297
 -0.294  -0.293  -0.292  -0.290  -0.285  -0.283  -0.282  -0.281
 -0.276  -0.275  -0.272  -0.267  -0.259  -0.256  -0.248  -0.245
 -0.242  -0.238  -0.236  -0.227  -0.199  -0.190

          Ground-State Mulliken Net Atomic Charges

     Atom                 Charge (a.u.)
  ----------------------------------------
      1 C                     0.290919
      2 C                    -0.126434
      3 N                    -0.497254
      4 C                    -0.077422
      5 C                     0.092568
      6 C                     0.003759
      7 C                     0.073204
      8 C                     0.015380
      9 C                     0.197461
     10 N                    -0.529547
     11 N                    -0.549756
     12 C                     0.204333
     13 C                     0.323440
     14 S                     0.615768
     15 N                    -0.541044
     16 C                    -0.250198
     17 S                     0.357991
     18 C                    -0.149454
     19 C                    -0.189936
     20 S                     0.307641
     21 C                     0.167843
     22 C                     0.051603
     23 C                    -0.326614
     24 C                    -0.078048
     25 N                    -0.438203
     26 S                     0.273839
     27 C                     0.105935
     28 C                    -0.303686
     29 C                    -0.225052
     30 H                     0.092855
     31 H                     0.092076
     32 H                     0.117356
     33 H                     0.130550
     34 H                     0.132288
     35 H                     0.085132
     36 H                     0.118913
     37 H                     0.138470
     38 H                     0.117209
     39 C                    -0.190680
     40 H                     0.099573
     41 H                     0.106898
     42 H                     0.108972
     43 C                    -0.187572
     44 H                     0.088799
     45 C                    -0.179985
     46 H                     0.087918
     47 H                     0.087726
     48 H                     0.105763
     49 C                    -0.165340
     50 H                     0.093060
     51 C                    -0.329549
     52 H                     0.097790
     53 H                     0.089822
     54 H                     0.117491
     55 H                     0.084191
     56 C                     0.263304
     57 C                    -0.096931
     58 N                    -0.461763
     59 C                    -0.095267
     60 C                     0.092283
     61 C                     0.055211
     62 C                     0.009955
     63 C                     0.052552
     64 C                     0.200017
     65 N                    -0.494909
     66 N                    -0.527094
     67 C                     0.200183
     68 C                     0.258329
     69 S                     0.622784
     70 N                    -0.532425
     71 C                    -0.194317
     72 S                     0.313067
     73 C                    -0.117986
     74 C                    -0.218718
     75 S                     0.271463
     76 C                     0.132439
     77 C                     0.075046
     78 C                    -0.298139
     79 C                    -0.045317
     80 N                    -0.453971
     81 S                     0.254472
     82 C                     0.162508
     83 C                    -0.314690
     84 C                    -0.232785
     85 H                     0.098922
     86 H                     0.098626
     87 H                     0.105239
     88 H                     0.114439
     89 H                     0.131780
     90 H                     0.131784
     91 H                     0.117164
     92 H                     0.123104
     93 H                     0.092270
     94 C                    -0.176148
     95 H                     0.112821
     96 H                     0.094617
     97 H                     0.120406
     98 C                    -0.168202
     99 H                     0.082661
    100 C                    -0.176300
    101 H                     0.106774
    102 H                     0.081904
    103 H                     0.088400
    104 C                    -0.184028
    105 H                     0.098282
    106 C                    -0.324857
    107 H                     0.094966
    108 H                     0.111038
    109 H                     0.098971
    110 H                     0.107300
  ----------------------------------------
  Sum of atomic charges =     0.000000

                    Cartesian Multipole Moments
 -----------------------------------------------------------------
    Charge (ESU x 10^10)
                 0.0000
    Dipole Moment (Debye)
         X      -0.8145      Y      -3.3136      Z       0.5696
       Tot       3.4595
    Quadrupole Moments (Debye-Ang)
        XX    -371.6952     XY      -4.6328     YY    -451.1314
        XZ       3.1090     YZ      -2.7958     ZZ    -436.9682

 Total job time:  111.69s(wall), 1235.23s(cpu)
        *  Thank you very much for using Q-Chem.  Have a nice day.  *
