 Q-Chem 4.4, Q-Chem, Inc., Pleasanton, CA (2016)
 Q-Chem 4.4.2 for Intel X86 Linux

User input:
--------------------------------------------------------------
$comment
OPTIMIZATION
$end

$rem
JOBTYPE OPT
EXCHANGE omegaB97X-D
BASIS cc-pVTZ
$end

$molecule
0 1
C          0.00000        0.00000        0.00000
C         -0.65396       -1.22126       -0.00000
C          1.38563        0.00000        0.00000
C          0.09526       -2.37957        0.00866
N          2.11912       -1.10562        0.01199
C          1.48546       -2.27640        0.02149
C          2.30642       -3.51253        0.03449
N          1.74513       -4.60745       -0.39909
C          3.65824       -3.56714        0.50995
C          2.40434       -5.79109       -0.42442
N          4.38617       -2.58332        1.04242
C          4.35289       -4.81920        0.47143
C          3.70163       -5.99343       -0.01477
S          5.80914       -3.21778        1.41887
N          5.59255       -4.74484        0.95148
C          4.33823       -7.30129       -0.04468
S          3.45117       -8.76291       -0.22798
C          5.69476       -7.61400        0.04719
C          4.81315       -9.78692       -0.15648
N          6.71378       -6.72054        0.18741
C          5.96259       -9.01784       -0.01975
C          4.70632      -11.22525       -0.25235
C          7.90597       -7.22644        0.25945
N          7.22702       -9.51294        0.05958
C          5.66828      -12.11436       -0.64634
S          3.24245      -12.05939        0.16024
C          8.16747       -8.62941        0.19677
C          5.22257      -13.45759       -0.62789
C          3.93175      -13.58008       -0.21959
H         -0.54853        0.93120        0.00000
H         -1.73532       -1.26909       -0.00410
H          1.93662        0.93286       -0.01167
H         -0.36319       -3.35650        0.00329
H          1.82722       -6.62671       -0.78554
H          8.73280       -6.53393        0.37664
H          6.65882      -11.79930       -0.92808
H          9.18803       -8.99046        0.26301
H          5.84143      -14.29443       -0.91382
H          3.35261      -14.48161       -0.11559
$end

$opt
CONSTRAINT
tors 4 6 7 8 21.82164
tors 10 13 16 17 -15.00000
tors 17 19 22 25 156.39459
ENDCONSTRAINT
$end
--------------------------------------------------------------

   16   -2291.1274028406      5.82E-09 Convergence criterion met
 Total energy in the final basis set = -2291.1274028406
   15   -2291.1352045298      4.10E-09 Convergence criterion met
 Total energy in the final basis set = -2291.1352045298
   13   -2291.1397924069      9.88E-09 Convergence criterion met
 Total energy in the final basis set = -2291.1397924069
   14   -2291.1414928985      4.94E-09 Convergence criterion met
 Total energy in the final basis set = -2291.1414928985
   13   -2291.1419806635      4.37E-09 Convergence criterion met
 Total energy in the final basis set = -2291.1419806635
   13   -2291.1421607807      3.75E-09 Convergence criterion met
 Total energy in the final basis set = -2291.1421607807
   11   -2291.1421889373      6.38E-09 Convergence criterion met
 Total energy in the final basis set = -2291.1421889373
   11   -2291.1422002008      5.10E-09 Convergence criterion met
 Total energy in the final basis set = -2291.1422002008
    9   -2291.1422024163      9.05E-09 Convergence criterion met
 Total energy in the final basis set = -2291.1422024163

             Standard Nuclear Orientation (Angstroms)
    I     Atom           X                Y                Z
 ----------------------------------------------------------------
    1      C       7.3865457142     1.7510530268    -0.4153015494
    2      C       6.4516588513     2.7510505042    -0.2045952483
    3      C       6.9428361065     0.4392941283    -0.4696581956
    4      C       5.1239034557     2.4019698231    -0.0555287513
    5      N       5.6720786984     0.0886795591    -0.3236155682
    6      C       4.7792234105     1.0534874388    -0.1137373143
    7      C       3.3550043479     0.6553960884     0.0096762731
    8      N       2.4536518627     1.5573356452    -0.2650018514
    9      C       2.9329683051    -0.6388553854     0.4559235590
   10      C       1.1336560500     1.2599775022    -0.2351795646
   11      N       3.6941909562    -1.6017704947     0.9795836946
   12      C       1.5325102838    -0.9441370926     0.4879732425
   13      C       0.5866204075     0.0303508230     0.0348673698
   14      S       2.6871106354    -2.7514808612     1.4665218762
   15      N       1.2675613177    -2.1201898242     1.0541458856
   16      C      -0.8549290732    -0.1786969750     0.0787256728
   17      S      -1.9227330460     1.1635959485     0.1745104168
   18      C      -1.6013998510    -1.3181367638    -0.1957157043
   19      C      -3.3519662753     0.2480978828    -0.0099126446
   20      N      -1.0956458225    -2.5416891986    -0.5250060986
   21      C      -3.0144643148    -1.0828015856    -0.2098806270
   22      C      -4.6641482208     0.8540861897     0.0367031768
   23      C      -1.9714734786    -3.4676444911    -0.7489371543
   24      N      -3.9069984916    -2.0913983471    -0.4196614271
   25      C      -5.8267423239     0.3830860402    -0.5100558588
   26      S      -4.9361478335     2.3701918550     0.8308078520
   27      C      -3.3857653169    -3.2513305066    -0.6659985906
   28      C      -6.9276154697     1.2456028895    -0.2936315738
   29      C      -6.5953218589     2.3604425140     0.4089240969
   30      H       8.4356931719     1.9775048334    -0.5416234894
   31      H       6.7532686617     3.7887943486    -0.1588911285
   32      H       7.6430056913    -0.3691378039    -0.6454152183
   33      H       4.3539523872     3.1414720110     0.1016481747
   34      H       0.4887438057     2.0851293254    -0.5125051707
   35      H      -1.6026555203    -4.4493714858    -1.0267839439
   36      H      -5.8744807642    -0.5534839081    -1.0407654920
   37      H      -4.0632965571    -4.0814752553    -0.8332383865
   38      H      -7.9266916179     1.0443810934    -0.6486867869
   39      H      -7.2343508747     3.1736784577     0.7075599078
 ----------------------------------------------------------------

    9   -2291.1422029953      5.13E-09 Convergence criterion met
 Total energy in the final basis set = -2291.1422029953
 Final energy is   -2291.14220299534
 **  OPTIMIZATION CONVERGED  **

                    Orbital Energies (a.u.)
 --------------------------------------------------------------

 Alpha MOs
 -- Occupied --
-89.140 -89.101 -89.082 -14.476 -14.472 -14.461 -14.456 -14.447
-14.434 -10.352 -10.352 -10.348 -10.347 -10.342 -10.342 -10.341
-10.340 -10.338 -10.337 -10.336 -10.334 -10.332 -10.323 -10.322
-10.309 -10.301 -10.298 -10.297 -10.295  -8.151  -8.117  -8.097
 -6.101  -6.095  -6.095  -6.066  -6.062  -6.060  -6.046  -6.043
 -6.040  -1.138  -1.099  -1.070  -1.050  -1.027  -1.013  -1.000
 -0.989  -0.925  -0.912  -0.895  -0.879  -0.871  -0.852  -0.840
 -0.814  -0.777  -0.771  -0.745  -0.737  -0.729  -0.721  -0.708
 -0.671  -0.656  -0.648  -0.629  -0.628  -0.623  -0.607  -0.600
 -0.586  -0.575  -0.570  -0.558  -0.557  -0.546  -0.544  -0.526
 -0.510  -0.507  -0.504  -0.500  -0.494  -0.492  -0.487  -0.484
 -0.472  -0.467  -0.461  -0.457  -0.450  -0.441  -0.428  -0.426
 -0.417  -0.411  -0.387  -0.375  -0.370  -0.363  -0.356  -0.351
 -0.344  -0.339  -0.337  -0.332  -0.318  -0.267

          Ground-State Mulliken Net Atomic Charges

     Atom                 Charge (a.u.)
  ----------------------------------------
      1 C                    -0.091742
      2 C                    -0.129731
      3 C                    -0.078669
      4 C                    -0.119517
      5 N                    -0.144531
      6 C                     0.084660
      7 C                     0.107300
      8 N                    -0.179154
      9 C                    -0.011034
     10 C                    -0.120983
     11 N                    -0.228960
     12 C                     0.043547
     13 C                     0.075816
     14 S                     0.404673
     15 N                    -0.257781
     16 C                    -0.058451
     17 S                     0.138465
     18 C                     0.044144
     19 C                    -0.046288
     20 N                    -0.131384
     21 C                     0.052278
     22 C                    -0.010070
     23 C                    -0.050752
     24 N                    -0.164879
     25 C                    -0.138173
     26 S                     0.101645
     27 C                    -0.045485
     28 C                    -0.157143
     29 C                    -0.179564
     30 H                     0.132212
     31 H                     0.120875
     32 H                     0.119136
     33 H                     0.135214
     34 H                     0.124875
     35 H                     0.127656
     36 H                     0.136346
     37 H                     0.127586
     38 H                     0.131168
     39 H                     0.136695
  ----------------------------------------
  Sum of atomic charges =     0.000000

                    Cartesian Multipole Moments
 -----------------------------------------------------------------
    Charge (ESU x 10^10)
                 0.0000
    Dipole Moment (Debye)
         X      -0.7507      Y       0.4740      Z      -0.3153
       Tot       0.9421
    Quadrupole Moments (Debye-Ang)
        XX    -154.0901     XY       8.4521     YY    -163.9706
        XZ       3.0279     YZ       3.5359     ZZ    -185.6791

 Total job time:  9943.10s(wall), 148161.48s(cpu)
        *  Thank you very much for using Q-Chem.  Have a nice day.  *
