 Q-Chem 4.4, Q-Chem, Inc., Pleasanton, CA (2016)
 Q-Chem 4.4.2 for Intel X86 Linux

User input:
--------------------------------------------------------------
$comment
OPTIMIZATION
$end

$rem
JOBTYPE OPT
EXCHANGE omegaB97X-D
BASIS cc-pVTZ
$end

$molecule
0 1
C          0.00000        0.00000        0.00000
C         -0.65396       -1.22126       -0.00000
C          1.38563        0.00000        0.00000
C          0.09526       -2.37957        0.00866
N          2.11912       -1.10562        0.01199
C          1.48546       -2.27640        0.02149
C          2.30642       -3.51253        0.03449
N          1.74513       -4.60745       -0.39909
C          3.65824       -3.56714        0.50995
C          2.40434       -5.79109       -0.42442
N          4.38617       -2.58332        1.04242
C          4.35289       -4.81920        0.47143
C          3.70163       -5.99343       -0.01477
S          5.80914       -3.21778        1.41887
N          5.59255       -4.74484        0.95148
C          4.33823       -7.30129       -0.04468
S          3.98139       -8.53516        1.09858
C          5.28454       -7.79098       -0.94529
C          5.06774       -9.67679        0.44648
N          5.80851       -7.11107       -2.00338
C          5.69338       -9.13401       -0.66949
C          5.23839      -10.99522        1.01393
C          6.68299       -7.75372       -2.71380
N          6.61423       -9.77699       -1.43683
C          5.69720      -12.12404        0.39233
S          4.86457      -11.32732        2.67492
C          7.09118       -9.09319       -2.43123
C          5.73406      -13.25150        1.24716
C          5.30739      -12.97285        2.50741
H         -0.54853        0.93120        0.00000
H         -1.73532       -1.26909       -0.00410
H          1.93662        0.93286       -0.01167
H         -0.36319       -3.35650        0.00329
H          1.82722       -6.62671       -0.78554
H          7.11775       -7.23006       -3.55863
H          6.00166      -12.12575       -0.64068
H          7.82787       -9.57644       -3.06373
H          6.06091      -14.22974        0.92894
H          5.23623      -13.64392        3.34620
$end

$opt
CONSTRAINT
tors 4 6 7 8 21.82164
tors 10 13 16 17 -75.00000
tors 17 19 22 25 156.39459
ENDCONSTRAINT
$end
--------------------------------------------------------------

   16   -2291.1441159752      4.14E-09 Convergence criterion met
 Total energy in the final basis set = -2291.1441159752
   13   -2291.1453468876      4.20E-09 Convergence criterion met
 Total energy in the final basis set = -2291.1453468876
   12   -2291.1455768353      8.15E-09 Convergence criterion met
 Total energy in the final basis set = -2291.1455768353
   12   -2291.1456916058      6.78E-09 Convergence criterion met
 Total energy in the final basis set = -2291.1456916058
   12   -2291.1457654026      6.95E-09 Convergence criterion met
 Total energy in the final basis set = -2291.1457654026
   11   -2291.1457875124      5.04E-09 Convergence criterion met
 Total energy in the final basis set = -2291.1457875124
   10   -2291.1457924295      7.24E-09 Convergence criterion met
 Total energy in the final basis set = -2291.1457924295
    9   -2291.1457938401      6.48E-09 Convergence criterion met
 Total energy in the final basis set = -2291.1457938401

             Standard Nuclear Orientation (Angstroms)
    I     Atom           X                Y                Z
 ----------------------------------------------------------------
    1      C       7.5450323826     0.9715373804    -0.7203184469
    2      C       6.7158867196     1.9339904510    -1.2724528241
    3      C       6.9594941597    -0.1067522644    -0.0761872656
    4      C       5.3479232107     1.7815169420    -1.1581231164
    5      N       5.6481778647    -0.2623113117     0.0470251122
    6      C       4.8569469018     0.6685954211    -0.4798149406
    7      C       3.3884079479     0.4700573171    -0.3647542892
    8      N       2.6370166256     1.0741374270    -1.2433474204
    9      C       2.7787507620    -0.3225796390     0.6657215109
   10      C       1.2866494815     0.9253614029    -1.2344948660
   11      N       3.3655941320    -0.9450026114     1.6911813412
   12      C       1.3554794944    -0.4606251017     0.6704228316
   13      C       0.5813484037     0.1865054818    -0.3312587760
   14      S       2.1862541076    -1.6332292788     2.5329453364
   15      N       0.8912534254    -1.1908784731     1.6835790412
   16      C      -0.8709618884     0.0102019529    -0.4031147909
   17      S      -1.9713019654     1.2396109209     0.0322501784
   18      C      -1.5649692255    -1.1402066508    -0.7102291118
   19      C      -3.3694873252     0.2770342626    -0.1906183544
   20      N      -0.9905355051    -2.3173828149    -1.0951060953
   21      C      -2.9844653699    -0.9925892028    -0.5995975892
   22      C      -4.7065159559     0.7978353138     0.0027211516
   23      C      -1.8241430876    -3.2763155252    -1.3433278583
   24      N      -3.8268393766    -2.0297487345    -0.8742353403
   25      C      -5.8726854213     0.3314714896    -0.5385724561
   26      S      -5.0112947070     2.1800071704     1.0024335262
   27      C      -3.2478283782    -3.1326624382    -1.2311021003
   28      C      -7.0038573847     1.0906698921    -0.1535851069
   29      C      -6.6906817614     2.1248778919     0.6698426875
   30      H       8.6208619204     1.0501148980    -0.7874892570
   31      H       7.1304170007     2.7922389712    -1.7834136454
   32      H       7.5730008448    -0.8860844398     0.3607398650
   33      H       4.6564015785     2.4953301927    -1.5783451794
   34      H       0.7628204891     1.4417258669    -2.0292963313
   35      H      -1.4145327410    -4.2301736842    -1.6580422974
   36      H      -5.9028218276    -0.5349539075    -1.1789639719
   37      H      -3.8838796243    -3.9820847824    -1.4552472330
   38      H      -8.0104216836     0.8751725764    -0.4779269238
   39      H      -7.3518262867     2.8536268199     1.1065238227
 ----------------------------------------------------------------

    8   -2291.1457942447      9.95E-09 Convergence criterion met
 Total energy in the final basis set = -2291.1457942447
 Final energy is   -2291.14579424470
 **  OPTIMIZATION CONVERGED  **

                    Orbital Energies (a.u.)
 --------------------------------------------------------------

 Alpha MOs
 -- Occupied --
-89.144 -89.101 -89.079 -14.481 -14.476 -14.460 -14.458 -14.449
-14.436 -10.358 -10.353 -10.350 -10.344 -10.342 -10.341 -10.338
-10.337 -10.336 -10.336 -10.335 -10.334 -10.328 -10.325 -10.319
-10.311 -10.303 -10.300 -10.294 -10.292  -8.155  -8.116  -8.094
 -6.105  -6.099  -6.099  -6.065  -6.061  -6.059  -6.043  -6.040
 -6.037  -1.141  -1.098  -1.072  -1.052  -1.026  -1.012  -1.002
 -0.986  -0.926  -0.914  -0.897  -0.878  -0.868  -0.853  -0.837
 -0.812  -0.777  -0.769  -0.747  -0.739  -0.728  -0.723  -0.709
 -0.671  -0.654  -0.646  -0.629  -0.629  -0.622  -0.604  -0.602
 -0.590  -0.577  -0.570  -0.562  -0.559  -0.544  -0.542  -0.526
 -0.513  -0.505  -0.502  -0.501  -0.494  -0.491  -0.486  -0.480
 -0.472  -0.469  -0.461  -0.455  -0.450  -0.436  -0.428  -0.424
 -0.421  -0.410  -0.395  -0.376  -0.367  -0.366  -0.358  -0.350
 -0.342  -0.339  -0.336  -0.333  -0.316  -0.275

          Ground-State Mulliken Net Atomic Charges

     Atom                 Charge (a.u.)
  ----------------------------------------
      1 C                    -0.091176
      2 C                    -0.127284
      3 C                    -0.080077
      4 C                    -0.118691
      5 N                    -0.143309
      6 C                     0.083086
      7 C                     0.113090
      8 N                    -0.175880
      9 C                    -0.014655
     10 C                    -0.075082
     11 N                    -0.223255
     12 C                     0.065329
     13 C                     0.027707
     14 S                     0.409130
     15 N                    -0.269897
     16 C                    -0.100290
     17 S                     0.180895
     18 C                     0.058512
     19 C                    -0.062019
     20 N                    -0.146265
     21 C                     0.046585
     22 C                    -0.010276
     23 C                    -0.051394
     24 N                    -0.163994
     25 C                    -0.140046
     26 S                     0.098212
     27 C                    -0.048327
     28 C                    -0.157358
     29 C                    -0.182162
     30 H                     0.133354
     31 H                     0.119607
     32 H                     0.120411
     33 H                     0.136378
     34 H                     0.127624
     35 H                     0.131200
     36 H                     0.136087
     37 H                     0.127679
     38 H                     0.130354
     39 H                     0.136195
  ----------------------------------------
  Sum of atomic charges =     0.000000

                    Cartesian Multipole Moments
 -----------------------------------------------------------------
    Charge (ESU x 10^10)
                 0.0000
    Dipole Moment (Debye)
         X       0.1910      Y       0.4602      Z      -0.7731
       Tot       0.9197
    Quadrupole Moments (Debye-Ang)
        XX    -152.4386     XY       7.4641     YY    -168.8964
        XZ      -0.7084     YZ       1.6913     ZZ    -181.8634

 Total job time:  8044.25s(wall), 119733.89s(cpu)
        *  Thank you very much for using Q-Chem.  Have a nice day.  *
