 Q-Chem 4.4, Q-Chem, Inc., Pleasanton, CA (2016)
 Q-Chem 4.4.2 for Intel X86 Linux

User input:
--------------------------------------------------------------
$comment
OPTIMIZATION
$end

$rem
JOBTYPE OPT
EXCHANGE omegaB97X-D
BASIS cc-pVTZ
$end

$molecule
0 1
C          0.00000        0.00000        0.00000
C         -0.65396       -1.22126       -0.00000
C          1.38563        0.00000        0.00000
C          0.09526       -2.37957        0.00866
N          2.11912       -1.10562        0.01199
C          1.48546       -2.27640        0.02149
C          2.30642       -3.51253        0.03449
N          1.74513       -4.60745       -0.39909
C          3.65824       -3.56714        0.50995
C          2.40434       -5.79109       -0.42442
N          4.38617       -2.58332        1.04242
C          4.35289       -4.81920        0.47143
C          3.70163       -5.99343       -0.01477
S          5.80914       -3.21778        1.41887
N          5.59255       -4.74484        0.95148
C          4.33823       -7.30129       -0.04468
S          5.27519       -7.90915        1.26277
C          4.30992       -8.26286       -1.05510
C          5.66249       -9.38870        0.50802
N          3.65727       -8.15265       -2.24601
C          5.05502       -9.44311       -0.74075
C          6.48615      -10.39088        1.14567
C          3.76618       -9.16584       -3.04851
N          5.14757      -10.48698       -1.60791
C          6.52046      -11.73476        0.89281
S          7.62031       -9.97948        2.39200
C          4.51536      -10.34012       -2.73158
C          7.44589      -12.42881        1.70837
C          8.10739      -11.61137        2.56984
H         -0.54853        0.93120        0.00000
H         -1.73532       -1.26909       -0.00410
H          1.93662        0.93286       -0.01167
H         -0.36319       -3.35650        0.00329
H          1.82722       -6.62671       -0.78554
H          3.25895       -9.09813       -4.00512
H          5.90264      -12.19176        0.13833
H          4.56831      -11.15430       -3.44614
H          7.60411      -13.49519        1.65493
H          8.85817      -11.87971        3.29323
$end

$opt
CONSTRAINT
tors 4 6 7 8 21.82164
tors 10 13 16 17 -135.00000
tors 17 19 22 25 156.39459
ENDCONSTRAINT
$end
--------------------------------------------------------------

   16   -2291.1483303408      5.59E-09 Convergence criterion met
 Total energy in the final basis set = -2291.1483303408
   12   -2291.1489966849      9.18E-09 Convergence criterion met
 Total energy in the final basis set = -2291.1489966849
   12   -2291.1491226335      4.43E-09 Convergence criterion met
 Total energy in the final basis set = -2291.1491226335
   11   -2291.1491813106      9.86E-09 Convergence criterion met
 Total energy in the final basis set = -2291.1491813106
   11   -2291.1492041918      4.98E-09 Convergence criterion met
 Total energy in the final basis set = -2291.1492041918
   10   -2291.1492121640      9.75E-09 Convergence criterion met
 Total energy in the final basis set = -2291.1492121640
    9   -2291.1492135202      8.46E-09 Convergence criterion met
 Total energy in the final basis set = -2291.1492135202

             Standard Nuclear Orientation (Angstroms)
    I     Atom           X                Y                Z
 ----------------------------------------------------------------
    1      C       7.6265798458     0.4009611812     0.5530490433
    2      C       6.8698919102     1.2270165541     1.3679234295
    3      C       6.9626936829    -0.4408178071    -0.3248554774
    4      C       5.4929123946     1.1761889143     1.2749110835
    5      N       5.6414099537    -0.5044543619    -0.4213001594
    6      C       4.9195602809     0.2865409534     0.3689653791
    7      C       3.4415472084     0.2284518198     0.2382099743
    8      N       2.7656211543     1.2737011256     0.6295138188
    9      C       2.7376695848    -0.9156218333    -0.2639864033
   10      C       1.4142221077     1.3222632540     0.5334102019
   11      N       3.2339964374    -2.1011012527    -0.6257396543
   12      C       1.3121429018    -0.8509554705    -0.3726602204
   13      C       0.6211778249     0.3316265356     0.0180358328
   14      S       1.9835554916    -3.0009769023    -1.0686881193
   15      N       0.7631247544    -1.9760468665    -0.8306340050
   16      C      -0.8259634338     0.4675983702    -0.0645718062
   17      S      -1.8996703975    -0.7834332787     0.3953777901
   18      C      -1.5584035533     1.5970344413    -0.3946441767
   19      C      -3.3191611592     0.1323748271     0.1394424345
   20      N      -1.0306074625     2.7841114265    -0.8109982495
   21      C      -2.9729248460     1.4084563335    -0.2848991102
   22      C      -4.6386702772    -0.4188544762     0.3607180325
   23      C      -1.8952356542     3.7084599985    -1.0892017247
   24      N      -3.8495048627     2.4062854670    -0.5891959466
   25      C      -5.7966723444     0.2576894771     0.6303426899
   26      S      -4.9265325012    -2.1273590698     0.3252761120
   27      C      -3.3112147873     3.5202421894    -0.9763262180
   28      C      -6.9075097073    -0.6002040475     0.8134533707
   29      C      -6.5869778867    -1.9144814268     0.6847622854
   30      H       8.7066206842     0.4078156267     0.5918455803
   31      H       7.3473040679     1.9017708552     2.0653357384
   32      H       7.5210979139    -1.0942577407    -0.9850914299
   33      H       4.8561639668     1.8039149168     1.8787738263
   34      H       0.9630503302     2.2378469228     0.8884320996
   35      H      -1.5139001992     4.6646309266    -1.4309916451
   36      H      -5.8368124565     1.3334167606     0.6859731690
   37      H      -3.9772314259     4.3383373224    -1.2274622408
   38      H      -7.9049121777    -0.2528171431     1.0354330879
   39      H      -7.2334769667    -2.7704995300     0.7743970762
 ----------------------------------------------------------------

    9   -2291.1492138747      4.37E-09 Convergence criterion met
 Total energy in the final basis set = -2291.1492138747
 Final energy is   -2291.14921387468
 **  OPTIMIZATION CONVERGED  **

                    Orbital Energies (a.u.)
 --------------------------------------------------------------

 Alpha MOs
 -- Occupied --
-89.146 -89.100 -89.079 -14.482 -14.479 -14.461 -14.461 -14.447
-14.435 -10.355 -10.355 -10.351 -10.345 -10.343 -10.343 -10.339
-10.339 -10.337 -10.337 -10.334 -10.332 -10.329 -10.324 -10.319
-10.310 -10.302 -10.299 -10.295 -10.293  -8.156  -8.115  -8.095
 -6.106  -6.100  -6.100  -6.063  -6.060  -6.058  -6.044  -6.040
 -6.038  -1.143  -1.100  -1.070  -1.050  -1.028  -1.013  -1.003
 -0.987  -0.926  -0.913  -0.897  -0.879  -0.868  -0.854  -0.838
 -0.812  -0.777  -0.771  -0.748  -0.739  -0.730  -0.718  -0.711
 -0.672  -0.655  -0.647  -0.630  -0.629  -0.621  -0.606  -0.603
 -0.589  -0.577  -0.568  -0.563  -0.558  -0.546  -0.542  -0.526
 -0.512  -0.506  -0.502  -0.500  -0.494  -0.492  -0.487  -0.481
 -0.473  -0.467  -0.460  -0.460  -0.449  -0.440  -0.428  -0.426
 -0.421  -0.412  -0.397  -0.376  -0.372  -0.361  -0.357  -0.352
 -0.342  -0.339  -0.336  -0.334  -0.319  -0.268

          Ground-State Mulliken Net Atomic Charges

     Atom                 Charge (a.u.)
  ----------------------------------------
      1 C                    -0.091309
      2 C                    -0.129112
      3 C                    -0.078966
      4 C                    -0.117153
      5 N                    -0.144607
      6 C                     0.080509
      7 C                     0.107588
      8 N                    -0.176859
      9 C                    -0.011830
     10 C                    -0.065879
     11 N                    -0.220383
     12 C                     0.039178
     13 C                     0.055118
     14 S                     0.409027
     15 N                    -0.290725
     16 C                    -0.061923
     17 S                     0.189255
     18 C                     0.028416
     19 C                    -0.058760
     20 N                    -0.157172
     21 C                     0.048723
     22 C                    -0.016401
     23 C                    -0.045903
     24 N                    -0.160725
     25 C                    -0.141325
     26 S                     0.101270
     27 C                    -0.049290
     28 C                    -0.157074
     29 C                    -0.181761
     30 H                     0.133025
     31 H                     0.120059
     32 H                     0.118854
     33 H                     0.135341
     34 H                     0.127399
     35 H                     0.131221
     36 H                     0.137041
     37 H                     0.127894
     38 H                     0.130584
     39 H                     0.136657
  ----------------------------------------
  Sum of atomic charges =     0.000000

                    Cartesian Multipole Moments
 -----------------------------------------------------------------
    Charge (ESU x 10^10)
                 0.0000
    Dipole Moment (Debye)
         X      -0.0886      Y       1.2358      Z       1.0908
       Tot       1.6508
    Quadrupole Moments (Debye-Ang)
        XX    -152.3276     XY       1.2628     YY    -167.7144
        XZ       3.8708     YZ       0.0954     ZZ    -183.3246

 Total job time:  7145.80s(wall), 106623.47s(cpu)
        *  Thank you very much for using Q-Chem.  Have a nice day.  *
