 Q-Chem 4.4, Q-Chem, Inc., Pleasanton, CA (2016)
 Q-Chem 4.4.2 for Intel X86 Linux

User input:
--------------------------------------------------------------
$comment
OPTIMIZATION
$end

$rem
JOBTYPE OPT
EXCHANGE omegaB97X-D
BASIS cc-pVTZ
$end

$molecule
0 1
C          0.00000        0.00000        0.00000
C         -0.65396       -1.22126       -0.00000
C          1.38563        0.00000        0.00000
C          0.09526       -2.37957        0.00866
N          2.11912       -1.10562        0.01199
C          1.48546       -2.27640        0.02149
C          2.30642       -3.51253        0.03449
N          1.74513       -4.60745       -0.39909
C          3.65824       -3.56714        0.50995
C          2.40434       -5.79109       -0.42442
N          4.38617       -2.58332        1.04242
C          4.35289       -4.81920        0.47143
C          3.70163       -5.99343       -0.01477
S          5.80914       -3.21778        1.41887
N          5.59255       -4.74484        0.95148
C          4.33823       -7.30129       -0.04468
S          5.75509       -7.62463       -0.96380
C          3.96804       -8.46771        0.62525
C          5.86338       -9.26744       -0.51862
N          2.90230       -8.60497        1.46293
C          4.83203       -9.57683        0.36002
C          6.91133      -10.13468       -1.00758
C          2.73443       -9.78304        1.97906
N          4.62484      -10.79923        0.91949
C          7.38614      -11.28300       -0.43572
S          7.74736       -9.80595       -2.49146
C          3.59748      -10.88842        1.70719
C          8.42605      -11.88558       -1.18322
C          8.73155      -11.19585       -2.31409
H         -0.54853        0.93120        0.00000
H         -1.73532       -1.26909       -0.00410
H          1.93662        0.93286       -0.01167
H         -0.36319       -3.35650        0.00329
H          1.82722       -6.62671       -0.78554
H          1.88878       -9.91718        2.64528
H          6.98591      -11.67241        0.48515
H          3.40348      -11.84975        2.17035
H          8.92664      -12.79340       -0.88269
H          9.47632      -11.43365       -3.05417
$end

$opt
CONSTRAINT
tors 4 6 7 8 21.82164
tors 10 13 16 17 120.00000
tors 17 19 22 25 156.39459
ENDCONSTRAINT
$end
--------------------------------------------------------------

   16   -2291.1460297210      4.81E-09 Convergence criterion met
 Total energy in the final basis set = -2291.1460297210
   12   -2291.1468818893      9.12E-09 Convergence criterion met
 Total energy in the final basis set = -2291.1468818893
   12   -2291.1470172042      4.60E-09 Convergence criterion met
 Total energy in the final basis set = -2291.1470172042
   12   -2291.1470841648      5.41E-09 Convergence criterion met
 Total energy in the final basis set = -2291.1470841648
   11   -2291.1471301508      9.35E-09 Convergence criterion met
 Total energy in the final basis set = -2291.1471301508
   12   -2291.1471562303      4.10E-09 Convergence criterion met
 Total energy in the final basis set = -2291.1471562303
   10   -2291.1471625169      8.28E-09 Convergence criterion met
 Total energy in the final basis set = -2291.1471625169
    9   -2291.1471642313      7.45E-09 Convergence criterion met
 Total energy in the final basis set = -2291.1471642313

             Standard Nuclear Orientation (Angstroms)
    I     Atom           X                Y                Z
 ----------------------------------------------------------------
    1      C       7.5713979993     0.1526379925    -1.0227298472
    2      C       6.8751148731     1.3328623054    -1.2249152025
    3      C       6.8662580647    -0.9591700971    -0.5901754272
    4      C       5.5151283442     1.3539900011    -0.9844011227
    5      N       5.5619413364    -0.9518457478    -0.3504934311
    6      C       4.8994817333     0.1867270161    -0.5388323291
    7      C       3.4333885447     0.1788422552    -0.2976534531
    8      N       2.7259689667     1.0898789907    -0.9076604163
    9      C       2.7808667146    -0.7602847451     0.5693929892
   10      C       1.3773827672     1.1451084791    -0.7718893479
   11      N       3.3304982892    -1.7112270368     1.3290342795
   12      C       1.3582370714    -0.6906323177     0.7063405466
   13      C       0.6279842808     0.3085875531     0.0059196036
   14      S       2.1219520992    -2.4287060049     2.1004879806
   15      N       0.8574865275    -1.5977348615     1.5459215589
   16      C      -0.8261171671     0.4238668225     0.0843592003
   17      S      -1.8787444657    -0.8451378545    -0.3654444487
   18      C      -1.5688508832     1.5446267206     0.4007319693
   19      C      -3.3120355970     0.0631047348    -0.1466095172
   20      N      -1.0498664598     2.7406596167     0.8060654712
   21      C      -2.9815243787     1.3414694098     0.2813580010
   22      C      -4.6264267536    -0.5044536857    -0.3615927301
   23      C      -1.9242464733     3.6597835139     1.0670594983
   24      N      -3.8674966434     2.3387721876     0.5635207723
   25      C      -5.8148586533    -0.0881370196     0.1721361485
   26      S      -4.8689676589    -1.8825880420    -1.3834295948
   27      C      -3.3392354737     3.4595491340     0.9431126996
   28      C      -6.9132239388    -0.8820990588    -0.2366694755
   29      C      -6.5530010425    -1.8920230255    -1.0711624353
   30      H       8.6356360901     0.0882909279    -1.1995998502
   31      H       7.3830669049     2.2235408516    -1.5686576372
   32      H       7.3728467655    -1.9046591655    -0.4343436308
   33      H       4.9216105830     2.2424295522    -1.1347160757
   34      H       0.8891655126     1.9327577639    -1.3301781751
   35      H      -1.5545668870     4.6237689158     1.3998886883
   36      H      -5.8839411177     0.7656051823     0.8262231325
   37      H      -4.0123572679     4.2777056825     1.1746109284
   38      H      -7.9304914438    -0.7079820829     0.0789745598
   39      H      -7.1815617988    -2.6374371000    -1.5273592627
 ----------------------------------------------------------------

    8   -2291.1471644979      7.51E-09 Convergence criterion met
 Total energy in the final basis set = -2291.1471644979
 Final energy is   -2291.14716449790
 **  OPTIMIZATION CONVERGED  **

                    Orbital Energies (a.u.)
 --------------------------------------------------------------

 Alpha MOs
 -- Occupied --
-89.146 -89.100 -89.079 -14.482 -14.478 -14.461 -14.460 -14.448
-14.436 -10.357 -10.354 -10.351 -10.345 -10.343 -10.342 -10.338
-10.338 -10.337 -10.337 -10.334 -10.334 -10.328 -10.325 -10.319
-10.311 -10.302 -10.300 -10.295 -10.292  -8.156  -8.115  -8.094
 -6.106  -6.100  -6.100  -6.064  -6.060  -6.058  -6.044  -6.040
 -6.037  -1.142  -1.099  -1.071  -1.051  -1.028  -1.012  -1.003
 -0.986  -0.926  -0.913  -0.897  -0.879  -0.868  -0.854  -0.838
 -0.812  -0.777  -0.770  -0.748  -0.739  -0.730  -0.720  -0.711
 -0.672  -0.654  -0.647  -0.630  -0.629  -0.621  -0.605  -0.603
 -0.591  -0.577  -0.569  -0.562  -0.559  -0.544  -0.543  -0.526
 -0.512  -0.506  -0.502  -0.501  -0.494  -0.492  -0.486  -0.481
 -0.473  -0.468  -0.461  -0.456  -0.450  -0.439  -0.428  -0.425
 -0.422  -0.412  -0.397  -0.376  -0.369  -0.365  -0.359  -0.350
 -0.342  -0.339  -0.337  -0.333  -0.316  -0.272

          Ground-State Mulliken Net Atomic Charges

     Atom                 Charge (a.u.)
  ----------------------------------------
      1 C                    -0.091179
      2 C                    -0.127663
      3 C                    -0.080086
      4 C                    -0.119940
      5 N                    -0.144778
      6 C                     0.082095
      7 C                     0.110418
      8 N                    -0.176074
      9 C                    -0.012916
     10 C                    -0.059437
     11 N                    -0.221220
     12 C                     0.033936
     13 C                     0.043034
     14 S                     0.409332
     15 N                    -0.278284
     16 C                    -0.071119
     17 S                     0.188587
     18 C                     0.028201
     19 C                    -0.054071
     20 N                    -0.147121
     21 C                     0.041846
     22 C                    -0.014431
     23 C                    -0.048988
     24 N                    -0.162468
     25 C                    -0.139283
     26 S                     0.099414
     27 C                    -0.049789
     28 C                    -0.157326
     29 C                    -0.181666
     30 H                     0.133199
     31 H                     0.120125
     32 H                     0.120085
     33 H                     0.138628
     34 H                     0.126780
     35 H                     0.131280
     36 H                     0.136578
     37 H                     0.127630
     38 H                     0.130279
     39 H                     0.136389
  ----------------------------------------
  Sum of atomic charges =     0.000000

                    Cartesian Multipole Moments
 -----------------------------------------------------------------
    Charge (ESU x 10^10)
                 0.0000
    Dipole Moment (Debye)
         X       0.1531      Y       1.5393      Z       0.0254
       Tot       1.5471
    Quadrupole Moments (Debye-Ang)
        XX    -151.1101     XY       3.8805     YY    -168.5415
        XZ      -5.0543     YZ       2.6991     ZZ    -183.1863

 Total job time:  7949.70s(wall), 118343.81s(cpu)
        *  Thank you very much for using Q-Chem.  Have a nice day.  *
