 Q-Chem 4.4, Q-Chem, Inc., Pleasanton, CA (2016)
 Q-Chem 4.4.2 for Intel X86 Linux

User input:
--------------------------------------------------------------
$comment
OPTIMIZATION
$end

$rem
JOBTYPE OPT
EXCHANGE omegaB97X-D
BASIS cc-pVTZ
$end

$molecule
0 1
C          0.00000        0.00000        0.00000
C         -0.65396       -1.22126       -0.00000
C          1.38563        0.00000        0.00000
C          0.09526       -2.37957        0.00866
N          2.11912       -1.10562        0.01199
C          1.48546       -2.27640        0.02149
C          2.30642       -3.51253        0.03449
N          1.74513       -4.60745       -0.39909
C          3.65824       -3.56714        0.50995
C          2.40434       -5.79109       -0.42442
N          4.38617       -2.58332        1.04242
C          4.35289       -4.81920        0.47143
C          3.70163       -5.99343       -0.01477
S          5.80914       -3.21778        1.41887
N          5.59255       -4.74484        0.95148
C          4.33823       -7.30129       -0.04468
S          5.79807       -7.64398        0.79689
C          3.92061       -8.46051       -0.69904
C          5.89827       -9.26892        0.28871
N          2.79786       -8.58895       -1.46016
C          4.80023       -9.57247       -0.50728
C          6.98166      -10.13919        0.68654
C          2.59905       -9.75827       -1.98512
N          4.55978      -10.78530       -1.07422
C          6.98354      -11.50592        0.74277
S          8.52575       -9.51071        1.16583
C          3.48310      -10.86401       -1.79426
C          8.21803      -12.04093        1.18217
C          9.14256      -11.08196        1.45333
H         -0.54853        0.93120        0.00000
H         -1.73532       -1.26909       -0.00410
H          1.93662        0.93286       -0.01167
H         -0.36319       -3.35650        0.00329
H          1.82722       -6.62671       -0.78554
H          1.71368       -9.88245       -2.59966
H          6.12321      -12.09191        0.46662
H          3.26128      -11.81761       -2.26088
H          8.40231      -13.09843        1.29524
H         10.15319      -11.21519        1.79952
$end

$opt
CONSTRAINT
tors 4 6 7 8 21.82164
tors 10 13 16 17 -165.00000
tors 17 19 22 25 156.39459
ENDCONSTRAINT
$end
--------------------------------------------------------------

   16   -2291.1502700683      5.54E-09 Convergence criterion met
 Total energy in the final basis set = -2291.1502700683
   12   -2291.1504769160      4.83E-09 Convergence criterion met
 Total energy in the final basis set = -2291.1504769160
   12   -2291.1505231931      5.09E-09 Convergence criterion met
 Total energy in the final basis set = -2291.1505231931
   10   -2291.1505469780      8.53E-09 Convergence criterion met
 Total energy in the final basis set = -2291.1505469780
   10   -2291.1505534713      6.47E-09 Convergence criterion met
 Total energy in the final basis set = -2291.1505534713
    9   -2291.1505549707      4.89E-09 Convergence criterion met
 Total energy in the final basis set = -2291.1505549707

             Standard Nuclear Orientation (Angstroms)
    I     Atom           X                Y                Z
 ----------------------------------------------------------------
    1      C       7.6731228978     0.3481657326     0.0816898073
    2      C       6.9947627169     1.4018606033     0.6720450652
    3      C       6.9299907234    -0.6828880848    -0.4702712108
    4      C       5.6138512610     1.3810263495     0.6877102152
    5      N       5.6041982498    -0.7184989713    -0.4584571693
    6      C       4.9573196497     0.2935839009     0.1152026408
    7      C       3.4734250161     0.2592315415     0.1020265856
    8      N       2.8463716974     1.3969458040     0.2184000913
    9      C       2.7095863963    -0.9482971559    -0.0054918794
   10      C       1.4931864001     1.4761725079     0.1943836455
   11      N       3.1550022413    -2.2056707112    -0.0460138033
   12      C       1.2807808849    -0.8586547110    -0.0355863645
   13      C       0.6343873592     0.4121687454     0.0472579042
   14      S       1.8609873544    -3.1470954092    -0.1315713575
   15      N       0.6832460565    -2.0465562681    -0.1169870535
   16      C      -0.8120341630     0.5677587020     0.0041348874
   17      S      -1.8871778750    -0.7597244254     0.1985910525
   18      C      -1.5651212372     1.7295623578    -0.1562104428
   19      C      -3.3105270651     0.1686099425     0.0641079659
   20      N      -1.0659123359     2.9841745218    -0.3439090919
   21      C      -2.9777898607     1.5039088612    -0.1233220335
   22      C      -4.6247753939    -0.4293938252     0.1521974266
   23      C      -1.9439770085     3.9282398651    -0.4847276418
   24      N      -3.8699272848     2.5195038331    -0.2786464081
   25      C      -5.8024095854     0.1734233689     0.5015038921
   26      S      -4.8791397183    -2.1105930204    -0.1820595158
   27      C      -3.3539054995     3.6966677661    -0.4523871292
   28      C      -6.9004860670    -0.7191956017     0.5057081697
   29      C      -6.5516085465    -1.9873392025     0.1629620964
   30      H       8.7530096144     0.3225924107     0.0456442829
   31      H       7.5328777127     2.2292403949     1.1141490991
   32      H       7.4224663322    -1.5219132912    -0.9481147655
   33      H       5.0368045907     2.1808557529     1.1253267790
   34      H       1.0914071451     2.4731682554     0.2824574720
   35      H      -1.5740071314     4.9363565450    -0.6370287295
   36      H      -5.8652843026     1.2231061842     0.7378033458
   37      H      -4.0347627035     4.5302847150    -0.5835023275
   38      H      -7.9095234124    -0.4295439530     0.7561973434
   39      H      -7.1828237365    -2.8562150937     0.0885568930
 ----------------------------------------------------------------

    9   -2291.1505553699      2.87E-09 Convergence criterion met
 Total energy in the final basis set = -2291.1505553699
 Final energy is   -2291.15055536987
 **  OPTIMIZATION CONVERGED  **

                    Orbital Energies (a.u.)
 --------------------------------------------------------------

 Alpha MOs
 -- Occupied --
-89.146 -89.099 -89.079 -14.482 -14.479 -14.462 -14.462 -14.445
-14.434 -10.355 -10.352 -10.350 -10.345 -10.343 -10.343 -10.342
-10.341 -10.338 -10.336 -10.334 -10.330 -10.327 -10.323 -10.319
-10.309 -10.301 -10.298 -10.295 -10.293  -8.156  -8.113  -8.095
 -6.106  -6.101  -6.100  -6.062  -6.058  -6.057  -6.044  -6.040
 -6.038  -1.143  -1.101  -1.068  -1.048  -1.029  -1.013  -1.003
 -0.986  -0.925  -0.912  -0.896  -0.879  -0.869  -0.853  -0.838
 -0.811  -0.777  -0.772  -0.748  -0.738  -0.731  -0.716  -0.711
 -0.672  -0.656  -0.648  -0.629  -0.628  -0.621  -0.607  -0.603
 -0.587  -0.576  -0.566  -0.561  -0.557  -0.548  -0.542  -0.526
 -0.512  -0.507  -0.501  -0.499  -0.493  -0.492  -0.486  -0.483
 -0.474  -0.465  -0.464  -0.461  -0.451  -0.442  -0.429  -0.426
 -0.419  -0.412  -0.393  -0.377  -0.372  -0.360  -0.356  -0.351
 -0.343  -0.339  -0.335  -0.334  -0.321  -0.263

          Ground-State Mulliken Net Atomic Charges

     Atom                 Charge (a.u.)
  ----------------------------------------
      1 C                    -0.092145
      2 C                    -0.129258
      3 C                    -0.080434
      4 C                    -0.118730
      5 N                    -0.145622
      6 C                     0.083961
      7 C                     0.099098
      8 N                    -0.176728
      9 C                    -0.016609
     10 C                    -0.081850
     11 N                    -0.218266
     12 C                     0.055463
     13 C                     0.057790
     14 S                     0.405509
     15 N                    -0.306039
     16 C                    -0.071385
     17 S                     0.179133
     18 C                     0.056826
     19 C                    -0.057572
     20 N                    -0.169838
     21 C                     0.061337
     22 C                    -0.010335
     23 C                    -0.046282
     24 N                    -0.160060
     25 C                    -0.141820
     26 S                     0.101979
     27 C                    -0.045873
     28 C                    -0.156913
     29 C                    -0.181609
     30 H                     0.133025
     31 H                     0.119595
     32 H                     0.118990
     33 H                     0.137259
     34 H                     0.136207
     35 H                     0.129207
     36 H                     0.137244
     37 H                     0.128170
     38 H                     0.130292
     39 H                     0.136283
  ----------------------------------------
  Sum of atomic charges =     0.000000

                    Cartesian Multipole Moments
 -----------------------------------------------------------------
    Charge (ESU x 10^10)
                 0.0000
    Dipole Moment (Debye)
         X      -0.2914      Y       1.3857      Z       0.8168
       Tot       1.6347
    Quadrupole Moments (Debye-Ang)
        XX    -151.8017     XY       2.4027     YY    -165.1519
        XZ       1.8187     YZ       1.3392     ZZ    -186.1174

 Total job time:  6322.79s(wall), 94383.96s(cpu)
        *  Thank you very much for using Q-Chem.  Have a nice day.  *
