 Q-Chem 4.4, Q-Chem, Inc., Pleasanton, CA (2016)
 Q-Chem 4.4.2 for Intel X86 Linux

User input:
--------------------------------------------------------------
$comment
OPTIMIZATION
$end

$rem
JOBTYPE OPT
EXCHANGE omegaB97X-D
BASIS cc-pVTZ
$end

$molecule
0 1
C          0.00000        0.00000        0.00000
C         -0.65396       -1.22126       -0.00000
C          1.38563        0.00000        0.00000
C          0.09526       -2.37957        0.00866
N          2.11912       -1.10562        0.01199
C          1.48546       -2.27640        0.02149
C          2.30642       -3.51253        0.03449
N          1.74513       -4.60745       -0.39909
C          3.65824       -3.56714        0.50995
C          2.40434       -5.79109       -0.42442
N          4.38617       -2.58332        1.04242
C          4.35289       -4.81920        0.47143
C          3.70163       -5.99343       -0.01477
S          5.80914       -3.21778        1.41887
N          5.59255       -4.74484        0.95148
C          4.33823       -7.30129       -0.04468
S          3.69186       -8.62982       -0.92447
C          5.51967       -7.71127        0.57379
C          4.91753       -9.72875       -0.47859
N          6.32722       -6.93528        1.34971
C          5.84821       -9.08140        0.32526
C          4.92649      -11.10263       -0.92775
C          7.37926       -7.51884        1.83458
N          6.96093       -9.66057        0.85122
C          5.99953      -11.94425       -1.03449
S          3.47063      -11.91238       -1.41118
C          7.70020       -8.88866        1.58710
C          5.65075      -13.22887       -1.51551
C          4.32094      -13.35523       -1.76762
H         -0.54853        0.93120        0.00000
H         -1.73532       -1.26909       -0.00410
H          1.93662        0.93286       -0.01167
H         -0.36319       -3.35650        0.00329
H          1.82722       -6.62671       -0.78554
H          8.03434       -6.92156        2.45995
H          6.99638      -11.63873       -0.76476
H          8.59568       -9.31903        2.02207
H          6.36694      -14.02132       -1.67089
H          3.79591      -14.21960       -2.13663
$end

$opt
CONSTRAINT
tors 4 6 7 8 21.82164
tors 10 13 16 17 15.00000
tors 17 19 22 25 156.39459
ENDCONSTRAINT
$end
--------------------------------------------------------------

   16   -2291.1227623125      5.62E-09 Convergence criterion met
 Total energy in the final basis set = -2291.1227623125
   15   -2291.1336341419      4.37E-09 Convergence criterion met
 Total energy in the final basis set = -2291.1336341419
   14   -2291.1381614688      4.25E-09 Convergence criterion met
 Total energy in the final basis set = -2291.1381614688
   14   -2291.1399367391      5.11E-09 Convergence criterion met
 Total energy in the final basis set = -2291.1399367391
   13   -2291.1405254988      5.45E-09 Convergence criterion met
 Total energy in the final basis set = -2291.1405254988
   14   -2291.1408719432      4.57E-09 Convergence criterion met
 Total energy in the final basis set = -2291.1408719432
   12   -2291.1409662403      6.91E-09 Convergence criterion met
 Total energy in the final basis set = -2291.1409662403
   11   -2291.1409883917      7.00E-09 Convergence criterion met
 Total energy in the final basis set = -2291.1409883917
   11   -2291.1409966740      7.02E-09 Convergence criterion met
 Total energy in the final basis set = -2291.1409966740

             Standard Nuclear Orientation (Angstroms)
    I     Atom           X                Y                Z
 ----------------------------------------------------------------
    1      C       7.3678902985     1.9142708508     0.0935226104
    2      C       6.4211067330     2.6424565551     0.7949623310
    3      C       6.9461956768     0.7959992968    -0.6074229925
    4      C       5.1048374074     2.2258070649     0.7690011784
    5      N       5.6867311127     0.3810672556    -0.6364285908
    6      C       4.7815858705     1.0805049293     0.0432471073
    7      C       3.3665998860     0.6299444034    -0.0101048536
    8      N       2.4513645269     1.5265115483     0.2386226352
    9      C       2.9631105897    -0.7096750958    -0.3207724683
   10      C       1.1364302958     1.2138055336     0.2226355386
   11      N       3.7423185579    -1.7416367913    -0.6527881395
   12      C       1.5634585623    -1.0302043364    -0.3447884951
   13      C       0.5997946257    -0.0314580707     0.0057223534
   14      S       2.7546096642    -2.9529838356    -1.0087723462
   15      N       1.3210175816    -2.2737850001    -0.7555588746
   16      C      -0.8413313509    -0.2369391402    -0.0826416516
   17      S      -1.8850943174     1.1105277994    -0.3019479376
   18      C      -1.6166303763    -1.3470991921     0.2347288966
   19      C      -3.3337127043     0.2366201960    -0.0786080296
   20      N      -1.1455702796    -2.5554554748     0.6570623986
   21      C      -3.0253263241    -1.0887514973     0.1925821810
   22      C      -4.6328050597     0.8590640002    -0.2077903166
   23      C      -2.0440791079    -3.4518360854     0.9098404153
   24      N      -3.9423746454    -2.0670843670     0.4382870739
   25      C      -5.8291775326     0.2608363409    -0.4955828106
   26      S      -4.8387986072     2.5686925599    -0.0163845642
   27      C      -3.4506893676    -3.2183767200     0.7708024259
   28      C      -6.9025502725     1.1801673473    -0.5687391974
   29      C      -6.5170803221     2.4627898658    -0.3373985614
   30      H       8.4090592573     2.2041270403     0.0852550349
   31      H       6.7053623455     3.5227909899     1.3553313351
   32      H       7.6524191990     0.2041615281    -1.1781962543
   33      H       4.3265060721     2.7616437239     1.2897345614
   34      H       0.4815741427     2.0449051791     0.4553524578
   35      H      -1.6995126700    -4.4193910472     1.2594375243
   36      H      -5.9219130827    -0.8031041504    -0.6409218404
   37      H      -4.1485845180    -4.0238236796     0.9716325885
   38      H      -7.9212058640     0.8986260826    -0.7874668858
   39      H      -7.1234430344     3.3523151994    -0.3316295918
 ----------------------------------------------------------------

    9   -2291.1409975126      5.07E-09 Convergence criterion met
 Total energy in the final basis set = -2291.1409975126
 Final energy is   -2291.14099751261
 **  OPTIMIZATION CONVERGED  **

                    Orbital Energies (a.u.)
 --------------------------------------------------------------

 Alpha MOs
 -- Occupied --
-89.140 -89.101 -89.082 -14.476 -14.472 -14.461 -14.456 -14.446
-14.433 -10.352 -10.352 -10.348 -10.348 -10.343 -10.343 -10.341
-10.341 -10.338 -10.337 -10.336 -10.333 -10.333 -10.323 -10.322
-10.309 -10.300 -10.298 -10.297 -10.296  -8.151  -8.117  -8.097
 -6.101  -6.095  -6.095  -6.066  -6.062  -6.060  -6.047  -6.043
 -6.040  -1.138  -1.099  -1.069  -1.049  -1.027  -1.013  -1.000
 -0.989  -0.925  -0.911  -0.895  -0.879  -0.871  -0.852  -0.840
 -0.814  -0.777  -0.771  -0.745  -0.737  -0.729  -0.720  -0.708
 -0.671  -0.657  -0.648  -0.629  -0.628  -0.622  -0.607  -0.600
 -0.587  -0.575  -0.565  -0.562  -0.557  -0.546  -0.544  -0.526
 -0.512  -0.506  -0.503  -0.501  -0.494  -0.492  -0.489  -0.482
 -0.472  -0.466  -0.463  -0.457  -0.450  -0.441  -0.428  -0.426
 -0.417  -0.410  -0.387  -0.374  -0.371  -0.361  -0.356  -0.352
 -0.344  -0.338  -0.335  -0.330  -0.320  -0.267

          Ground-State Mulliken Net Atomic Charges

     Atom                 Charge (a.u.)
  ----------------------------------------
      1 C                    -0.091538
      2 C                    -0.129842
      3 C                    -0.081741
      4 C                    -0.117151
      5 N                    -0.141055
      6 C                     0.082040
      7 C                     0.108905
      8 N                    -0.177730
      9 C                    -0.015124
     10 C                    -0.123796
     11 N                    -0.223784
     12 C                     0.040696
     13 C                     0.074841
     14 S                     0.404853
     15 N                    -0.256731
     16 C                    -0.062284
     17 S                     0.144386
     18 C                     0.040017
     19 C                    -0.044541
     20 N                    -0.127978
     21 C                     0.048543
     22 C                    -0.009624
     23 C                    -0.050023
     24 N                    -0.163495
     25 C                    -0.138253
     26 S                     0.100100
     27 C                    -0.045734
     28 C                    -0.155548
     29 C                    -0.180282
     30 H                     0.132745
     31 H                     0.119706
     32 H                     0.118645
     33 H                     0.135603
     34 H                     0.125356
     35 H                     0.126647
     36 H                     0.138934
     37 H                     0.126656
     38 H                     0.130757
     39 H                     0.136823
  ----------------------------------------
  Sum of atomic charges =     0.000000

                    Cartesian Multipole Moments
 -----------------------------------------------------------------
    Charge (ESU x 10^10)
                 0.0000
    Dipole Moment (Debye)
         X      -0.8517      Y       0.1349      Z       0.8815
       Tot       1.2331
    Quadrupole Moments (Debye-Ang)
        XX    -154.3424     XY       8.3916     YY    -164.6151
        XZ       4.4573     YZ       0.9779     ZZ    -185.2963

 Total job time:  10257.80s(wall), 152880.50s(cpu)
        *  Thank you very much for using Q-Chem.  Have a nice day.  *
