 Q-Chem 4.4, Q-Chem, Inc., Pleasanton, CA (2016)
 Q-Chem 4.4.2 for Intel X86 Linux

User input:
--------------------------------------------------------------
$comment
OPTIMIZATION
$end

$rem
JOBTYPE OPT
EXCHANGE omegaB97X-D
BASIS cc-pVTZ
$end

$molecule
0 1
C          0.00000        0.00000        0.00000
C         -0.65396       -1.22126       -0.00000
C          1.38563        0.00000        0.00000
C          0.09526       -2.37957        0.00866
N          2.11912       -1.10562        0.01199
C          1.48546       -2.27640        0.02149
C          2.30642       -3.51253        0.03449
N          1.74513       -4.60745       -0.39909
C          3.65824       -3.56714        0.50995
C          2.40434       -5.79109       -0.42442
N          4.38617       -2.58332        1.04242
C          4.35289       -4.81920        0.47143
C          3.70163       -5.99343       -0.01477
S          5.80914       -3.21778        1.41887
N          5.59255       -4.74484        0.95148
C          4.33823       -7.30129       -0.04468
S          5.50854       -7.73864       -1.22616
C          4.15574       -8.38080        0.82004
C          5.74805       -9.32088       -0.63636
N          3.31657       -8.41315        1.89294
C          4.95507       -9.51985        0.48747
C          6.66976      -10.24660       -1.25514
C          3.29531       -9.52339        2.56327
N          4.90648      -10.66887        1.21382
C          7.28586      -11.32613       -0.68405
S          7.13180      -10.09577       -2.92028
C          4.09212      -10.65948        2.22408
C          8.13472      -12.01830       -1.58050
C          8.15612      -11.46434       -2.82170
H         -0.54853        0.93120        0.00000
H         -1.73532       -1.26909       -0.00410
H          1.93662        0.93286       -0.01167
H         -0.36319       -3.35650        0.00329
H          1.82722       -6.62671       -0.78554
H          2.63028       -9.57395        3.41892
H          7.11793      -11.60489        0.34255
H          4.02908      -11.56020        2.82493
H          8.70834      -12.89001       -1.30459
H          8.71286      -11.79088       -3.68331
$end

$opt
CONSTRAINT
tors 4 6 7 8 21.82164
tors 10 13 16 17 105.00000
tors 17 19 22 25 156.39459
ENDCONSTRAINT
$end
--------------------------------------------------------------

   16   -2291.1442803019      4.53E-09 Convergence criterion met
 Total energy in the final basis set = -2291.1442803019
   12   -2291.1452835220      9.44E-09 Convergence criterion met
 Total energy in the final basis set = -2291.1452835220
   12   -2291.1453945246      4.98E-09 Convergence criterion met
 Total energy in the final basis set = -2291.1453945246
   11   -2291.1454244036      6.38E-09 Convergence criterion met
 Total energy in the final basis set = -2291.1454244036
   10   -2291.1454336116      9.52E-09 Convergence criterion met
 Total energy in the final basis set = -2291.1454336116
   11   -2291.1454397225      4.32E-09 Convergence criterion met
 Total energy in the final basis set = -2291.1454397225
   10   -2291.1454423501      6.27E-09 Convergence criterion met
 Total energy in the final basis set = -2291.1454423501
   10   -2291.1454445012      7.25E-09 Convergence criterion met
 Total energy in the final basis set = -2291.1454445012

             Standard Nuclear Orientation (Angstroms)
    I     Atom           X                Y                Z
 ----------------------------------------------------------------
    1      C       7.5609214950    -0.0857272729    -1.1248385805
    2      C       6.8444483768     0.9625842277    -1.6782331348
    3      C       6.8746940221    -1.0245684812    -0.3713702049
    4      C       5.4829536856     1.0306719768    -1.4550943010
    5      N       5.5695694559    -0.9675996335    -0.1430312723
    6      C       4.8875805002     0.0461306770    -0.6700698322
    7      C       3.4208452100     0.0848711750    -0.4336313813
    8      N       2.6972647732     0.7498201602    -1.2916236455
    9      C       2.7880401686    -0.5458341801     0.6901396320
   10      C       1.3468213184     0.8225771616    -1.1664007190
   11      N       3.3573344554    -1.1995308428     1.7060873872
   12      C       1.3655696872    -0.4578059182     0.8115124803
   13      C       0.6176065319     0.2550395202    -0.1636193403
   14      S       2.1634634596    -1.6541768970     2.6751758356
   15      N       0.8826219556    -1.0596899592     1.8988798473
   16      C      -0.8409150106     0.3820096236    -0.0890450661
   17      S      -1.9005081435    -0.8964844760    -0.4859078764
   18      C      -1.5740506049     1.4978695233     0.2525687514
   19      C      -3.3304684889     0.0055963646    -0.2183439806
   20      N      -1.0426159293     2.6976226919     0.6326971694
   21      C      -2.9898050101     1.2882999938     0.1860899859
   22      C      -4.6495260605    -0.5695447589    -0.3797015097
   23      C      -1.9104871290     3.6144645933     0.9196640387
   24      N      -3.8683711703     2.2858306094     0.4920913838
   25      C      -5.8178975691    -0.1542265279     0.1971674978
   26      S      -4.9247099465    -1.9600704880    -1.3761427462
   27      C      -3.3293322518     3.4094386918     0.8463827313
   28      C      -6.9270603891    -0.9586990433    -0.1586869652
   29      C      -6.5948843124    -1.9757334067    -0.9959342038
   30      H       8.6268735114    -0.1812403200    -1.2754806828
   31      H       7.3403081548     1.7155748616    -2.2753547571
   32      H       7.3961595709    -1.8665584018     0.0688257921
   33      H       4.8750178021     1.8196943697    -1.8699417626
   34      H       0.8412573249     1.3876844811    -1.9387955618
   35      H      -1.5338184849     4.5821781676     1.2334889621
   36      H      -5.8651439373     0.7067497709     0.8437812964
   37      H      -3.9956182590     4.2280314978     1.0956540196
   38      H      -7.9313859262    -0.7881741374     0.1977679903
   39      H      -7.2371729665    -2.7304979278    -1.4162245417
 ----------------------------------------------------------------

    9   -2291.1454451081      7.70E-09 Convergence criterion met
 Total energy in the final basis set = -2291.1454451081
 Final energy is   -2291.14544510806
 **  OPTIMIZATION CONVERGED  **

                    Orbital Energies (a.u.)
 --------------------------------------------------------------

 Alpha MOs
 -- Occupied --
-89.146 -89.100 -89.079 -14.482 -14.478 -14.460 -14.459 -14.449
-14.436 -10.358 -10.354 -10.351 -10.344 -10.342 -10.342 -10.338
-10.337 -10.336 -10.336 -10.336 -10.334 -10.327 -10.326 -10.318
-10.312 -10.303 -10.301 -10.294 -10.292  -8.156  -8.115  -8.094
 -6.106  -6.100  -6.100  -6.064  -6.060  -6.058  -6.043  -6.040
 -6.037  -1.142  -1.098  -1.072  -1.052  -1.027  -1.012  -1.003
 -0.986  -0.926  -0.914  -0.898  -0.879  -0.867  -0.854  -0.837
 -0.812  -0.777  -0.770  -0.748  -0.739  -0.729  -0.721  -0.710
 -0.671  -0.654  -0.646  -0.630  -0.629  -0.622  -0.605  -0.602
 -0.592  -0.577  -0.569  -0.563  -0.559  -0.544  -0.542  -0.526
 -0.513  -0.506  -0.502  -0.501  -0.495  -0.491  -0.486  -0.480
 -0.473  -0.468  -0.461  -0.455  -0.450  -0.438  -0.428  -0.424
 -0.422  -0.411  -0.397  -0.376  -0.367  -0.366  -0.359  -0.350
 -0.342  -0.339  -0.337  -0.333  -0.315  -0.275

          Ground-State Mulliken Net Atomic Charges

     Atom                 Charge (a.u.)
  ----------------------------------------
      1 C                    -0.090525
      2 C                    -0.127525
      3 C                    -0.079212
      4 C                    -0.118739
      5 N                    -0.143871
      6 C                     0.080715
      7 C                     0.112425
      8 N                    -0.175570
      9 C                    -0.014427
     10 C                    -0.050174
     11 N                    -0.221323
     12 C                     0.053703
     13 C                     0.012993
     14 S                     0.409124
     15 N                    -0.273850
     16 C                    -0.092828
     17 S                     0.187819
     18 C                     0.049643
     19 C                    -0.053979
     20 N                    -0.146140
     21 C                     0.042832
     22 C                    -0.013707
     23 C                    -0.053023
     24 N                    -0.163051
     25 C                    -0.139136
     26 S                     0.098255
     27 C                    -0.049659
     28 C                    -0.157666
     29 C                    -0.181860
     30 H                     0.133111
     31 H                     0.120314
     32 H                     0.119675
     33 H                     0.138411
     34 H                     0.124882
     35 H                     0.131697
     36 H                     0.136500
     37 H                     0.127624
     38 H                     0.130230
     39 H                     0.136312
  ----------------------------------------
  Sum of atomic charges =     0.000000

                    Cartesian Multipole Moments
 -----------------------------------------------------------------
    Charge (ESU x 10^10)
                 0.0000
    Dipole Moment (Debye)
         X       0.3337      Y       1.4283      Z      -0.2045
       Tot       1.4809
    Quadrupole Moments (Debye-Ang)
        XX    -151.1672     XY       3.0765     YY    -170.5191
        XZ      -6.8705     YZ       1.8099     ZZ    -181.1244

 Total job time:  7789.70s(wall), 115878.93s(cpu)
        *  Thank you very much for using Q-Chem.  Have a nice day.  *
