 Q-Chem 4.4, Q-Chem, Inc., Pleasanton, CA (2016)
 Q-Chem 4.4.2 for Intel X86 Linux

User input:
--------------------------------------------------------------
$comment
OPTIMIZATION
$end

$rem
JOBTYPE OPT
EXCHANGE omegaB97X-D
BASIS cc-pVTZ
$end

$molecule
0 1
C          0.00000        0.00000        0.00000
C         -0.65396       -1.22126       -0.00000
C          1.38563        0.00000        0.00000
C          0.09526       -2.37957        0.00866
N          2.11912       -1.10562        0.01199
C          1.48546       -2.27640        0.02149
C          2.30642       -3.51253        0.03449
N          1.74513       -4.60745       -0.39909
C          3.65824       -3.56714        0.50995
C          2.40434       -5.79109       -0.42442
N          4.38617       -2.58332        1.04242
C          4.35289       -4.81920        0.47143
C          3.70163       -5.99343       -0.01477
S          5.80914       -3.21778        1.41887
N          5.59255       -4.74484        0.95148
C          4.33823       -7.30129       -0.04468
S          4.27997       -8.39401        1.28173
C          5.05837       -7.89798       -1.07993
C          5.20625       -9.61122        0.52733
N          5.30932       -7.34726       -2.30062
C          5.54519       -9.20414       -0.75752
C          5.52874      -10.85779        1.18418
C          6.00667       -8.07368       -3.11820
N          6.27440       -9.93774       -1.64084
C          5.85161      -12.05372        0.60398
S          5.55738      -10.99554        2.91308
C          6.49435       -9.37551       -2.78950
C          6.10719      -13.07676        1.54809
C          5.97988      -12.65297        2.83344
H         -0.54853        0.93120        0.00000
H         -1.73532       -1.26909       -0.00410
H          1.93662        0.93286       -0.01167
H         -0.36319       -3.35650        0.00329
H          1.82722       -6.62671       -0.78554
H          6.22334       -7.65316       -4.09451
H          5.90768      -12.17552       -0.46458
H          7.07283       -9.93357       -3.51766
H          6.36941      -14.08749        1.27473
H          6.11815      -13.22355        3.73581
$end

$opt
CONSTRAINT
tors 4 6 7 8 21.82164
tors 10 13 16 17 -90.00000
tors 17 19 22 25 156.39459
ENDCONSTRAINT
$end
--------------------------------------------------------------

   16   -2291.1435274512      4.72E-09 Convergence criterion met
 Total energy in the final basis set = -2291.1435274512
   13   -2291.1446592221      3.71E-09 Convergence criterion met
 Total energy in the final basis set = -2291.1446592221
   12   -2291.1448093276      6.62E-09 Convergence criterion met
 Total energy in the final basis set = -2291.1448093276
   12   -2291.1448596474      3.89E-09 Convergence criterion met
 Total energy in the final basis set = -2291.1448596474
   11   -2291.1448834993      7.99E-09 Convergence criterion met
 Total energy in the final basis set = -2291.1448834993
   11   -2291.1448974209      7.97E-09 Convergence criterion met
 Total energy in the final basis set = -2291.1448974209
   10   -2291.1449027034      9.64E-09 Convergence criterion met
 Total energy in the final basis set = -2291.1449027034
   10   -2291.1449054636      6.24E-09 Convergence criterion met
 Total energy in the final basis set = -2291.1449054636

             Standard Nuclear Orientation (Angstroms)
    I     Atom           X                Y                Z
 ----------------------------------------------------------------
    1      C      -7.5700895793    -0.3643858065    -1.0226516468
    2      C      -6.7577687413    -0.7242317352    -2.0852192927
    3      C      -6.9672875159     0.0547702331     0.1525878740
    4      C      -5.3871622807    -0.6528322087    -1.9299573107
    5      N      -5.6530038752     0.1202432069     0.3182455045
    6      C      -4.8775518730    -0.2328712361    -0.7036248652
    7      C      -3.4058609735    -0.1353336575    -0.5184626489
    8      N      -2.6776403943    -0.0201712399    -1.5943195214
    9      C      -2.7690568266    -0.1913360524     0.7671120805
   10      C      -1.3255970292     0.0919166126    -1.5195656655
   11      N      -3.3285290039    -0.3826333232     1.9644248704
   12      C      -1.3449294098    -0.0741222794     0.8300848550
   13      C      -0.5973627369     0.0841810687    -0.3677969091
   14      S      -2.1273387691    -0.3853530139     3.0272925729
   15      N      -0.8535375844    -0.1601503291     2.0662447055
   16      C       0.8599298880     0.2558037946    -0.3498133393
   17      S       1.9415655177    -1.0594092657    -0.4549505392
   18      C       1.5708741168     1.4253794295    -0.1970576836
   19      C       3.3541778403    -0.1054425316    -0.2984217560
   20      N       1.0152108527     2.6668495196    -0.0728389468
   21      C       2.9895009268     1.2273553310    -0.1723680643
   22      C       4.6823484288    -0.6812777476    -0.3311652476
   23      C       1.8646121523     3.6338647329     0.0666577147
   24      N       3.8483687186     2.2771062936    -0.0264646622
   25      C       5.8572545034    -0.0626988874    -0.6580971365
   26      S       4.9610899429    -2.3446888789     0.0644619010
   27      C       3.2867585466     3.4389179319     0.0900978372
   28      C       6.9742257801    -0.9304479274    -0.5983467105
   29      C       6.6415915621    -2.1953182486    -0.2298590123
   30      H      -8.6474013943    -0.4043652364    -1.0996902963
   31      H      -7.1855820422    -1.0585721520    -3.0205078372
   32      H      -7.5693685517     0.3539385270     1.0027233141
   33      H      -4.7066051324    -0.9094730240    -2.7268528176
   34      H      -0.8193746227     0.1982593154    -2.4707300487
   35      H       1.4681483678     4.6384876772     0.1687052028
   36      H       5.9049680397     0.9810245357    -0.9231255152
   37      H       3.9351622800     4.2996394582     0.2124648935
   38      H       7.9846932900    -0.6260520364    -0.8244577159
   39      H       7.2893110073    -3.0462813973    -0.1071665974
 ----------------------------------------------------------------

    9   -2291.1449063490      5.91E-09 Convergence criterion met
 Total energy in the final basis set = -2291.1449063490
 Final energy is   -2291.14490634905
 **  OPTIMIZATION CONVERGED  **

                    Orbital Energies (a.u.)
 --------------------------------------------------------------

 Alpha MOs
 -- Occupied --
-89.145 -89.100 -89.079 -14.482 -14.477 -14.460 -14.458 -14.449
-14.436 -10.359 -10.353 -10.351 -10.343 -10.342 -10.341 -10.339
-10.337 -10.336 -10.336 -10.335 -10.334 -10.328 -10.326 -10.318
-10.312 -10.303 -10.301 -10.294 -10.292  -8.155  -8.115  -8.094
 -6.105  -6.100  -6.099  -6.064  -6.060  -6.059  -6.043  -6.039
 -6.037  -1.142  -1.097  -1.072  -1.052  -1.026  -1.012  -1.003
 -0.986  -0.926  -0.914  -0.898  -0.878  -0.867  -0.854  -0.837
 -0.812  -0.777  -0.769  -0.748  -0.739  -0.728  -0.723  -0.709
 -0.671  -0.654  -0.646  -0.630  -0.629  -0.622  -0.604  -0.602
 -0.591  -0.578  -0.570  -0.562  -0.559  -0.544  -0.542  -0.526
 -0.513  -0.505  -0.502  -0.501  -0.495  -0.491  -0.486  -0.480
 -0.472  -0.468  -0.461  -0.455  -0.449  -0.436  -0.428  -0.424
 -0.422  -0.410  -0.397  -0.376  -0.368  -0.365  -0.358  -0.350
 -0.342  -0.339  -0.336  -0.333  -0.316  -0.276

          Ground-State Mulliken Net Atomic Charges

     Atom                 Charge (a.u.)
  ----------------------------------------
      1 C                    -0.090155
      2 C                    -0.127965
      3 C                    -0.079801
      4 C                    -0.117894
      5 N                    -0.142760
      6 C                     0.080401
      7 C                     0.114897
      8 N                    -0.176893
      9 C                    -0.017476
     10 C                    -0.059576
     11 N                    -0.222002
     12 C                     0.071807
     13 C                     0.008965
     14 S                     0.408947
     15 N                    -0.272384
     16 C                    -0.106427
     17 S                     0.185427
     18 C                     0.063528
     19 C                    -0.059453
     20 N                    -0.148310
     21 C                     0.046002
     22 C                    -0.009880
     23 C                    -0.054054
     24 N                    -0.162739
     25 C                    -0.142764
     26 S                     0.099232
     27 C                    -0.049344
     28 C                    -0.156465
     29 C                    -0.183041
     30 H                     0.133428
     31 H                     0.119945
     32 H                     0.120295
     33 H                     0.136592
     34 H                     0.125950
     35 H                     0.132920
     36 H                     0.136748
     37 H                     0.128084
     38 H                     0.130220
     39 H                     0.135991
  ----------------------------------------
  Sum of atomic charges =     0.000000

                    Cartesian Multipole Moments
 -----------------------------------------------------------------
    Charge (ESU x 10^10)
                 0.0000
    Dipole Moment (Debye)
         X      -0.2820      Y       0.0267      Z      -1.1359
       Tot       1.1707
    Quadrupole Moments (Debye-Ang)
        XX    -152.0806     XY       5.2995     YY    -171.1821
        XZ       4.5333     YZ       1.7833     ZZ    -179.6079

 Total job time:  8217.92s(wall), 122482.50s(cpu)
        *  Thank you very much for using Q-Chem.  Have a nice day.  *
