 Q-Chem 4.4, Q-Chem, Inc., Pleasanton, CA (2016)
 Q-Chem 4.4.2 for Intel X86 Linux

User input:
--------------------------------------------------------------
$comment
OPTIMIZATION
$end

$rem
JOBTYPE OPT
EXCHANGE omegaB97X-D
BASIS cc-pVTZ
$end

$molecule
0 1
C          0.00000        0.00000        0.00000
C         -0.65396       -1.22126       -0.00000
C          1.38563        0.00000        0.00000
C          0.09526       -2.37957        0.00866
N          2.11912       -1.10562        0.01199
C          1.48546       -2.27640        0.02149
C          2.30642       -3.51253        0.03449
N          1.74513       -4.60745       -0.39909
C          3.65824       -3.56714        0.50995
C          2.40434       -5.79109       -0.42442
N          4.38617       -2.58332        1.04242
C          4.35289       -4.81920        0.47143
C          3.70163       -5.99343       -0.01477
S          5.80914       -3.21778        1.41887
N          5.59255       -4.74484        0.95148
C          4.33823       -7.30129       -0.04468
S          3.55714       -8.72826        0.51251
C          5.60869       -7.64318       -0.50883
C          4.86813       -9.76791        0.18212
N          6.52392       -6.78488       -1.03990
C          5.90592       -9.03709       -0.38385
C          4.82048      -11.18594        0.45836
C          7.65112       -7.31241       -1.40538
N          7.10012       -9.55555       -0.77791
C          5.55762      -12.18017       -0.12409
S          3.75267      -11.84524        1.65586
C          7.94456       -8.70428       -1.27404
C          5.25306      -13.46588        0.38332
C          4.29281      -13.44012        1.34519
H         -0.54853        0.93120        0.00000
H         -1.73532       -1.26909       -0.00410
H          1.93662        0.93286       -0.01167
H         -0.36319       -3.35650        0.00329
H          1.82722       -6.62671       -0.78554
H          8.39731       -6.64685       -1.82631
H          6.29473      -11.97756       -0.88266
H          8.90700       -9.08468       -1.59852
H          5.72941      -14.37072        0.03778
H          3.87980      -14.27089        1.89127
$end

$opt
CONSTRAINT
tors 4 6 7 8 21.82164
tors 10 13 16 17 -45.00000
tors 17 19 22 25 156.39459
ENDCONSTRAINT
$end
--------------------------------------------------------------

   16   -2291.1456643400      4.49E-09 Convergence criterion met
 Total energy in the final basis set = -2291.1456643400
   12   -2291.1467781968      8.59E-09 Convergence criterion met
 Total energy in the final basis set = -2291.1467781968
   12   -2291.1469623292      5.68E-09 Convergence criterion met
 Total energy in the final basis set = -2291.1469623292
   11   -2291.1470126623      9.79E-09 Convergence criterion met
 Total energy in the final basis set = -2291.1470126623
   10   -2291.1470264330      9.49E-09 Convergence criterion met
 Total energy in the final basis set = -2291.1470264330
   10   -2291.1470308449      8.15E-09 Convergence criterion met
 Total energy in the final basis set = -2291.1470308449
    9   -2291.1470321223      8.93E-09 Convergence criterion met
 Total energy in the final basis set = -2291.1470321223

             Standard Nuclear Orientation (Angstroms)
    I     Atom           X                Y                Z
 ----------------------------------------------------------------
    1      C       7.4657840038     1.4825807977    -0.4562364589
    2      C       6.5590566910     2.5227530282    -0.5767689693
    3      C       6.9727984401     0.2039123600    -0.2499326910
    4      C       5.2092772187     2.2454471726    -0.4820727499
    5      N       5.6802274466    -0.0761447770    -0.1524230463
    6      C       4.8141301538     0.9283449678    -0.2604732946
    7      C       3.3674848942     0.6018714684    -0.1764335539
    8      N       2.5343937735     1.4389272712    -0.7309923601
    9      C       2.8590858638    -0.5565935683     0.5007765239
   10      C       1.1985783113     1.2044084007    -0.7326272275
   11      N       3.5363018228    -1.4515363622     1.2242366787
   12      C       1.4474907504    -0.7902412581     0.5009720608
   13      C       0.5822089717     0.1186081171    -0.1743911530
   14      S       2.4448507326    -2.4655884740     1.8186557923
   15      N       1.0839309981    -1.8502986492     1.2211741875
   16      C      -0.8626759285    -0.0694692484    -0.2065929575
   17      S      -1.9412888134     1.2081611913     0.1514301767
   18      C      -1.5857155699    -1.1964786925    -0.5489501264
   19      C      -3.3597369029     0.2852319483    -0.1000241702
   20      N      -1.0467213432    -2.3769640848    -0.9712017100
   21      C      -3.0019479846    -1.0009048407    -0.4824263842
   22      C      -4.6846889387     0.8438057265     0.0638053068
   23      C      -1.9051265857    -3.3028229705    -1.2561979450
   24      N      -3.8724121199    -2.0083279913    -0.7781606768
   25      C      -5.8517813347     0.4092839502    -0.5019583975
   26      S      -4.9718238442     2.2356792866     1.0555935282
   27      C      -3.3242591641    -3.1234447139    -1.1449776580
   28      C      -6.9691929934     1.1997727846    -0.1411573333
   29      C      -6.6447192098     2.2259623962     0.6880560773
   30      H       8.5307580494     1.6527015903    -0.5261551216
   31      H       6.8985075152     3.5359360177    -0.7440850347
   32      H       7.6490372734    -0.6384435978    -0.1610721140
   33      H       4.4597585705     3.0150579258    -0.5840769933
   34      H       0.6068129942     1.9481449007    -1.2524107083
   35      H      -1.5193817380    -4.2547196751    -1.6051965299
   36      H      -5.8921814657    -0.4563229662    -1.1428024215
   37      H      -3.9834851681    -3.9506906605    -1.3844204721
   38      H      -7.9741604505     1.0122737523    -0.4870558039
   39      H      -7.2946114241     2.9731852470     1.1101818528
 ----------------------------------------------------------------

    9   -2291.1470328071      8.88E-09 Convergence criterion met
 Total energy in the final basis set = -2291.1470328071
 Final energy is   -2291.14703280713
 **  OPTIMIZATION CONVERGED  **

                    Orbital Energies (a.u.)
 --------------------------------------------------------------

 Alpha MOs
 -- Occupied --
-89.143 -89.102 -89.080 -14.479 -14.475 -14.460 -14.458 -14.448
-14.435 -10.355 -10.352 -10.349 -10.346 -10.342 -10.341 -10.339
-10.337 -10.337 -10.337 -10.335 -10.335 -10.330 -10.324 -10.320
-10.310 -10.302 -10.299 -10.296 -10.293  -8.153  -8.117  -8.095
 -6.103  -6.098  -6.097  -6.066  -6.062  -6.061  -6.045  -6.041
 -6.038  -1.140  -1.098  -1.071  -1.051  -1.027  -1.012  -1.001
 -0.987  -0.926  -0.913  -0.896  -0.879  -0.869  -0.853  -0.839
 -0.813  -0.777  -0.770  -0.746  -0.738  -0.729  -0.722  -0.708
 -0.671  -0.655  -0.647  -0.629  -0.629  -0.623  -0.605  -0.601
 -0.589  -0.576  -0.571  -0.560  -0.558  -0.544  -0.543  -0.526
 -0.512  -0.506  -0.502  -0.501  -0.494  -0.492  -0.486  -0.482
 -0.471  -0.469  -0.461  -0.456  -0.451  -0.438  -0.428  -0.426
 -0.419  -0.410  -0.392  -0.375  -0.369  -0.365  -0.358  -0.351
 -0.343  -0.339  -0.336  -0.333  -0.317  -0.271

          Ground-State Mulliken Net Atomic Charges

     Atom                 Charge (a.u.)
  ----------------------------------------
      1 C                    -0.091497
      2 C                    -0.129061
      3 C                    -0.079335
      4 C                    -0.119923
      5 N                    -0.143015
      6 C                     0.082970
      7 C                     0.109312
      8 N                    -0.175748
      9 C                    -0.015428
     10 C                    -0.111463
     11 N                    -0.224878
     12 C                     0.042111
     13 C                     0.079943
     14 S                     0.407465
     15 N                    -0.263169
     16 C                    -0.074874
     17 S                     0.162838
     18 C                     0.047098
     19 C                    -0.058847
     20 N                    -0.138504
     21 C                     0.046002
     22 C                    -0.013268
     23 C                    -0.048900
     24 N                    -0.164477
     25 C                    -0.139946
     26 S                     0.098968
     27 C                    -0.046607
     28 C                    -0.157348
     29 C                    -0.181524
     30 H                     0.132696
     31 H                     0.120885
     32 H                     0.120059
     33 H                     0.136700
     34 H                     0.130667
     35 H                     0.128893
     36 H                     0.136614
     37 H                     0.127324
     38 H                     0.130687
     39 H                     0.136579
  ----------------------------------------
  Sum of atomic charges =     0.000000

                    Cartesian Multipole Moments
 -----------------------------------------------------------------
    Charge (ESU x 10^10)
                 0.0000
    Dipole Moment (Debye)
         X      -0.2649      Y       0.5362      Z      -0.4411
       Tot       0.7431
    Quadrupole Moments (Debye-Ang)
        XX    -153.7325     XY       8.2927     YY    -166.0477
        XZ       2.0487     YZ       3.4243     ZZ    -184.1186

 Total job time:  7139.43s(wall), 106160.64s(cpu)
        *  Thank you very much for using Q-Chem.  Have a nice day.  *
