 Q-Chem 4.4, Q-Chem, Inc., Pleasanton, CA (2016)
 Q-Chem 4.4.2 for Intel X86 Linux

User input:
--------------------------------------------------------------
$comment
OPTIMIZATION
$end

$rem
JOBTYPE OPT
EXCHANGE omegaB97X-D
BASIS cc-pVTZ
$end

$molecule
0 1
C          0.00000        0.00000        0.00000
C         -0.65396       -1.22126       -0.00000
C          1.38563        0.00000        0.00000
C          0.09526       -2.37957        0.00866
N          2.11912       -1.10562        0.01199
C          1.48546       -2.27640        0.02149
C          2.30642       -3.51253        0.03449
N          1.74513       -4.60745       -0.39909
C          3.65824       -3.56714        0.50995
C          2.40434       -5.79109       -0.42442
N          4.38617       -2.58332        1.04242
C          4.35289       -4.81920        0.47143
C          3.70163       -5.99343       -0.01477
S          5.80914       -3.21778        1.41887
N          5.59255       -4.74484        0.95148
C          4.33823       -7.30129       -0.04468
S          4.94970       -8.06996        1.36672
C          4.55388       -8.14225       -1.13677
C          5.51411       -9.46209        0.55918
N          4.19576       -7.88642       -2.42621
C          5.21474       -9.36414       -0.79440
C          6.17462      -10.54496        1.25237
C          4.49682       -8.80464       -3.29146
N          5.51520      -10.30526       -1.72940
C          6.27776      -11.85221        0.86306
S          6.98386      -10.29785        2.76663
C          5.16101      -10.02096       -2.94497
C          6.99330      -12.65091        1.78683
C          7.42927      -11.94821        2.86576
H         -0.54853        0.93120        0.00000
H         -1.73532       -1.26909       -0.00410
H          1.93662        0.93286       -0.01167
H         -0.36319       -3.35650        0.00329
H          1.82722       -6.62671       -0.78554
H          4.22588       -8.62015       -4.32564
H          5.85642      -12.20969       -0.06133
H          5.38556      -10.75033       -3.71561
H          7.16823      -13.70725        1.65053
H          7.99301      -12.31033        3.70839
$end

$opt
CONSTRAINT
tors 4 6 7 8 21.82164
tors 10 13 16 17 -120.00000
tors 17 19 22 25 156.39459
ENDCONSTRAINT
$end
--------------------------------------------------------------

   16   -2291.1461880243      4.88E-09 Convergence criterion met
 Total energy in the final basis set = -2291.1461880243
   12   -2291.1470808905      9.60E-09 Convergence criterion met
 Total energy in the final basis set = -2291.1470808905
   11   -2291.1472199136      9.67E-09 Convergence criterion met
 Total energy in the final basis set = -2291.1472199136
   11   -2291.1472816397      9.40E-09 Convergence criterion met
 Total energy in the final basis set = -2291.1472816397
   11   -2291.1473139246      7.07E-09 Convergence criterion met
 Total energy in the final basis set = -2291.1473139246
   11   -2291.1473294582      8.00E-09 Convergence criterion met
 Total energy in the final basis set = -2291.1473294582
   11   -2291.1473342879      5.28E-09 Convergence criterion met
 Total energy in the final basis set = -2291.1473342879
   10   -2291.1473365356      9.50E-09 Convergence criterion met
 Total energy in the final basis set = -2291.1473365356

             Standard Nuclear Orientation (Angstroms)
    I     Atom           X                Y                Z
 ----------------------------------------------------------------
    1      C      -7.6020754444     0.3583465859    -0.7616015885
    2      C      -6.8166805008     1.0281675760    -1.6852517312
    3      C      -6.9691290880    -0.3267979436     0.2632084786
    4      C      -5.4428307499     0.9820153353    -1.5508823691
    5      N      -5.6512667083    -0.3851727653     0.4005737729
    6      C      -4.9014028811     0.2529376828    -0.4946831977
    7      C      -3.4271206279     0.1996625347    -0.3200782009
    8      N      -2.7264498550     1.1550813815    -0.8664700352
    9      C      -2.7557912530    -0.8529071055     0.3875822535
   10      C      -1.3761045948     1.1990079572    -0.7438826765
   11      N      -3.2803153202    -1.9541017090     0.9309438243
   12      C      -1.3327585296    -0.7886944370     0.5218290610
   13      C      -0.6173717862     0.3019173771    -0.0458481379
   14      S      -2.0545535701    -2.7795587210     1.5534723247
   15      N      -0.8111411312    -1.8259818729     1.1775401228
   16      C       0.8344247534     0.4263366867     0.0472555321
   17      S       1.9022186910    -0.7829516710    -0.5170865764
   18      C       1.5644020505     1.5286600333     0.4500925227
   19      C       3.3250215288     0.1065580028    -0.1882774458
   20      N       1.0313574934     2.6873650466     0.9365620247
   21      C       2.9796401161     1.3482973458     0.3268706870
   22      C       4.6440770784    -0.4304571622    -0.4463049267
   23      C       1.8951265530     3.5915499885     1.2744561819
   24      N       3.8547953795     2.3244611604     0.7008242143
   25      C       5.8044593212     0.2612172982    -0.6602773859
   26      S       4.9294921765    -2.1376614053    -0.5282850467
   27      C       3.3131491409     3.4094984539     1.1580153843
   28      C       6.9151635894    -0.5835296243    -0.8976928582
   29      C       6.5920344396    -1.9029451273    -0.8638320786
   30      H      -8.6807623241     0.3671371832    -0.8284028691
   31      H      -7.2691048215     1.5767143790    -2.5001147538
   32      H      -7.5483755604    -0.8548821064     1.0117010591
   33      H      -4.7851708162     1.4964256839    -2.2343104891
   34      H      -0.8962691595     2.0370890521    -1.2314299476
   35      H       1.5128341476     4.5273926277     1.6677416225
   36      H       5.8463256979     1.3380592277    -0.6376502912
   37      H       3.9770396331     4.2102159194     1.4647686286
   38      H       7.9143449933    -0.2229061447    -1.0884029710
   39      H       7.2386546219    -2.7506852129    -1.0119661726
 ----------------------------------------------------------------

    9   -2291.1473372549      6.83E-09 Convergence criterion met
 Total energy in the final basis set = -2291.1473372549
 Final energy is   -2291.14733725490
 **  OPTIMIZATION CONVERGED  **

                    Orbital Energies (a.u.)
 --------------------------------------------------------------

 Alpha MOs
 -- Occupied --
-89.146 -89.100 -89.079 -14.482 -14.478 -14.461 -14.460 -14.448
-14.436 -10.356 -10.354 -10.351 -10.344 -10.343 -10.342 -10.338
-10.338 -10.338 -10.336 -10.334 -10.334 -10.328 -10.325 -10.319
-10.311 -10.302 -10.300 -10.295 -10.293  -8.156  -8.115  -8.095
 -6.106  -6.100  -6.100  -6.064  -6.060  -6.058  -6.044  -6.040
 -6.037  -1.142  -1.099  -1.071  -1.051  -1.028  -1.013  -1.003
 -0.986  -0.926  -0.913  -0.897  -0.879  -0.868  -0.854  -0.838
 -0.812  -0.777  -0.770  -0.748  -0.739  -0.730  -0.720  -0.711
 -0.672  -0.654  -0.647  -0.630  -0.629  -0.621  -0.605  -0.603
 -0.591  -0.577  -0.569  -0.563  -0.558  -0.545  -0.542  -0.526
 -0.513  -0.506  -0.502  -0.501  -0.494  -0.492  -0.486  -0.481
 -0.473  -0.468  -0.460  -0.458  -0.449  -0.438  -0.428  -0.426
 -0.422  -0.412  -0.398  -0.376  -0.371  -0.362  -0.357  -0.351
 -0.342  -0.339  -0.336  -0.333  -0.318  -0.271

          Ground-State Mulliken Net Atomic Charges

     Atom                 Charge (a.u.)
  ----------------------------------------
      1 C                    -0.091798
      2 C                    -0.127883
      3 C                    -0.079334
      4 C                    -0.118706
      5 N                    -0.144695
      6 C                     0.082687
      7 C                     0.110515
      8 N                    -0.176337
      9 C                    -0.012349
     10 C                    -0.059668
     11 N                    -0.221469
     12 C                     0.036385
     13 C                     0.044117
     14 S                     0.409036
     15 N                    -0.280187
     16 C                    -0.067017
     17 S                     0.190343
     18 C                     0.021946
     19 C                    -0.056280
     20 N                    -0.145894
     21 C                     0.044191
     22 C                    -0.016094
     23 C                    -0.048641
     24 N                    -0.161287
     25 C                    -0.142233
     26 S                     0.101193
     27 C                    -0.049713
     28 C                    -0.156590
     29 C                    -0.182284
     30 H                     0.133315
     31 H                     0.119777
     32 H                     0.119668
     33 H                     0.136170
     34 H                     0.126232
     35 H                     0.131245
     36 H                     0.136711
     37 H                     0.127936
     38 H                     0.130573
     39 H                     0.136420
  ----------------------------------------
  Sum of atomic charges =     0.000000

                    Cartesian Multipole Moments
 -----------------------------------------------------------------
    Charge (ESU x 10^10)
                 0.0000
    Dipole Moment (Debye)
         X      -0.0614      Y       1.0858      Z      -1.1907
       Tot       1.6126
    Quadrupole Moments (Debye-Ang)
        XX    -152.2455     XY      -0.2040     YY    -169.4377
        XZ       4.7777     YZ       0.6115     ZZ    -181.4669

 Total job time:  8003.79s(wall), 119306.19s(cpu)
        *  Thank you very much for using Q-Chem.  Have a nice day.  *
