 Q-Chem 4.4, Q-Chem, Inc., Pleasanton, CA (2016)
 Q-Chem 4.4.2 for Intel X86 Linux

User input:
--------------------------------------------------------------
$comment
OPTIMIZATION
$end

$rem
JOBTYPE OPT
EXCHANGE omegaB97X-D
BASIS cc-pVTZ
$end

$molecule
0 1
C          0.00000        0.00000        0.00000
C         -0.65396       -1.22126       -0.00000
C          1.38563        0.00000        0.00000
C          0.09526       -2.37957        0.00866
N          2.11912       -1.10562        0.01199
C          1.48546       -2.27640        0.02149
C          2.30642       -3.51253        0.03449
N          1.74513       -4.60745       -0.39909
C          3.65824       -3.56714        0.50995
C          2.40434       -5.79109       -0.42442
N          4.38617       -2.58332        1.04242
C          4.35289       -4.81920        0.47143
C          3.70163       -5.99343       -0.01477
S          5.80914       -3.21778        1.41887
N          5.59255       -4.74484        0.95148
C          4.33823       -7.30129       -0.04468
S          6.03877       -7.51089        0.10039
C          3.74552       -8.55778       -0.17244
C          6.00265       -9.21075       -0.03340
N          2.41130       -8.80369       -0.29785
C          4.68586       -9.63603       -0.16227
C          7.20183      -10.01657        0.01114
C          2.07234      -10.05067       -0.40998
N          4.29369      -10.93292       -0.28258
C          7.31479      -11.33581        0.35462
S          8.75393       -9.36370       -0.40560
C          3.01583      -11.12326       -0.40392
C          8.64622      -11.81221        0.29455
C          9.53176      -10.85711       -0.09471
H         -0.54853        0.93120        0.00000
H         -1.73532       -1.26909       -0.00410
H          1.93662        0.93286       -0.01167
H         -0.36319       -3.35650        0.00329
H          1.82722       -6.62671       -0.78554
H          1.01522      -10.27008       -0.51635
H          6.46077      -11.93134        0.62994
H          2.66891      -12.14618       -0.50181
H          8.92783      -12.82532        0.53817
H         10.59649      -10.95319       -0.22153
$end

$opt
CONSTRAINT
tors 4 6 7 8 21.82164
tors 10 13 16 17 165.00000
tors 17 19 22 25 156.39459
ENDCONSTRAINT
$end
--------------------------------------------------------------

   16   -2291.1502168010      5.29E-09 Convergence criterion met
 Total energy in the final basis set = -2291.1502168010
   12   -2291.1503629012      5.73E-09 Convergence criterion met
 Total energy in the final basis set = -2291.1503629012
   12   -2291.1504278057      5.29E-09 Convergence criterion met
 Total energy in the final basis set = -2291.1504278057
   11   -2291.1504545348      7.82E-09 Convergence criterion met
 Total energy in the final basis set = -2291.1504545348
   11   -2291.1504684533      6.78E-09 Convergence criterion met
 Total energy in the final basis set = -2291.1504684533
   10   -2291.1504717193      5.47E-09 Convergence criterion met
 Total energy in the final basis set = -2291.1504717193

             Standard Nuclear Orientation (Angstroms)
    I     Atom           X                Y                Z
 ----------------------------------------------------------------
    1      C       7.6575205794     0.2843217482    -0.4227022402
    2      C       7.0162626403     1.4729909130    -0.1143378774
    3      C       6.8849873278    -0.8545806621    -0.5837776378
    4      C       5.6419701872     1.4737269533     0.0218994398
    5      N       5.5652816827    -0.8695330253    -0.4530731187
    6      C       4.9548052327     0.2739361188    -0.1509306563
    7      C       3.4749281661     0.2558294648    -0.0368348931
    8      N       2.8472438955     1.3855825074    -0.2126453373
    9      C       2.7165158896    -0.9223550095     0.2639203315
   10      C       1.4950749934     1.4706233849    -0.1632575159
   11      N       3.1685784498    -2.1438044646     0.5551876214
   12      C       1.2885774421    -0.8282536887     0.3092439134
   13      C       0.6387186420     0.4215911244     0.0746213057
   14      S       1.8792311233    -3.0550905145     0.8310511554
   15      N       0.6966240548    -1.9826715309     0.6123641765
   16      C      -0.8086178390     0.5735951387     0.0885648596
   17      S      -1.8747370458    -0.7721403217     0.0090731386
   18      C      -1.5684686001     1.7406259645     0.1338042685
   19      C      -3.3034205480     0.1585769138    -0.0091457615
   20      N      -1.0767138235     3.0084532046     0.2299746035
   21      C      -2.9793385282     1.5063385023     0.0826227760
   22      C      -4.6130724608    -0.4514405378    -0.0828480274
   23      C      -1.9599568773     3.9575260806     0.2625517202
   24      N      -3.8765904556     2.5288697862     0.1142486164
   25      C      -5.8105993767     0.0709880791     0.3240957631
   26      S      -4.8339641676    -2.0438225522    -0.7306995343
   27      C      -3.3676443004     3.7186994078     0.2003923488
   28      C      -6.8970467469    -0.8125329122     0.1192281656
   29      C      -6.5196445769    -1.9939334653    -0.4366066707
   30      H       8.7308232260     0.2365674158    -0.5402494443
   31      H       7.5793824684     2.3872818399     0.0144767662
   32      H       7.3477556766    -1.8018468903    -0.8358123125
   33      H       5.0904241251     2.3724085629     0.2511132480
   34      H       1.0924784533     2.4579205905    -0.3260109528
   35      H      -1.5958822936     4.9760899657     0.3423771789
   36      H      -5.8931801633     1.0572061009     0.7505983916
   37      H      -4.0512518127     4.5600220862     0.2253848515
   38      H      -7.9186322996    -0.5777036476     0.3763066575
   39      H      -7.1392790987    -2.8351576729    -0.6962114312
 ----------------------------------------------------------------

    9   -2291.1504725934      4.80E-09 Convergence criterion met
 Total energy in the final basis set = -2291.1504725934
 Final energy is   -2291.15047259342
 **  OPTIMIZATION CONVERGED  **

                    Orbital Energies (a.u.)
 --------------------------------------------------------------

 Alpha MOs
 -- Occupied --
-89.146 -89.099 -89.079 -14.482 -14.479 -14.463 -14.462 -14.445
-14.434 -10.355 -10.352 -10.350 -10.345 -10.344 -10.343 -10.342
-10.341 -10.338 -10.336 -10.335 -10.330 -10.327 -10.323 -10.320
-10.309 -10.301 -10.298 -10.295 -10.293  -8.156  -8.114  -8.095
 -6.106  -6.101  -6.100  -6.062  -6.059  -6.057  -6.044  -6.040
 -6.038  -1.143  -1.101  -1.068  -1.048  -1.030  -1.013  -1.003
 -0.986  -0.925  -0.912  -0.896  -0.879  -0.869  -0.853  -0.839
 -0.812  -0.777  -0.772  -0.748  -0.738  -0.731  -0.716  -0.711
 -0.672  -0.656  -0.648  -0.629  -0.628  -0.621  -0.607  -0.603
 -0.587  -0.576  -0.568  -0.560  -0.557  -0.548  -0.543  -0.526
 -0.511  -0.508  -0.501  -0.499  -0.493  -0.492  -0.485  -0.484
 -0.473  -0.467  -0.462  -0.461  -0.451  -0.443  -0.429  -0.427
 -0.419  -0.412  -0.393  -0.377  -0.372  -0.360  -0.358  -0.351
 -0.343  -0.339  -0.335  -0.334  -0.320  -0.264

          Ground-State Mulliken Net Atomic Charges

     Atom                 Charge (a.u.)
  ----------------------------------------
      1 C                    -0.092280
      2 C                    -0.128989
      3 C                    -0.081159
      4 C                    -0.118722
      5 N                    -0.145675
      6 C                     0.083013
      7 C                     0.099535
      8 N                    -0.177034
      9 C                    -0.016600
     10 C                    -0.082706
     11 N                    -0.217935
     12 C                     0.048007
     13 C                     0.062269
     14 S                     0.405747
     15 N                    -0.304051
     16 C                    -0.070894
     17 S                     0.177967
     18 C                     0.058464
     19 C                    -0.058901
     20 N                    -0.170169
     21 C                     0.061366
     22 C                    -0.009159
     23 C                    -0.046213
     24 N                    -0.160719
     25 C                    -0.139741
     26 S                     0.102113
     27 C                    -0.045984
     28 C                    -0.157320
     29 C                    -0.181450
     30 H                     0.132910
     31 H                     0.119867
     32 H                     0.120080
     33 H                     0.137646
     34 H                     0.136357
     35 H                     0.129157
     36 H                     0.136325
     37 H                     0.128204
     38 H                     0.130269
     39 H                     0.136401
  ----------------------------------------
  Sum of atomic charges =     0.000000

                    Cartesian Multipole Moments
 -----------------------------------------------------------------
    Charge (ESU x 10^10)
                 0.0000
    Dipole Moment (Debye)
         X      -0.2835      Y       1.4969      Z       0.5598
       Tot       1.6231
    Quadrupole Moments (Debye-Ang)
        XX    -151.2353     XY       3.4159     YY    -164.8235
        XZ      -0.9904     YZ       2.4925     ZZ    -186.7293

 Total job time:  6551.80s(wall), 97740.10s(cpu)
        *  Thank you very much for using Q-Chem.  Have a nice day.  *
