 Q-Chem 4.4, Q-Chem, Inc., Pleasanton, CA (2016)
 Q-Chem 4.4.2 for Intel X86 Linux

User input:
--------------------------------------------------------------
$comment
OPTIMIZATION
$end

$rem
JOBTYPE OPT
EXCHANGE omegaB97X-D
BASIS cc-pVTZ
$end

$molecule
0 1
C          0.00000        0.00000        0.00000
C         -0.65396       -1.22126       -0.00000
C          1.38563        0.00000        0.00000
C          0.09526       -2.37957        0.00866
N          2.11912       -1.10562        0.01199
C          1.48546       -2.27640        0.02149
C          2.30642       -3.51253        0.03449
N          1.74513       -4.60745       -0.39909
C          3.65824       -3.56714        0.50995
C          2.40434       -5.79109       -0.42442
N          4.38617       -2.58332        1.04242
C          4.35289       -4.81920        0.47143
C          3.70163       -5.99343       -0.01477
S          5.80914       -3.21778        1.41887
N          5.59255       -4.74484        0.95148
C          4.33823       -7.30129       -0.04468
S          4.61024       -8.23534        1.37319
C          4.80916       -8.01780       -1.14524
C          5.35850       -9.53799        0.56577
N          4.75924       -7.61172       -2.44484
C          5.38193       -9.28263       -0.80012
C          5.84807      -10.70421        1.26551
C          5.26101       -8.43212       -3.31523
N          5.89955      -10.11792       -1.74063
C          6.04963      -11.96101        0.76454
S          6.28023      -10.64441        2.94437
C          5.83601       -9.69195       -2.96473
C          6.53670      -12.87191        1.73216
C          6.70362      -12.30348        2.95566
H         -0.54853        0.93120        0.00000
H         -1.73532       -1.26909       -0.00410
H          1.93662        0.93286       -0.01167
H         -0.36319       -3.35650        0.00329
H          1.82722       -6.62671       -0.78554
H          5.23698       -8.12729       -4.35613
H          5.85815      -12.20415       -0.26697
H          6.23980      -10.33397       -3.74001
H          6.74710      -13.90928        1.52085
H          7.05844      -12.76869        3.85935
$end

$opt
CONSTRAINT
tors 4 6 7 8 21.82164
tors 10 13 16 17 -105.00000
tors 17 19 22 25 156.39459
ENDCONSTRAINT
$end
--------------------------------------------------------------

   16   -2291.1443422283      4.68E-09 Convergence criterion met
 Total energy in the final basis set = -2291.1443422283
   13   -2291.1453723653      3.47E-09 Convergence criterion met
 Total energy in the final basis set = -2291.1453723653
   12   -2291.1455000020      5.56E-09 Convergence criterion met
 Total energy in the final basis set = -2291.1455000020
   11   -2291.1455395171      8.32E-09 Convergence criterion met
 Total energy in the final basis set = -2291.1455395171
   10   -2291.1455544047      8.78E-09 Convergence criterion met
 Total energy in the final basis set = -2291.1455544047
   10   -2291.1455623402      9.50E-09 Convergence criterion met
 Total energy in the final basis set = -2291.1455623402
   10   -2291.1455651025      7.07E-09 Convergence criterion met
 Total energy in the final basis set = -2291.1455651025
   10   -2291.1455664425      8.27E-09 Convergence criterion met
 Total energy in the final basis set = -2291.1455664425

             Standard Nuclear Orientation (Angstroms)
    I     Atom           X                Y                Z
 ----------------------------------------------------------------
    1      C      -7.5820302618     0.2539420165    -0.9424736137
    2      C      -6.7762647391     0.6207914188    -2.0077305681
    3      C      -6.9715915816    -0.1437048693     0.2362365459
    4      C      -5.4045561232     0.5720682639    -1.8535608944
    5      N      -5.6562394284    -0.1985953722     0.3971051409
    6      C      -4.8871574609     0.1479206719    -0.6318757568
    7      C      -3.4149093666     0.1127544969    -0.4324546220
    8      N      -2.6906979629     0.8676682428    -1.2118652633
    9      C      -2.7728077644    -0.7140857749     0.5494567432
   10      C      -1.3400039944     0.9200876266    -1.0841690342
   11      N      -3.3256840846    -1.6084841717     1.3727733993
   12      C      -1.3498669271    -0.6418774032     0.6791501375
   13      C      -0.6085721432     0.2323010876    -0.1606327266
   14      S      -2.1216507367    -2.2497256877     2.2160606309
   15      N      -0.8546516755    -1.4634269391     1.6053120612
   16      C       0.8474242940     0.3680559437    -0.0663447703
   17      S       1.9254539945    -0.8319239885    -0.6254177987
   18      C       1.5645823928     1.4591503168     0.3769992699
   19      C       3.3418079437     0.0514131593    -0.2479468091
   20      N       1.0162303853     2.6084736196     0.8711764870
   21      C       2.9829757374     1.2827608689     0.2809968928
   22      C       4.6676270058    -0.4754257495    -0.4939574075
   23      C       1.8704921853     3.5079070205     1.2418554567
   24      N       3.8473957417     2.2560194259     0.6885490558
   25      C       5.8286201325     0.2260442412    -0.6680143604
   26      S       4.9629364508    -2.1787807734    -0.6099871565
   27      C       3.2922096084     3.3310271844     1.1521305117
   28      C       6.9480667071    -0.6078864038    -0.9028964282
   29      C       6.6308413288    -1.9290592311    -0.9066430490
   30      H      -8.6599111576     0.2781442219    -1.0180269488
   31      H      -7.2100693554     0.9452909318    -2.9437208304
   32      H      -7.5681738816    -0.4284859928     1.0951889246
   33      H      -4.7294084111     0.8552785547    -2.6460511694
   34      H      -0.8354630380     1.5842728610    -1.7739124495
   35      H       1.4788248056     4.4374653757     1.6409600692
   36      H       5.8645496810     1.3022110838    -0.6186020041
   37      H       3.9464285571     4.1291105178     1.4855847302
   38      H       7.9489476128    -0.2377438726    -1.0643419576
   39      H       7.2843348566    -2.7700832509    -1.0626097189
 ----------------------------------------------------------------

    9   -2291.1455670497      7.89E-09 Convergence criterion met
 Total energy in the final basis set = -2291.1455670497
 Final energy is   -2291.14556704965
 **  OPTIMIZATION CONVERGED  **

                    Orbital Energies (a.u.)
 --------------------------------------------------------------

 Alpha MOs
 -- Occupied --
-89.146 -89.100 -89.079 -14.482 -14.478 -14.460 -14.459 -14.449
-14.436 -10.358 -10.354 -10.351 -10.344 -10.342 -10.342 -10.338
-10.337 -10.336 -10.336 -10.336 -10.334 -10.328 -10.326 -10.318
-10.312 -10.303 -10.301 -10.294 -10.292  -8.156  -8.115  -8.094
 -6.106  -6.100  -6.100  -6.064  -6.060  -6.058  -6.043  -6.040
 -6.037  -1.142  -1.098  -1.072  -1.052  -1.027  -1.012  -1.003
 -0.986  -0.926  -0.914  -0.898  -0.879  -0.867  -0.854  -0.838
 -0.812  -0.777  -0.769  -0.748  -0.739  -0.729  -0.721  -0.710
 -0.671  -0.654  -0.646  -0.630  -0.629  -0.622  -0.605  -0.602
 -0.591  -0.577  -0.570  -0.563  -0.559  -0.543  -0.543  -0.526
 -0.513  -0.505  -0.502  -0.501  -0.495  -0.491  -0.486  -0.480
 -0.473  -0.468  -0.461  -0.456  -0.449  -0.437  -0.428  -0.424
 -0.422  -0.411  -0.397  -0.376  -0.369  -0.363  -0.358  -0.351
 -0.342  -0.339  -0.336  -0.333  -0.317  -0.275

          Ground-State Mulliken Net Atomic Charges

     Atom                 Charge (a.u.)
  ----------------------------------------
      1 C                    -0.090447
      2 C                    -0.128267
      3 C                    -0.079817
      4 C                    -0.117398
      5 N                    -0.143232
      6 C                     0.081446
      7 C                     0.112938
      8 N                    -0.175729
      9 C                    -0.013223
     10 C                    -0.049924
     11 N                    -0.222044
     12 C                     0.051782
     13 C                     0.013898
     14 S                     0.408995
     15 N                    -0.274138
     16 C                    -0.083943
     17 S                     0.188725
     18 C                     0.037806
     19 C                    -0.056543
     20 N                    -0.143936
     21 C                     0.045597
     22 C                    -0.014262
     23 C                    -0.051859
     24 N                    -0.162023
     25 C                    -0.142840
     26 S                     0.100438
     27 C                    -0.049644
     28 C                    -0.156601
     29 C                    -0.182817
     30 H                     0.133350
     31 H                     0.119976
     32 H                     0.120242
     33 H                     0.135773
     34 H                     0.124620
     35 H                     0.131431
     36 H                     0.136999
     37 H                     0.127928
     38 H                     0.130552
     39 H                     0.136188
  ----------------------------------------
  Sum of atomic charges =     0.000000

                    Cartesian Multipole Moments
 -----------------------------------------------------------------
    Charge (ESU x 10^10)
                 0.0000
    Dipole Moment (Debye)
         X      -0.2147      Y       0.8298      Z      -1.2289
       Tot       1.4983
    Quadrupole Moments (Debye-Ang)
        XX    -152.1415     XY       1.1767     YY    -171.4369
        XZ       5.4305     YZ       1.4817     ZZ    -179.3691

 Total job time:  7847.91s(wall), 116893.44s(cpu)
        *  Thank you very much for using Q-Chem.  Have a nice day.  *
