 Q-Chem 4.4, Q-Chem, Inc., Pleasanton, CA (2016)
 Q-Chem 4.4.2 for Intel X86 Linux

User input:
--------------------------------------------------------------
$comment
OPTIMIZATION
$end

$rem
JOBTYPE OPT
EXCHANGE omegaB97X-D
BASIS cc-pVTZ
$end

$molecule
0 1
C          0.00000        0.00000        0.00000
C         -0.65396       -1.22126       -0.00000
C          1.38563        0.00000        0.00000
C          0.09526       -2.37957        0.00866
N          2.11912       -1.10562        0.01199
C          1.48546       -2.27640        0.02149
C          2.30642       -3.51253        0.03449
N          1.74513       -4.60745       -0.39909
C          3.65824       -3.56714        0.50995
C          2.40434       -5.79109       -0.42442
N          4.38617       -2.58332        1.04242
C          4.35289       -4.81920        0.47143
C          3.70163       -5.99343       -0.01477
S          5.80914       -3.21778        1.41887
N          5.59255       -4.74484        0.95148
C          4.33823       -7.30129       -0.04468
S          5.20996       -7.87979       -1.40932
C          4.38191       -8.27379        0.95468
C          5.60955       -9.38645       -0.71721
N          3.81576       -8.17697        2.19018
C          5.10326       -9.44973        0.57550
C          6.37941      -10.38404       -1.42539
C          3.97164       -9.20344        2.96767
N          5.24631      -10.50813        1.41784
C          7.13146      -11.39645       -0.89571
S          6.43900      -10.42755       -3.15844
C          4.68895      -10.37716        2.58235
C          7.76159      -12.19304       -1.88143
C          7.48362      -11.78422       -3.14773
H         -0.54853        0.93120        0.00000
H         -1.73532       -1.26909       -0.00410
H          1.93662        0.93286       -0.01167
H         -0.36319       -3.35650        0.00329
H          1.82722       -6.62671       -0.78554
H          3.52469       -9.15085        3.95481
H          7.21190      -11.55511        0.16644
H          4.78412      -11.20306        3.27886
H          8.39984      -13.03226       -1.65038
H          7.83094      -12.21125       -4.07292
$end

$opt
CONSTRAINT
tors 4 6 7 8 21.82164
tors 10 13 16 17 90.00000
tors 17 19 22 25 156.39459
ENDCONSTRAINT
$end
--------------------------------------------------------------

   16   -2291.1437991288      4.73E-09 Convergence criterion met
 Total energy in the final basis set = -2291.1437991288
   13   -2291.1449075939      3.36E-09 Convergence criterion met
 Total energy in the final basis set = -2291.1449075939
   12   -2291.1450270917      4.95E-09 Convergence criterion met
 Total energy in the final basis set = -2291.1450270917
   10   -2291.1450616930      9.25E-09 Convergence criterion met
 Total energy in the final basis set = -2291.1450616930
   10   -2291.1450741411      7.99E-09 Convergence criterion met
 Total energy in the final basis set = -2291.1450741411
   11   -2291.1450836359      4.79E-09 Convergence criterion met
 Total energy in the final basis set = -2291.1450836359
   10   -2291.1450874053      7.80E-09 Convergence criterion met
 Total energy in the final basis set = -2291.1450874053
   10   -2291.1450898080      9.11E-09 Convergence criterion met
 Total energy in the final basis set = -2291.1450898080

             Standard Nuclear Orientation (Angstroms)
    I     Atom           X                Y                Z
 ----------------------------------------------------------------
    1      C      -7.5369993485     0.9192257486    -0.8527261086
    2      C      -6.8029898456     0.6238833469    -1.9896525798
    3      C      -6.8709733153     0.9828447531     0.3607371096
    4      C      -5.4448580890     0.4045972373    -1.8678235966
    5      N      -5.5687619313     0.7687501511     0.4933361559
    6      C      -4.8702190158     0.4786138497    -0.6013479609
    7      C      -3.4059566460     0.2732521790    -0.4498311303
    8      N      -2.6667045883     0.4644832555    -1.5072064333
    9      C      -2.7926361877    -0.1423022161     0.7796561583
   10      C      -1.3165917621     0.3201971641    -1.4563213793
   11      N      -3.3814000717    -0.4696898583     1.9325107699
   12      C      -1.3699201374    -0.2821097310     0.8206872945
   13      C      -0.6028419702    -0.0216228502    -0.3468051142
   14      S      -2.2027081381    -0.8851709178     2.9372171756
   15      N      -0.9049022686    -0.6890929225     2.0019019402
   16      C       0.8557419928    -0.1813709680    -0.3613599762
   17      S       1.9229376179     1.1107823521    -0.0417970680
   18      C       1.5776730630    -1.3394622885    -0.5468788764
   19      C       3.3452520608     0.1693703499    -0.1834032288
   20      N       1.0340939772    -2.5673091463    -0.7971956712
   21      C       2.9938038310    -1.1460911065    -0.4503145187
   22      C       4.6662185036     0.7405202513    -0.0233663194
   23      C       1.8931297922    -3.5245769313    -0.9446480785
   24      N       3.8633562013    -2.1828313966    -0.6232278160
   25      C       5.8217619449     0.0991393707     0.3275064091
   26      S       4.9595779314     2.4299660939    -0.2698116518
   27      C       3.3133345068    -3.3314794611    -0.8615986474
   28      C       6.9354783631     0.9699871478     0.4048370373
   29      C       6.6195891644     2.2594229407     0.1157487528
   30      H      -8.6013890633     1.1000313143    -0.9017747148
   31      H      -7.2828756132     0.5691718191    -2.9572475515
   32      H      -7.4086477237     1.2218788453     1.2710044843
   33      H      -4.8216307495     0.1821456270    -2.7200475220
   34      H      -0.7988009273     0.4994841813    -2.3901332466
   35      H       1.5082870885    -4.5192438535    -1.1432571087
   36      H       5.8593370830    -0.9614858629     0.5155459645
   37      H       3.9709602104    -4.1813765319    -1.0080743878
   38      H       7.9312879768     0.6491957144     0.6698826196
   39      H       7.2666103956     3.1196658408     0.1025758183
 ----------------------------------------------------------------

    9   -2291.1450904958      9.19E-09 Convergence criterion met
 Total energy in the final basis set = -2291.1450904958
 Final energy is   -2291.14509049577
 **  OPTIMIZATION CONVERGED  **

                    Orbital Energies (a.u.)
 --------------------------------------------------------------

 Alpha MOs
 -- Occupied --
-89.145 -89.100 -89.079 -14.482 -14.477 -14.460 -14.458 -14.449
-14.437 -10.358 -10.353 -10.351 -10.343 -10.342 -10.341 -10.338
-10.337 -10.336 -10.336 -10.335 -10.334 -10.328 -10.326 -10.318
-10.312 -10.303 -10.301 -10.294 -10.292  -8.155  -8.115  -8.094
 -6.105  -6.100  -6.099  -6.064  -6.060  -6.059  -6.043  -6.039
 -6.037  -1.142  -1.098  -1.072  -1.052  -1.027  -1.012  -1.003
 -0.986  -0.926  -0.914  -0.898  -0.878  -0.867  -0.854  -0.837
 -0.812  -0.777  -0.769  -0.748  -0.739  -0.728  -0.723  -0.709
 -0.671  -0.654  -0.646  -0.630  -0.629  -0.622  -0.605  -0.602
 -0.592  -0.578  -0.568  -0.564  -0.559  -0.545  -0.541  -0.526
 -0.513  -0.506  -0.502  -0.501  -0.495  -0.491  -0.486  -0.480
 -0.472  -0.468  -0.461  -0.456  -0.449  -0.437  -0.428  -0.424
 -0.422  -0.410  -0.396  -0.376  -0.368  -0.364  -0.359  -0.351
 -0.342  -0.339  -0.336  -0.333  -0.316  -0.276

          Ground-State Mulliken Net Atomic Charges

     Atom                 Charge (a.u.)
  ----------------------------------------
      1 C                    -0.090291
      2 C                    -0.128206
      3 C                    -0.080110
      4 C                    -0.117723
      5 N                    -0.143923
      6 C                     0.080654
      7 C                     0.112663
      8 N                    -0.176348
      9 C                    -0.014020
     10 C                    -0.060121
     11 N                    -0.222231
     12 C                     0.070605
     13 C                     0.008175
     14 S                     0.409325
     15 N                    -0.272086
     16 C                    -0.110076
     17 S                     0.185931
     18 C                     0.068055
     19 C                    -0.057205
     20 N                    -0.148422
     21 C                     0.043674
     22 C                    -0.011851
     23 C                    -0.054056
     24 N                    -0.162318
     25 C                    -0.142054
     26 S                     0.097657
     27 C                    -0.049292
     28 C                    -0.156219
     29 C                    -0.182727
     30 H                     0.133479
     31 H                     0.120077
     32 H                     0.120673
     33 H                     0.137652
     34 H                     0.126607
     35 H                     0.132330
     36 H                     0.137165
     37 H                     0.128090
     38 H                     0.130330
     39 H                     0.136138
  ----------------------------------------
  Sum of atomic charges =     0.000000

                    Cartesian Multipole Moments
 -----------------------------------------------------------------
    Charge (ESU x 10^10)
                 0.0000
    Dipole Moment (Debye)
         X      -0.3727      Y      -0.8614      Z      -0.9356
       Tot       1.3252
    Quadrupole Moments (Debye-Ang)
        XX    -151.6053     XY      -2.6813     YY    -171.8289
        XZ       8.1066     YZ       0.9088     ZZ    -179.4951

 Total job time:  7973.17s(wall), 118778.22s(cpu)
        *  Thank you very much for using Q-Chem.  Have a nice day.  *
