 Q-Chem 4.4, Q-Chem, Inc., Pleasanton, CA (2016)
 Q-Chem 4.4.2 for Intel X86 Linux

User input:
--------------------------------------------------------------
$comment
OPTIMIZATION
$end

$rem
JOBTYPE OPT
EXCHANGE omegaB97X-D
BASIS cc-pVTZ
$end

$molecule
0 1
C          0.00000        0.00000        0.00000
C         -0.65396       -1.22126       -0.00000
C          1.38563        0.00000        0.00000
C          0.09526       -2.37957        0.00866
N          2.11912       -1.10562        0.01199
C          1.48546       -2.27640        0.02149
C          2.30642       -3.51253        0.03449
N          1.74513       -4.60745       -0.39909
C          3.65824       -3.56714        0.50995
C          2.40434       -5.79109       -0.42442
N          4.38617       -2.58332        1.04242
C          4.35289       -4.81920        0.47143
C          3.70163       -5.99343       -0.01477
S          5.80914       -3.21778        1.41887
N          5.59255       -4.74484        0.95148
C          4.33823       -7.30129       -0.04468
S          4.87969       -8.03845       -1.50078
C          4.63112       -8.15398        1.01999
C          5.45730       -9.45968       -0.75565
N          4.36585       -7.91251        2.33440
C          5.26652       -9.37124        0.61810
C          6.06008      -10.53761       -1.50672
C          4.71730       -8.84499        3.16470
N          5.62117      -10.32794        1.51762
C          6.93344      -11.48916       -1.05626
S          5.71615      -10.77868       -3.18972
C          5.34729      -10.06072        2.75758
C          7.33209      -12.39789       -2.06550
C          6.75988      -12.13371       -3.26996
H         -0.54853        0.93120        0.00000
H         -1.73532       -1.26909       -0.00410
H          1.93662        0.93286       -0.01167
H         -0.36319       -3.35650        0.00329
H          1.82722       -6.62671       -0.78554
H          4.51105       -8.67671        4.21642
H          7.26144      -11.52648       -0.03116
H          5.61715      -10.80267        3.50120
H          8.02216      -13.21048       -1.89651
H          6.89065      -12.66611       -4.19646
$end

$opt
CONSTRAINT
tors 4 6 7 8 21.82164
tors 10 13 16 17 75.00000
tors 17 19 22 25 156.39459
ENDCONSTRAINT
$end
--------------------------------------------------------------

   16   -2291.1447186432      4.18E-09 Convergence criterion met
 Total energy in the final basis set = -2291.1447186432
   13   -2291.1458576090      3.37E-09 Convergence criterion met
 Total energy in the final basis set = -2291.1458576090
   12   -2291.1460216404      5.99E-09 Convergence criterion met
 Total energy in the final basis set = -2291.1460216404
   11   -2291.1460815469      9.14E-09 Convergence criterion met
 Total energy in the final basis set = -2291.1460815469
   11   -2291.1461110573      7.56E-09 Convergence criterion met
 Total energy in the final basis set = -2291.1461110573
   11   -2291.1461209889      4.87E-09 Convergence criterion met
 Total energy in the final basis set = -2291.1461209889
    9   -2291.1461232818      9.17E-09 Convergence criterion met
 Total energy in the final basis set = -2291.1461232818

             Standard Nuclear Orientation (Angstroms)
    I     Atom           X                Y                Z
 ----------------------------------------------------------------
    1      C      -7.5174010116     1.2764006082    -0.4401186041
    2      C      -6.7481646266     1.6127614480    -1.5418706470
    3      C      -6.8851673887     0.7020426353     0.6511093916
    4      C      -5.3904517883     1.3607547924    -1.5087371815
    5      N      -5.5839005544     0.4502159352     0.6946228596
    6      C      -4.8508478112     0.7689856247    -0.3691362658
    7      C      -3.3893000354     0.5073322248    -0.3025786289
    8      N      -2.6235386285     1.2122631202    -1.0888635998
    9      C      -2.8043614044    -0.4815160890     0.5586120696
   10      C      -1.2752843969     1.0486541189    -1.0892736394
   11      N      -3.4190195951    -1.3433248339     1.3728648257
   12      C      -1.3819679840    -0.6292910644     0.5617881095
   13      C      -0.5861773851     0.1826459219    -0.2923428337
   14      S      -2.2605235839    -2.2098871206     2.0659452661
   15      N      -0.9433770906    -1.5732444820     1.3935515483
   16      C       0.8673359823     0.0194396135    -0.3615947602
   17      S       1.9546521551     1.1707862900     0.2741654458
   18      C       1.5712596060    -1.0739251691    -0.8194010933
   19      C       3.3615544672     0.2694929571    -0.0963989567
   20      N       1.0088332704    -2.1894931064    -1.3699442561
   21      C       2.9884225158    -0.9356101836    -0.6756445402
   22      C       4.6923240010     0.7551092310     0.2016902156
   23      C       1.8510909117    -3.1004534278    -1.7396189893
   24      N       3.8410560549    -1.9165437320    -1.0897386844
   25      C       5.8310818974     0.0193065729     0.3804470166
   26      S       5.0252172788     2.4454424096     0.3874690677
   27      C       3.2731400179    -2.9632552199    -1.6004967585
   28      C       6.9635570089     0.8162776293     0.6745867153
   29      C       6.6785213965     2.1439396484     0.7178410845
   30      H      -8.5829829184     1.4558206797    -0.4210702343
   31      H      -7.1992892162     2.0644989487    -2.4146979955
   32      H      -7.4512476104     0.4329774953     1.5354541383
   33      H      -4.7415964287     1.6116962933    -2.3334538264
   34      H      -0.7351559582     1.6734889751    -1.7896383459
   35      H       1.4495045311    -4.0074783823    -2.1785371187
   36      H       5.8416476793    -1.0550776605     0.2936921138
   37      H       3.9171077895    -3.7676558871    -1.9388142857
   38      H       7.9504794247     0.4153851447     0.8481163408
   39      H       7.3476790543     2.9622790804     0.9209181029
 ----------------------------------------------------------------

    9   -2291.1461239742      4.80E-09 Convergence criterion met
 Total energy in the final basis set = -2291.1461239742
 Final energy is   -2291.14612397418
 **  OPTIMIZATION CONVERGED  **

                    Orbital Energies (a.u.)
 --------------------------------------------------------------

 Alpha MOs
 -- Occupied --
-89.144 -89.101 -89.079 -14.481 -14.476 -14.460 -14.458 -14.449
-14.436 -10.358 -10.352 -10.350 -10.344 -10.342 -10.341 -10.338
-10.337 -10.336 -10.336 -10.335 -10.334 -10.328 -10.325 -10.318
-10.311 -10.303 -10.300 -10.294 -10.292  -8.155  -8.116  -8.094
 -6.105  -6.099  -6.098  -6.065  -6.061  -6.060  -6.044  -6.040
 -6.037  -1.141  -1.098  -1.072  -1.051  -1.027  -1.012  -1.002
 -0.986  -0.926  -0.914  -0.897  -0.878  -0.868  -0.853  -0.837
 -0.812  -0.777  -0.769  -0.747  -0.739  -0.728  -0.723  -0.709
 -0.671  -0.654  -0.646  -0.629  -0.629  -0.622  -0.604  -0.601
 -0.591  -0.577  -0.568  -0.564  -0.558  -0.545  -0.541  -0.526
 -0.513  -0.506  -0.502  -0.501  -0.495  -0.491  -0.486  -0.480
 -0.472  -0.468  -0.461  -0.457  -0.449  -0.437  -0.428  -0.425
 -0.421  -0.410  -0.395  -0.376  -0.368  -0.363  -0.358  -0.352
 -0.342  -0.339  -0.336  -0.333  -0.317  -0.274

          Ground-State Mulliken Net Atomic Charges

     Atom                 Charge (a.u.)
  ----------------------------------------
      1 C                    -0.090266
      2 C                    -0.127905
      3 C                    -0.079816
      4 C                    -0.117762
      5 N                    -0.143241
      6 C                     0.080783
      7 C                     0.110719
      8 N                    -0.175335
      9 C                    -0.011712
     10 C                    -0.074375
     11 N                    -0.223354
     12 C                     0.063493
     13 C                     0.027006
     14 S                     0.408424
     15 N                    -0.269301
     16 C                    -0.102526
     17 S                     0.184185
     18 C                     0.061464
     19 C                    -0.059351
     20 N                    -0.145681
     21 C                     0.044512
     22 C                    -0.012463
     23 C                    -0.050444
     24 N                    -0.163711
     25 C                    -0.142428
     26 S                     0.097323
     27 C                    -0.048763
     28 C                    -0.156135
     29 C                    -0.182323
     30 H                     0.133502
     31 H                     0.119415
     32 H                     0.120367
     33 H                     0.137129
     34 H                     0.127235
     35 H                     0.129646
     36 H                     0.137833
     37 H                     0.127614
     38 H                     0.130416
     39 H                     0.135823
  ----------------------------------------
  Sum of atomic charges =     0.000000

                    Cartesian Multipole Moments
 -----------------------------------------------------------------
    Charge (ESU x 10^10)
                 0.0000
    Dipole Moment (Debye)
         X      -0.2398      Y      -0.4186      Z      -1.0787
       Tot       1.1816
    Quadrupole Moments (Debye-Ang)
        XX    -152.2752     XY      -6.1216     YY    -170.9855
        XZ       6.7062     YZ       1.2603     ZZ    -180.2187

 Total job time:  7123.57s(wall), 106042.21s(cpu)
        *  Thank you very much for using Q-Chem.  Have a nice day.  *
