 Q-Chem 4.4, Q-Chem, Inc., Pleasanton, CA (2016)
 Q-Chem 4.4.2 for Intel X86 Linux

User input:
--------------------------------------------------------------
$comment
OPTIMIZATION
$end

$rem
JOBTYPE OPT
EXCHANGE omegaB97X-D
BASIS cc-pVTZ
$end

$molecule
0 1
C          0.00000        0.00000        0.00000
C         -0.65396       -1.22126       -0.00000
C          1.38563        0.00000        0.00000
C          0.09526       -2.37957        0.00866
N          2.11912       -1.10562        0.01199
C          1.48546       -2.27640        0.02149
C          2.30642       -3.51253        0.03449
N          1.74513       -4.60745       -0.39909
C          3.65824       -3.56714        0.50995
C          2.40434       -5.79109       -0.42442
N          4.38617       -2.58332        1.04242
C          4.35289       -4.81920        0.47143
C          3.70163       -5.99343       -0.01477
S          5.80914       -3.21778        1.41887
N          5.59255       -4.74484        0.95148
C          4.33823       -7.30129       -0.04468
S          6.02955       -7.50674       -0.27712
C          3.75569       -8.55932        0.11150
C          5.99517       -9.21043       -0.20650
N          2.43369       -8.80713        0.32890
C          4.69267       -9.63697        0.02369
C          7.18675      -10.01561       -0.35210
C          2.10137      -10.05598        0.43999
N          4.30764      -10.93591        0.14490
C          7.40111      -11.28801        0.10194
S          8.58703       -9.42701       -1.18977
C          3.04035      -11.12849        0.34684
C          8.69082      -11.77890       -0.21262
C          9.44363      -10.88153       -0.90250
H         -0.54853        0.93120        0.00000
H         -1.73532       -1.26909       -0.00410
H          1.93662        0.93286       -0.01167
H         -0.36319       -3.35650        0.00329
H          1.82722       -6.62671       -0.78554
H          1.05276      -10.27753        0.60824
H          6.64574      -11.84139        0.63392
H          2.69940      -12.15307        0.44830
H          9.04025      -12.75992        0.07119
H         10.45136      -11.00003       -1.26222
$end

$opt
CONSTRAINT
tors 4 6 7 8 21.82164
tors 10 13 16 17 150.00000
tors 17 19 22 25 156.39459
ENDCONSTRAINT
$end
--------------------------------------------------------------

   16   -2291.1497981627      5.28E-09 Convergence criterion met
 Total energy in the final basis set = -2291.1497981627
   12   -2291.1501069769      7.57E-09 Convergence criterion met
 Total energy in the final basis set = -2291.1501069769
   12   -2291.1501886393      4.46E-09 Convergence criterion met
 Total energy in the final basis set = -2291.1501886393
   12   -2291.1502251697      4.30E-09 Convergence criterion met
 Total energy in the final basis set = -2291.1502251697
   11   -2291.1502365253      5.48E-09 Convergence criterion met
 Total energy in the final basis set = -2291.1502365253
   10   -2291.1502401219      6.02E-09 Convergence criterion met
 Total energy in the final basis set = -2291.1502401219

             Standard Nuclear Orientation (Angstroms)
    I     Atom           X                Y                Z
 ----------------------------------------------------------------
    1      C       7.6374018900     0.2731986624    -0.6015474032
    2      C       6.9814060563     1.4854341827    -0.4639544637
    3      C       6.8807111600    -0.8874302765    -0.5812731575
    4      C       5.6088620872     1.4876258037    -0.3089149789
    5      N       5.5635572920    -0.9006772399    -0.4286318385
    6      C       4.9389154508     0.2662780851    -0.2889626799
    7      C       3.4615776447     0.2423452405    -0.1423210246
    8      N       2.8098562805     1.3242694374    -0.4689347470
    9      C       2.7334561534    -0.8928446145     0.3448544930
   10      C       1.4578615044     1.3933749761    -0.3952927333
   11      N       3.2138981935    -2.0554905083     0.7916953193
   12      C       1.3064712194    -0.8125318119     0.4208636075
   13      C       0.6334811050     0.3833069538     0.0324199656
   14      S       1.9475116837    -2.9336699489     1.2314294975
   15      N       0.7399736577    -1.9189636720     0.9016445711
   16      C      -0.8133818711     0.5256181437     0.0795625749
   17      S      -1.8774298975    -0.8022865818    -0.1312749112
   18      C      -1.5642433953     1.6835480741     0.2404086189
   19      C      -3.3055536942     0.1293928974    -0.0539066187
   20      N      -1.0589121222     2.9299633201     0.4655820349
   21      C      -2.9759850278     1.4599380872     0.1722046894
   22      C      -4.6188200493    -0.4646024183    -0.1819530053
   23      C      -1.9371804616     3.8739238689     0.6017687822
   24      N      -3.8670929289     2.4795181849     0.3149904332
   25      C      -5.8104372951     0.0241645514     0.2797892894
   26      S      -4.8557443662    -1.9793404360    -0.9895509536
   27      C      -3.3481878905     3.6498201818     0.5214461031
   28      C      -6.9055661401    -0.8236965966    -0.0111263729
   29      C      -6.5405458075    -1.9452025743    -0.6862390618
   30      H       8.7099161558     0.2231496523    -0.7251246296
   31      H       7.5315588208     2.4164202878    -0.4767892830
   32      H       7.3559658228    -1.8552203951    -0.6933398352
   33      H       5.0474729475     2.4037890100    -0.2102441523
   34      H       1.0322526754     2.3357086715    -0.7050375281
   35      H      -1.5697085304     4.8771648992     0.7887846894
   36      H      -5.8820780462     0.9641290430     0.8018761068
   37      H      -4.0270222678     4.4871240368     0.6395482656
   38      H      -7.9243732549    -0.6070136736     0.2715587918
   39      H      -7.1674963647    -2.7516947226    -1.0259180295
 ----------------------------------------------------------------

    9   -2291.1502409458      5.26E-09 Convergence criterion met
 Total energy in the final basis set = -2291.1502409458
 Final energy is   -2291.15024094578
 **  OPTIMIZATION CONVERGED  **

                    Orbital Energies (a.u.)
 --------------------------------------------------------------

 Alpha MOs
 -- Occupied --
-89.146 -89.099 -89.079 -14.482 -14.479 -14.462 -14.461 -14.446
-14.434 -10.355 -10.353 -10.351 -10.344 -10.344 -10.343 -10.341
-10.340 -10.338 -10.336 -10.334 -10.330 -10.329 -10.324 -10.319
-10.310 -10.301 -10.298 -10.295 -10.293  -8.156  -8.114  -8.095
 -6.106  -6.101  -6.100  -6.063  -6.059  -6.058  -6.044  -6.040
 -6.038  -1.143  -1.101  -1.069  -1.049  -1.029  -1.013  -1.003
 -0.987  -0.925  -0.912  -0.896  -0.879  -0.869  -0.854  -0.838
 -0.812  -0.777  -0.772  -0.748  -0.738  -0.731  -0.717  -0.711
 -0.672  -0.655  -0.648  -0.629  -0.629  -0.621  -0.606  -0.603
 -0.589  -0.576  -0.569  -0.561  -0.558  -0.546  -0.543  -0.526
 -0.512  -0.507  -0.501  -0.500  -0.493  -0.492  -0.485  -0.483
 -0.473  -0.467  -0.460  -0.459  -0.451  -0.442  -0.428  -0.427
 -0.420  -0.412  -0.395  -0.376  -0.372  -0.361  -0.358  -0.350
 -0.343  -0.339  -0.335  -0.334  -0.319  -0.266

          Ground-State Mulliken Net Atomic Charges

     Atom                 Charge (a.u.)
  ----------------------------------------
      1 C                    -0.091739
      2 C                    -0.127955
      3 C                    -0.080750
      4 C                    -0.119783
      5 N                    -0.144851
      6 C                     0.082701
      7 C                     0.103000
      8 N                    -0.176689
      9 C                    -0.012340
     10 C                    -0.071311
     11 N                    -0.219015
     12 C                     0.038670
     13 C                     0.061803
     14 S                     0.408310
     15 N                    -0.297613
     16 C                    -0.069289
     17 S                     0.184158
     18 C                     0.046732
     19 C                    -0.058711
     20 N                    -0.168398
     21 C                     0.056082
     22 C                    -0.012721
     23 C                    -0.044871
     24 N                    -0.161611
     25 C                    -0.139186
     26 S                     0.101645
     27 C                    -0.048696
     28 C                    -0.157258
     29 C                    -0.181718
     30 H                     0.132823
     31 H                     0.119272
     32 H                     0.119664
     33 H                     0.137771
     34 H                     0.130014
     35 H                     0.130945
     36 H                     0.136091
     37 H                     0.128006
     38 H                     0.130345
     39 H                     0.136475
  ----------------------------------------
  Sum of atomic charges =     0.000000

                    Cartesian Multipole Moments
 -----------------------------------------------------------------
    Charge (ESU x 10^10)
                 0.0000
    Dipole Moment (Debye)
         X      -0.1519      Y       1.5309      Z       0.4544
       Tot       1.6041
    Quadrupole Moments (Debye-Ang)
        XX    -151.1001     XY       3.8637     YY    -165.7480
        XZ      -2.1089     YZ       2.8931     ZZ    -186.0192

 Total job time:  6513.24s(wall), 97148.49s(cpu)
        *  Thank you very much for using Q-Chem.  Have a nice day.  *
