 Q-Chem 4.4, Q-Chem, Inc., Pleasanton, CA (2016)
 Q-Chem 4.4.2 for Intel X86 Linux

User input:
--------------------------------------------------------------
$comment
OPTIMIZATION
$end

$rem
JOBTYPE OPT
EXCHANGE omegaB97X-D
BASIS cc-pVTZ
$end

$molecule
0 1
C          0.00000        0.00000        0.00000
C         -0.65396       -1.22126       -0.00000
C          1.38563        0.00000        0.00000
C          0.09526       -2.37957        0.00866
N          2.11912       -1.10562        0.01199
C          1.48546       -2.27640        0.02149
C          2.30642       -3.51253        0.03449
N          1.74513       -4.60745       -0.39909
C          3.65824       -3.56714        0.50995
C          2.40434       -5.79109       -0.42442
N          4.38617       -2.58332        1.04242
C          4.35289       -4.81920        0.47143
C          3.70163       -5.99343       -0.01477
S          5.80914       -3.21778        1.41887
N          5.59255       -4.74484        0.95148
C          4.33823       -7.30129       -0.04468
S          5.56456       -7.76385        1.06841
C          4.09393       -8.37142       -0.90580
C          5.79352       -9.32281        0.41577
N          3.18047       -8.39227       -1.91650
C          4.91364       -9.51417       -0.64282
C          6.76142      -10.25248        0.95268
C          3.11889       -9.49110       -2.60294
N          4.82169      -10.65072       -1.38444
C          6.76119      -11.61664        0.85179
S          8.14623       -9.71101        1.84600
C          3.94305      -10.62767       -2.33909
C          7.86362      -12.22076        1.50214
C          8.69176      -11.31590        2.08809
H         -0.54853        0.93120        0.00000
H         -1.73532       -1.26909       -0.00410
H          1.93662        0.93286       -0.01167
H         -0.36319       -3.35650        0.00329
H          1.82722       -6.62671       -0.78554
H          2.40209       -9.52868       -3.41642
H          5.99363      -12.15159        0.31840
H          3.84376      -11.51833       -2.94996
H          8.02504      -13.28753        1.53375
H          9.59497      -11.50618        2.64215
$end

$opt
CONSTRAINT
tors 4 6 7 8 21.82164
tors 10 13 16 17 -150.00000
tors 17 19 22 25 156.39459
ENDCONSTRAINT
$end
--------------------------------------------------------------

   16   -2291.1496639145      5.79E-09 Convergence criterion met
 Total energy in the final basis set = -2291.1496639145
   12   -2291.1500474165      6.79E-09 Convergence criterion met
 Total energy in the final basis set = -2291.1500474165
   12   -2291.1501349015      3.60E-09 Convergence criterion met
 Total energy in the final basis set = -2291.1501349015
   11   -2291.1501673377      8.01E-09 Convergence criterion met
 Total energy in the final basis set = -2291.1501673377
   10   -2291.1501777118      7.99E-09 Convergence criterion met
 Total energy in the final basis set = -2291.1501777118
    9   -2291.1501801363      8.73E-09 Convergence criterion met
 Total energy in the final basis set = -2291.1501801363

             Standard Nuclear Orientation (Angstroms)
    I     Atom           X                Y                Z
 ----------------------------------------------------------------
    1      C       7.6535134431     0.3877797770     0.3061059448
    2      C       6.9421934182     1.3380463047     1.0201680658
    3      C       6.9432052223    -0.5621290982    -0.4101480765
    4      C       5.5620002843     1.2984495567     0.9913196101
    5      N       5.6183616356    -0.6147443879    -0.4437818692
    6      C       4.9396519514     0.2968044466     0.2492716581
    7      C       3.4574519008     0.2476168624     0.1842321449
    8      N       2.8094335219     1.3502174169     0.4417677080
    9      C       2.7185982501    -0.9417984887    -0.1232949891
   10      C       1.4566857844     1.4141209153     0.3820902686
   11      N       3.1849984904    -2.1762474407    -0.3242210568
   12      C       1.2910425273    -0.8650105537    -0.1945061633
   13      C       0.6267279713     0.3746679272     0.0433382998
   14      S       1.9084203879    -3.1079420156    -0.5919567547
   15      N       0.7129683171    -2.0345947318    -0.4661851329
   16      C      -0.8184909091     0.5235226488    -0.0261978924
   17      S      -1.8958183211    -0.7707359520     0.2986568718
   18      C      -1.5587476536     1.6721262564    -0.2818679726
   19      C      -3.3152966868     0.1558204067     0.1018895221
   20      N      -1.0419585654     2.8936495842    -0.5982496016
   21      C      -2.9729128959     1.4650738627    -0.2110558555
   22      C      -4.6332262592    -0.4203688014     0.2583010843
   23      C      -1.9114892686     3.8300481762    -0.8177906966
   24      N      -3.8551701251     2.4745194950    -0.4490198743
   25      C      -5.8007397388     0.2218240483     0.5687327033
   26      S      -4.9055834324    -2.1218957899     0.0761348714
   27      C      -3.3250649717     3.6215203276    -0.7404074123
   28      C      -6.9059366140    -0.6570268998     0.6648914903
   29      C      -6.5722494935    -1.9533702809     0.4302567173
   30      H       8.7342511648     0.3808358993     0.2993072176
   31      H       7.4566686375     2.0993784176     1.5904886285
   32      H       7.4640630303    -1.3168310635    -0.9879927539
   33      H       4.9586992061     2.0178076455     1.5229980192
   34      H       1.0351810054     2.3818256580     0.6079275258
   35      H      -1.5343487030     4.8127850189    -1.0792653752
   36      H      -5.8523115251     1.2885048221     0.7141479829
   37      H      -3.9970063576     4.4492208170    -0.9384652943
   38      H      -7.9089580036    -0.3373183758     0.9026180656
   39      H      -7.2108885620    -2.8199624060     0.4391786749
 ----------------------------------------------------------------

    9   -2291.1501806797      6.51E-09 Convergence criterion met
 Total energy in the final basis set = -2291.1501806797
 Final energy is   -2291.15018067971
 **  OPTIMIZATION CONVERGED  **

                    Orbital Energies (a.u.)
 --------------------------------------------------------------

 Alpha MOs
 -- Occupied --
-89.146 -89.099 -89.079 -14.482 -14.479 -14.462 -14.461 -14.446
-14.434 -10.355 -10.353 -10.350 -10.344 -10.344 -10.343 -10.341
-10.340 -10.338 -10.336 -10.335 -10.330 -10.329 -10.324 -10.319
-10.310 -10.301 -10.298 -10.295 -10.293  -8.156  -8.114  -8.095
 -6.106  -6.101  -6.100  -6.063  -6.059  -6.058  -6.044  -6.040
 -6.038  -1.143  -1.101  -1.069  -1.049  -1.029  -1.013  -1.003
 -0.986  -0.925  -0.912  -0.896  -0.879  -0.869  -0.853  -0.838
 -0.812  -0.777  -0.772  -0.748  -0.738  -0.731  -0.717  -0.711
 -0.672  -0.655  -0.648  -0.629  -0.629  -0.621  -0.606  -0.603
 -0.588  -0.576  -0.567  -0.562  -0.557  -0.547  -0.542  -0.526
 -0.512  -0.507  -0.501  -0.500  -0.493  -0.492  -0.487  -0.482
 -0.474  -0.466  -0.462  -0.460  -0.450  -0.441  -0.428  -0.426
 -0.419  -0.412  -0.396  -0.376  -0.372  -0.360  -0.357  -0.352
 -0.342  -0.339  -0.335  -0.334  -0.320  -0.265

          Ground-State Mulliken Net Atomic Charges

     Atom                 Charge (a.u.)
  ----------------------------------------
      1 C                    -0.092271
      2 C                    -0.128419
      3 C                    -0.079869
      4 C                    -0.118911
      5 N                    -0.145762
      6 C                     0.083310
      7 C                     0.103148
      8 N                    -0.177082
      9 C                    -0.010735
     10 C                    -0.072594
     11 N                    -0.219674
     12 C                     0.046292
     13 C                     0.056736
     14 S                     0.407778
     15 N                    -0.300113
     16 C                    -0.068138
     17 S                     0.185705
     18 C                     0.044718
     19 C                    -0.059655
     20 N                    -0.167981
     21 C                     0.056718
     22 C                    -0.014268
     23 C                    -0.045294
     24 N                    -0.159784
     25 C                    -0.141305
     26 S                     0.101706
     27 C                    -0.048110
     28 C                    -0.156918
     29 C                    -0.181622
     30 H                     0.133057
     31 H                     0.119581
     32 H                     0.119311
     33 H                     0.136585
     34 H                     0.130981
     35 H                     0.130986
     36 H                     0.136905
     37 H                     0.128084
     38 H                     0.130496
     39 H                     0.136408
  ----------------------------------------
  Sum of atomic charges =     0.000000

                    Cartesian Multipole Moments
 -----------------------------------------------------------------
    Charge (ESU x 10^10)
                 0.0000
    Dipole Moment (Debye)
         X      -0.1890      Y       1.3141      Z       0.9267
       Tot       1.6190
    Quadrupole Moments (Debye-Ang)
        XX    -152.0348     XY       2.0051     YY    -166.2804
        XZ       2.8232     YZ       0.7159     ZZ    -184.9080

 Total job time:  6351.30s(wall), 94776.26s(cpu)
        *  Thank you very much for using Q-Chem.  Have a nice day.  *
