 Q-Chem 4.4, Q-Chem, Inc., Pleasanton, CA (2016)
 Q-Chem 4.4.2 for Intel X86 Linux

User input:
--------------------------------------------------------------
$comment
OPTIMIZATION
$end

$rem
JOBTYPE OPT
EXCHANGE omegaB97X-D
BASIS cc-pVTZ
$end

$molecule
0 1
C          0.00000        0.00000        0.00000
C         -0.65396       -1.22126       -0.00000
C          1.38563        0.00000        0.00000
C          0.09526       -2.37957        0.00866
N          2.11912       -1.10562        0.01199
C          1.48546       -2.27640        0.02149
C          2.30642       -3.51253        0.03449
N          1.74513       -4.60745       -0.39909
C          3.65824       -3.56714        0.50995
C          2.40434       -5.79109       -0.42442
N          4.38617       -2.58332        1.04242
C          4.35289       -4.81920        0.47143
C          3.70163       -5.99343       -0.01477
S          5.80914       -3.21778        1.41887
N          5.59255       -4.74484        0.95148
C          4.33823       -7.30129       -0.04468
S          3.73485       -8.64916        0.83621
C          5.47224       -7.70407       -0.75050
C          4.95242       -9.73023        0.32873
N          6.22279       -6.91926       -1.57337
C          5.81642       -9.07704       -0.54204
C          4.99682      -11.10715        0.76637
C          7.24388       -7.49407       -2.12959
N          6.89587       -9.64663       -1.14250
C          5.59693      -12.16717        0.14400
S          4.24902      -11.61714        2.24610
C          7.58582       -8.86425       -1.91434
C          5.44273      -13.38422        0.84988
C          4.73196      -13.24134        1.99979
H         -0.54853        0.93120        0.00000
H         -1.73532       -1.26909       -0.00410
H          1.93662        0.93286       -0.01167
H         -0.36319       -3.35650        0.00329
H          1.82722       -6.62671       -0.78554
H          7.85924       -6.88683       -2.78499
H          6.13368      -12.05823       -0.78328
H          8.45347       -9.28689       -2.40915
H          5.84262      -14.32635        0.50704
H          4.47277      -14.00115        2.71706
$end

$opt
CONSTRAINT
tors 4 6 7 8 21.82164
tors 10 13 16 17 -60.00000
tors 17 19 22 25 156.39459
ENDCONSTRAINT
$end
--------------------------------------------------------------

   16   -2291.1455389251      4.01E-09 Convergence criterion met
 Total energy in the final basis set = -2291.1455389251
   13   -2291.1466469062      4.06E-09 Convergence criterion met
 Total energy in the final basis set = -2291.1466469062
   12   -2291.1468271796      8.29E-09 Convergence criterion met
 Total energy in the final basis set = -2291.1468271796
   12   -2291.1468935764      4.20E-09 Convergence criterion met
 Total energy in the final basis set = -2291.1468935764
   11   -2291.1469159380      5.98E-09 Convergence criterion met
 Total energy in the final basis set = -2291.1469159380
   10   -2291.1469203272      8.07E-09 Convergence criterion met
 Total energy in the final basis set = -2291.1469203272
    9   -2291.1469214922      4.29E-09 Convergence criterion met
 Total energy in the final basis set = -2291.1469214922

             Standard Nuclear Orientation (Angstroms)
    I     Atom           X                Y                Z
 ----------------------------------------------------------------
    1      C       7.5057155620     1.2644816089    -0.5658512902
    2      C       6.6371753707     2.3048104556    -0.8517077604
    3      C       6.9674216287     0.0455546658    -0.1852438981
    4      C       5.2777662692     2.0866603253    -0.7433723211
    5      N       5.6646888954    -0.1770450636    -0.0741920320
    6      C       4.8351986079     0.8277281064    -0.3438392211
    7      C       3.3765216471     0.5610984039    -0.2482675345
    8      N       2.5847742966     1.3352986543    -0.9380901953
    9      C       2.8169003430    -0.4776509070     0.5695739668
   10      C       1.2410226413     1.1439311404    -0.9401927468
   11      N       3.4482154638    -1.3003516347     1.4110009964
   12      C       1.3987924117    -0.6633490972     0.5661463232
   13      C       0.5796855520     0.1765433366    -0.2394091408
   14      S       2.3107527000    -2.2029171136     2.0932734317
   15      N       0.9829087343    -1.6205651470     1.3940760191
   16      C      -0.8682938531    -0.0035136479    -0.3082600593
   17      S      -1.9608880274     1.2290435488     0.1430657865
   18      C      -1.5737278278    -1.1307215070    -0.6763864389
   19      C      -3.3672353031     0.2940820789    -0.1356303301
   20      N      -1.0131707628    -2.2925204638    -1.1225051598
   21      C      -2.9922752085    -0.9657985202    -0.5831272132
   22      C      -4.6998583726     0.8236450882     0.0623331951
   23      C      -1.8566917472    -3.2258830333    -1.4273076606
   24      N      -3.8459414083    -1.9778428264    -0.9111807263
   25      C      -5.8649106477     0.3946501845    -0.5114117450
   26      S      -4.9996828818     2.1688423828     1.1130381912
   27      C      -3.2789675274    -3.0708292382    -1.3145025286
   28      C      -6.9911751484     1.1524379896    -0.1096692023
   29      C      -6.6754944133     2.1483984300     0.7587713941
   30      H       8.5767239263     1.3894833363    -0.6394554873
   31      H       7.0137824606     3.2709069910    -1.1590667662
   32      H       7.6149060355    -0.7944536879     0.0380484986
   33      H       4.5558566651     2.8575270923    -0.9642089694
   34      H       0.6808498638     1.8210259325    -1.5733502583
   35      H      -1.4562636363    -4.1655417057    -1.7924854644
   36      H      -5.8982928670    -0.4443596823    -1.1871391731
   37      H      -3.9243055908    -3.9009784784    -1.5803485894
   38      H      -7.9961004680     0.9635324721    -0.4549729988
   39      H      -7.3326433105     2.8666615644     1.2182424334
 ----------------------------------------------------------------

    9   -2291.1469219437      4.18E-09 Convergence criterion met
 Total energy in the final basis set = -2291.1469219437
 Final energy is   -2291.14692194365
 **  OPTIMIZATION CONVERGED  **

                    Orbital Energies (a.u.)
 --------------------------------------------------------------

 Alpha MOs
 -- Occupied --
-89.144 -89.102 -89.079 -14.480 -14.476 -14.460 -14.458 -14.448
-14.436 -10.357 -10.352 -10.350 -10.345 -10.342 -10.341 -10.338
-10.338 -10.337 -10.336 -10.336 -10.334 -10.329 -10.325 -10.319
-10.311 -10.302 -10.300 -10.295 -10.293  -8.154  -8.116  -8.095
 -6.104  -6.098  -6.098  -6.065  -6.062  -6.060  -6.044  -6.040
 -6.038  -1.140  -1.098  -1.071  -1.051  -1.027  -1.012  -1.002
 -0.987  -0.926  -0.913  -0.897  -0.878  -0.869  -0.853  -0.838
 -0.813  -0.777  -0.770  -0.747  -0.739  -0.728  -0.723  -0.709
 -0.671  -0.654  -0.646  -0.629  -0.629  -0.623  -0.605  -0.601
 -0.590  -0.577  -0.570  -0.561  -0.558  -0.544  -0.542  -0.526
 -0.512  -0.506  -0.502  -0.501  -0.494  -0.491  -0.486  -0.481
 -0.471  -0.469  -0.461  -0.456  -0.451  -0.437  -0.428  -0.425
 -0.420  -0.410  -0.394  -0.376  -0.368  -0.366  -0.358  -0.350
 -0.343  -0.339  -0.336  -0.333  -0.316  -0.273

          Ground-State Mulliken Net Atomic Charges

     Atom                 Charge (a.u.)
  ----------------------------------------
      1 C                    -0.090904
      2 C                    -0.128367
      3 C                    -0.079675
      4 C                    -0.118379
      5 N                    -0.142493
      6 C                     0.082487
      7 C                     0.111283
      8 N                    -0.175305
      9 C                    -0.014306
     10 C                    -0.092580
     11 N                    -0.224201
     12 C                     0.051775
     13 C                     0.056768
     14 S                     0.407841
     15 N                    -0.266220
     16 C                    -0.089234
     17 S                     0.173368
     18 C                     0.052281
     19 C                    -0.061351
     20 N                    -0.142627
     21 C                     0.045623
     22 C                    -0.011894
     23 C                    -0.049403
     24 N                    -0.164156
     25 C                    -0.140154
     26 S                     0.098164
     27 C                    -0.047425
     28 C                    -0.157380
     29 C                    -0.181802
     30 H                     0.132960
     31 H                     0.120194
     32 H                     0.119798
     33 H                     0.135679
     34 H                     0.129238
     35 H                     0.129659
     36 H                     0.136510
     37 H                     0.127428
     38 H                     0.130489
     39 H                     0.136311
  ----------------------------------------
  Sum of atomic charges =     0.000000

                    Cartesian Multipole Moments
 -----------------------------------------------------------------
    Charge (ESU x 10^10)
                 0.0000
    Dipole Moment (Debye)
         X      -0.0166      Y       0.5344      Z      -0.5866
       Tot       0.7936
    Quadrupole Moments (Debye-Ang)
        XX    -153.1537     XY       7.9520     YY    -167.4799
        XZ       0.9043     YZ       2.9714     ZZ    -182.9868

 Total job time:  7106.69s(wall), 105835.68s(cpu)
        *  Thank you very much for using Q-Chem.  Have a nice day.  *
