 Q-Chem 4.4, Q-Chem, Inc., Pleasanton, CA (2016)
 Q-Chem 4.4.2 for Intel X86 Linux

User input:
--------------------------------------------------------------
$comment
OPTIMIZATION
$end

$rem
JOBTYPE OPT
EXCHANGE omegaB97X-D
BASIS cc-pVTZ
$end

$molecule
0 1
C          0.00000        0.00000        0.00000
C         -0.65396       -1.22126       -0.00000
C          1.38563        0.00000        0.00000
C          0.09526       -2.37957        0.00866
N          2.11912       -1.10562        0.01199
C          1.48546       -2.27640        0.02149
C          2.30642       -3.51253        0.03449
N          1.74513       -4.60745       -0.39909
C          3.65824       -3.56714        0.50995
C          2.40434       -5.79109       -0.42442
N          4.38617       -2.58332        1.04242
C          4.35289       -4.81920        0.47143
C          3.70163       -5.99343       -0.01477
S          5.80914       -3.21778        1.41887
N          5.59255       -4.74484        0.95148
C          4.33823       -7.30129       -0.04468
S          3.46038       -8.76705        0.14954
C          5.68459       -7.61246       -0.23675
C          4.82063       -9.78724        0.01662
N          6.69139       -6.71710       -0.43933
C          5.95578       -9.01690       -0.20571
C          4.72140      -11.22622        0.11089
C          7.87694       -7.22113       -0.59052
N          7.21307       -9.50995       -0.36790
C          5.58196      -12.16216       -0.39366
S          3.40935      -11.99608        0.94441
C          8.14295       -8.62418       -0.55398
C          5.17796      -13.49090       -0.12072
C          4.01987      -13.55566        0.58820
H         -0.54853        0.93120        0.00000
H         -1.73532       -1.26909       -0.00410
H          1.93662        0.93286       -0.01167
H         -0.36319       -3.35650        0.00329
H          1.82722       -6.62671       -0.78554
H          8.69526       -6.52648       -0.74794
H          6.47385      -11.88924       -0.93205
H          9.15755       -8.98357       -0.68710
H          5.72901      -14.35983       -0.44684
H          3.49774      -14.43477        0.92510
$end

$opt
CONSTRAINT
tors 4 6 7 8 21.82164
tors 10 13 16 17 -30.00000
tors 17 19 22 25 156.39459
ENDCONSTRAINT
$end
--------------------------------------------------------------

   16   -2291.1407293856      5.20E-09 Convergence criterion met
 Total energy in the final basis set = -2291.1407293856
   14   -2291.1435085956      6.68E-09 Convergence criterion met
 Total energy in the final basis set = -2291.1435085956
   13   -2291.1450590210      4.62E-09 Convergence criterion met
 Total energy in the final basis set = -2291.1450590210
   13   -2291.1454863081      4.86E-09 Convergence criterion met
 Total energy in the final basis set = -2291.1454863081
   11   -2291.1455568727      8.35E-09 Convergence criterion met
 Total energy in the final basis set = -2291.1455568727
   11   -2291.1455825929      5.72E-09 Convergence criterion met
 Total energy in the final basis set = -2291.1455825929
   10   -2291.1455873220      6.27E-09 Convergence criterion met
 Total energy in the final basis set = -2291.1455873220
   10   -2291.1455897604      6.49E-09 Convergence criterion met
 Total energy in the final basis set = -2291.1455897604

             Standard Nuclear Orientation (Angstroms)
    I     Atom           X                Y                Z
 ----------------------------------------------------------------
    1      C       7.4221348296     1.6208286214    -0.4575859462
    2      C       6.5006535464     2.6525451223    -0.3852088828
    3      C       6.9546647917     0.3180397672    -0.3898737795
    4      C       5.1617347688     2.3425925865    -0.2482532639
    5      N       5.6729759323     0.0058328432    -0.2531769444
    6      C       4.7928296364     1.0012884944    -0.1772024171
    7      C       3.3570366615     0.6398745796    -0.0671459998
    8      N       2.4850764936     1.5225141704    -0.4701868113
    9      C       2.8969778616    -0.5994194191     0.4883791612
   10      C       1.1568793898     1.2546802657    -0.4553855632
   11      N       3.6202824204    -1.5379014263     1.1033145724
   12      C       1.4912214015    -0.8701373029     0.5090330834
   13      C       0.5813720010     0.0813281210    -0.0440935515
   14      S       2.5738121192    -2.6279523835     1.6415878194
   15      N       1.1798429238    -1.9977024108     1.1460707114
   16      C      -0.8603788878    -0.1220907369    -0.0426395399
   17      S      -1.9386953653     1.1883015358     0.1930906434
   18      C      -1.5897709990    -1.2550119347    -0.3650929580
   19      C      -3.3587756233     0.2675399674    -0.0475725877
   20      N      -1.0606155235    -2.4527004535    -0.7488838860
   21      C      -3.0052880280    -1.0410912320    -0.3476754704
   22      C      -4.6802525678     0.8480349105     0.0501095181
   23      C      -1.9233768956    -3.3793418438    -1.0171884494
   24      N      -3.8819758675    -2.0505197846    -0.6153556313
   25      C      -5.8376451376     0.3967664620    -0.5231610363
   26      S      -4.9747885717     2.2975982728     0.9532642585
   27      C      -3.3414208686    -3.1856573810    -0.9276036479
   28      C      -6.9528129722     1.2207530286    -0.2394473434
   29      C      -6.6364619009     2.2882120318     0.5394411260
   30      H       8.4791076554     1.8163671368    -0.5695864257
   31      H       6.8212771849     3.6842151951    -0.4375573188
   32      H       7.6422682714    -0.5172777379    -0.4545710940
   33      H       4.4010948444     3.1062722610    -0.1966917002
   34      H       0.5340258373     2.0487650190    -0.8493086059
   35      H      -1.5412544152    -4.3428873821    -1.3371368731
   36      H      -5.8724746741    -0.5017919800    -1.1170316100
   37      H      -4.0059969312    -4.0155025381    -1.1418701367
   38      H      -7.9501414125     1.0275729143    -0.6038219232
   39      H      -7.2875592192     3.0669951465     0.8977941790
 ----------------------------------------------------------------

    9   -2291.1455901930      6.22E-09 Convergence criterion met
 Total energy in the final basis set = -2291.1455901930
 Final energy is   -2291.14559019303
 **  OPTIMIZATION CONVERGED  **

                    Orbital Energies (a.u.)
 --------------------------------------------------------------

 Alpha MOs
 -- Occupied --
-89.142 -89.102 -89.081 -14.477 -14.474 -14.460 -14.457 -14.448
-14.434 -10.354 -10.352 -10.348 -10.347 -10.342 -10.341 -10.341
-10.339 -10.338 -10.336 -10.336 -10.334 -10.331 -10.324 -10.321
-10.310 -10.301 -10.299 -10.296 -10.294  -8.152  -8.117  -8.096
 -6.102  -6.096  -6.096  -6.066  -6.062  -6.061  -6.046  -6.042
 -6.039  -1.139  -1.099  -1.070  -1.050  -1.027  -1.013  -1.001
 -0.988  -0.926  -0.912  -0.896  -0.879  -0.870  -0.852  -0.839
 -0.814  -0.777  -0.771  -0.746  -0.738  -0.729  -0.721  -0.708
 -0.671  -0.656  -0.648  -0.629  -0.628  -0.623  -0.606  -0.600
 -0.587  -0.575  -0.570  -0.559  -0.558  -0.545  -0.544  -0.526
 -0.511  -0.507  -0.503  -0.501  -0.493  -0.492  -0.487  -0.482
 -0.472  -0.468  -0.461  -0.457  -0.451  -0.440  -0.428  -0.426
 -0.418  -0.410  -0.389  -0.375  -0.370  -0.364  -0.357  -0.351
 -0.344  -0.339  -0.336  -0.333  -0.318  -0.269

          Ground-State Mulliken Net Atomic Charges

     Atom                 Charge (a.u.)
  ----------------------------------------
      1 C                    -0.091118
      2 C                    -0.129532
      3 C                    -0.079961
      4 C                    -0.121055
      5 N                    -0.143900
      6 C                     0.083942
      7 C                     0.108858
      8 N                    -0.176494
      9 C                    -0.014523
     10 C                    -0.120665
     11 N                    -0.227013
     12 C                     0.041290
     13 C                     0.082849
     14 S                     0.406387
     15 N                    -0.260582
     16 C                    -0.062518
     17 S                     0.150374
     18 C                     0.045755
     19 C                    -0.054335
     20 N                    -0.135361
     21 C                     0.048057
     22 C                    -0.011986
     23 C                    -0.049463
     24 N                    -0.164597
     25 C                    -0.138789
     26 S                     0.099952
     27 C                    -0.045903
     28 C                    -0.157296
     29 C                    -0.180631
     30 H                     0.132302
     31 H                     0.120958
     32 H                     0.120232
     33 H                     0.136711
     34 H                     0.128753
     35 H                     0.128181
     36 H                     0.136107
     37 H                     0.127465
     38 H                     0.130916
     39 H                     0.136635
  ----------------------------------------
  Sum of atomic charges =     0.000000

                    Cartesian Multipole Moments
 -----------------------------------------------------------------
    Charge (ESU x 10^10)
                 0.0000
    Dipole Moment (Debye)
         X      -0.5012      Y       0.5003      Z      -0.4026
       Tot       0.8146
    Quadrupole Moments (Debye-Ang)
        XX    -154.0110     XY       8.2359     YY    -164.9485
        XZ       2.5701     YZ       3.6570     ZZ    -184.9390

 Total job time:  8543.13s(wall), 127378.30s(cpu)
        *  Thank you very much for using Q-Chem.  Have a nice day.  *
