 Q-Chem 4.4, Q-Chem, Inc., Pleasanton, CA (2016)
 Q-Chem 4.4.2 for Intel X86 Linux

User input:
--------------------------------------------------------------
$comment
OPTIMIZATION
$end

$rem
JOBTYPE OPT
EXCHANGE omegaB97X-D
BASIS cc-pVTZ
$end

$molecule
0 1
C          0.00000        0.00000        0.00000
C         -0.65396       -1.22126       -0.00000
C          1.38563        0.00000        0.00000
C          0.09526       -2.37957        0.00866
N          2.11912       -1.10562        0.01199
C          1.48546       -2.27640        0.02149
C          2.30642       -3.51253        0.03449
N          1.74513       -4.60745       -0.39909
C          3.65824       -3.56714        0.50995
C          2.40434       -5.79109       -0.42442
N          4.38617       -2.58332        1.04242
C          4.35289       -4.81920        0.47143
C          3.70163       -5.99343       -0.01477
S          5.80914       -3.21778        1.41887
N          5.59255       -4.74484        0.95148
C          4.33823       -7.30129       -0.04468
S          3.53012       -8.71610       -0.59430
C          5.63851       -7.64770        0.32365
C          4.84620       -9.76697       -0.32539
N          6.58957       -6.79495        0.79762
C          5.92591       -9.03984        0.16135
C          4.77627      -11.18310       -0.60661
C          7.73622       -7.32798        1.08660
N          7.14102       -9.56431        0.47539
C          5.81070      -12.04003       -0.86492
S          3.26335      -12.03083       -0.64321
C          8.01646       -8.71962        0.92705
C          5.38382      -13.36822       -1.10362
C          4.03444      -13.51172       -1.02310
H         -0.54853        0.93120        0.00000
H         -1.73532       -1.26909       -0.00410
H          1.93662        0.93286       -0.01167
H         -0.36319       -3.35650        0.00329
H          1.82722       -6.62671       -0.78554
H          8.50738       -6.66868        1.47079
H          6.83704      -11.71385       -0.87102
H          8.99639       -9.10488        1.18705
H          6.05901      -14.17897       -1.33132
H          3.45431      -14.40822       -1.15988
$end

$opt
CONSTRAINT
tors 4 6 7 8 21.82164
tors 10 13 16 17 0.00000
tors 17 19 22 25 156.39459
ENDCONSTRAINT
$end
--------------------------------------------------------------

   16   -2291.1150229714      5.90E-09 Convergence criterion met
 Total energy in the final basis set = -2291.1150229714
   14   -2291.1304422395      9.24E-09 Convergence criterion met
 Total energy in the final basis set = -2291.1304422395
   13   -2291.1343893048      4.20E-09 Convergence criterion met
 Total energy in the final basis set = -2291.1343893048
   13   -2291.1357156748      5.01E-09 Convergence criterion met
 Total energy in the final basis set = -2291.1357156748
   11   -2291.1359134154      9.09E-09 Convergence criterion met
 Total energy in the final basis set = -2291.1359134154
   11   -2291.1360124061      9.81E-09 Convergence criterion met
 Total energy in the final basis set = -2291.1360124061
   14   -2291.1363320168      4.99E-09 Convergence criterion met
 Total energy in the final basis set = -2291.1363320168
   13   -2291.1364868448      4.18E-09 Convergence criterion met
   13   -2291.1367504405      6.38E-09 Convergence criterion met
 Total energy in the final basis set = -2291.1367504405
   13   -2291.1367908459      5.06E-09 Convergence criterion met
 Total energy in the final basis set = -2291.1367908459
   12   -2291.1368489420      3.85E-09 Convergence criterion met
 Total energy in the final basis set = -2291.1368489420
   11   -2291.1368785339      7.89E-09 Convergence criterion met
 Total energy in the final basis set = -2291.1368785339
   11   -2291.1368873660      4.28E-09 Convergence criterion met
 Total energy in the final basis set = -2291.1368873660
    9   -2291.1368888295      6.33E-09 Convergence criterion met
 Total energy in the final basis set = -2291.1368888295

             Standard Nuclear Orientation (Angstroms)
    I     Atom           X                Y                Z
 ----------------------------------------------------------------
    1      C       7.3459152984     1.8914339803    -0.3832567536
    2      C       6.4091138491     2.8309818369     0.0141955058
    3      C       6.9193197507     0.5908055467    -0.5994762696
    4      C       5.0965191963     2.4350010682     0.1808562840
    5      N       5.6637332440     0.1950177849    -0.4391564533
    6      C       4.7693713146     1.1004271305    -0.0485811329
    7      C       3.3614558977     0.6552388409     0.0942068008
    8      N       2.4299037869     1.5629734898    -0.0003915344
    9      C       2.9836369953    -0.6947969421     0.3795698311
   10      C       1.1216036515     1.2277216483     0.0505904980
   11      N       3.7919290361    -1.6911141022     0.7442779856
   12      C       1.5895423989    -1.0427180291     0.4294449650
   13      C       0.6008650246    -0.0425002894     0.1408630652
   14      S       2.8373793131    -2.9218511587     1.1261284871
   15      N       1.3870087744    -2.2875141519     0.8567993017
   16      C      -0.8451114613    -0.2540976895     0.1856787262
   17      S      -1.8880151882     1.1181195516     0.1233294082
   18      C      -1.6249633835    -1.3938198275    -0.0047272042
   19      C      -3.3375174046     0.2280082224     0.0171018906
   20      N      -1.1655738726    -2.6586123493    -0.2253231951
   21      C      -3.0329951793    -1.1223309129    -0.0536103834
   22      C      -4.6318376144     0.8714790612    -0.0056365776
   23      C      -2.0675596925    -3.5735503661    -0.3759664823
   24      N      -3.9561321375    -2.1164344892    -0.1809209090
   25      C      -5.8062001709     0.3849635290    -0.5125981930
   26      S      -4.8610654756     2.4634690298     0.6398722881
   27      C      -3.4739258066    -3.3099005378    -0.3218791831
   28      C      -6.8815658214     1.2958286294    -0.3847616138
   29      C      -6.5183591451     2.4617913560     0.2120543392
   30      H       8.3836815653     2.1557393939    -0.5286244333
   31      H       6.6961181104     3.8586341387     0.1914260611
   32      H       7.6210715744    -0.1707327355    -0.9193502842
   33      H       4.3251385834     3.1292991154     0.4761033179
   34      H       0.4566760213     2.0756148998    -0.0579671948
   35      H      -1.7260922940    -4.5858748202    -0.5662483765
   36      H      -5.8804218709    -0.5945794598    -0.9554240789
   37      H      -4.1769056482    -4.1294842126    -0.4233883560
   38      H      -7.8852471059     1.0907925862    -0.7242746670
   39      H      -7.1346675445     3.3164525162     0.4328103165
 ----------------------------------------------------------------

    9   -2291.1368893035      4.70E-09 Convergence criterion met
 Total energy in the final basis set = -2291.1368893035
 Final energy is   -2291.13688930352
 **  OPTIMIZATION CONVERGED  **

                    Orbital Energies (a.u.)
 --------------------------------------------------------------

 Alpha MOs
 -- Occupied --
-89.139 -89.100 -89.082 -14.475 -14.470 -14.461 -14.455 -14.447
-14.433 -10.353 -10.351 -10.349 -10.346 -10.345 -10.342 -10.342
-10.341 -10.338 -10.337 -10.336 -10.335 -10.333 -10.323 -10.322
-10.309 -10.300 -10.298 -10.298 -10.296  -8.149  -8.116  -8.098
 -6.100  -6.094  -6.093  -6.065  -6.061  -6.059  -6.047  -6.043
 -6.041  -1.137  -1.099  -1.070  -1.049  -1.027  -1.013  -0.999
 -0.989  -0.925  -0.911  -0.895  -0.879  -0.871  -0.851  -0.841
 -0.814  -0.777  -0.771  -0.745  -0.737  -0.729  -0.720  -0.708
 -0.671  -0.657  -0.649  -0.629  -0.627  -0.623  -0.608  -0.600
 -0.586  -0.574  -0.568  -0.558  -0.556  -0.546  -0.543  -0.527
 -0.510  -0.508  -0.505  -0.499  -0.494  -0.492  -0.487  -0.485
 -0.473  -0.467  -0.462  -0.457  -0.449  -0.442  -0.429  -0.424
 -0.417  -0.411  -0.384  -0.376  -0.371  -0.361  -0.355  -0.351
 -0.344  -0.338  -0.337  -0.330  -0.319  -0.265

          Ground-State Mulliken Net Atomic Charges

     Atom                 Charge (a.u.)
  ----------------------------------------
      1 C                    -0.092048
      2 C                    -0.129166
      3 C                    -0.078446
      4 C                    -0.120092
      5 N                    -0.144799
      6 C                     0.085557
      7 C                     0.103101
      8 N                    -0.182651
      9 C                    -0.009532
     10 C                    -0.112240
     11 N                    -0.230101
     12 C                     0.041844
     13 C                     0.068294
     14 S                     0.402770
     15 N                    -0.249490
     16 C                    -0.059695
     17 S                     0.126941
     18 C                     0.031556
     19 C                    -0.034947
     20 N                    -0.121991
     21 C                     0.059193
     22 C                    -0.009036
     23 C                    -0.052146
     24 N                    -0.164916
     25 C                    -0.138823
     26 S                     0.103308
     27 C                    -0.045177
     28 C                    -0.156445
     29 C                    -0.179234
     30 H                     0.132276
     31 H                     0.120331
     32 H                     0.118872
     33 H                     0.135278
     34 H                     0.121948
     35 H                     0.126796
     36 H                     0.137129
     37 H                     0.127596
     38 H                     0.131270
     39 H                     0.136910
  ----------------------------------------
  Sum of atomic charges =     0.000000

                    Cartesian Multipole Moments
 -----------------------------------------------------------------
    Charge (ESU x 10^10)
                 0.0000
    Dipole Moment (Debye)
         X      -0.9411      Y       0.4235      Z      -0.1592
       Tot       1.0442
    Quadrupole Moments (Debye-Ang)
        XX    -154.1402     XY       8.8330     YY    -163.0860
        XZ       3.4303     YZ       3.1307     ZZ    -186.2882

 Total job time:  14695.20s(wall), 219113.67s(cpu)
        *  Thank you very much for using Q-Chem.  Have a nice day.  *
