 Q-Chem 4.4, Q-Chem, Inc., Pleasanton, CA (2016)
 Q-Chem 4.4.2 for Intel X86 Linux

User input:
--------------------------------------------------------------
$comment
OPTIMIZATION
$end

$rem
JOBTYPE OPT
EXCHANGE omegaB97X-D
BASIS cc-pVTZ
$end

$molecule
0 1
C          0.00000        0.00000        0.00000
C         -0.65396       -1.22126       -0.00000
C          1.38563        0.00000        0.00000
C          0.09526       -2.37957        0.00866
N          2.11912       -1.10562        0.01199
C          1.48546       -2.27640        0.02149
C          2.30642       -3.51253        0.03449
N          1.74513       -4.60745       -0.39909
C          3.65824       -3.56714        0.50995
C          2.40434       -5.79109       -0.42442
N          4.38617       -2.58332        1.04242
C          4.35289       -4.81920        0.47143
C          3.70163       -5.99343       -0.01477
S          5.80914       -3.21778        1.41887
N          5.59255       -4.74484        0.95148
C          4.33823       -7.30129       -0.04468
S          4.54024       -8.20383       -1.49431
C          4.88640       -8.02953        1.01152
C          5.30168       -9.53558       -0.74906
N          4.92933       -7.63781        2.31577
C          5.43371       -9.28973        0.61238
C          5.73352      -10.69686       -1.49358
C          5.48149       -8.47247        3.14093
N          6.00551      -10.14061        1.50639
C          6.70531      -11.59795       -1.15478
S          5.01252      -11.12524       -3.01199
C          6.02229       -9.73170        2.73782
C          6.87548      -12.61890       -2.12017
C          6.03423      -12.48898       -3.18005
H         -0.54853        0.93120        0.00000
H         -1.73532       -1.26909       -0.00410
H          1.93662        0.93286       -0.01167
H         -0.36319       -3.35650        0.00329
H          1.82722       -6.62671       -0.78554
H          5.52215       -8.18386        4.18593
H          7.26316      -11.52094       -0.23680
H          6.47140      -10.38630        3.47681
H          7.60102      -13.41250       -2.02618
H          5.95608      -13.12447       -4.04550
$end

$opt
CONSTRAINT
tors 4 6 7 8 21.82164
tors 10 13 16 17 60.00000
tors 17 19 22 25 156.39459
ENDCONSTRAINT
$end
--------------------------------------------------------------

   16   -2291.1458367391      4.19E-09 Convergence criterion met
 Total energy in the final basis set = -2291.1458367391
   13   -2291.1467074724      3.63E-09 Convergence criterion met
 Total energy in the final basis set = -2291.1467074724
   12   -2291.1468218560      5.68E-09 Convergence criterion met
 Total energy in the final basis set = -2291.1468218560
   11   -2291.1468476846      5.66E-09 Convergence criterion met
 Total energy in the final basis set = -2291.1468476846
   10   -2291.1468541803      7.48E-09 Convergence criterion met
 Total energy in the final basis set = -2291.1468541803
   10   -2291.1468566142      5.01E-09 Convergence criterion met
 Total energy in the final basis set = -2291.1468566142

             Standard Nuclear Orientation (Angstroms)
    I     Atom           X                Y                Z
 ----------------------------------------------------------------
    1      C      -7.4653921591     1.5412534161    -0.2565723793
    2      C      -6.6614046975     2.0336001673    -1.2713067788
    3      C      -6.8802996219     0.7460894349     0.7160246429
    4      C      -5.3181005662     1.7127497194    -1.2729249367
    5      N      -5.5934950420     0.4249864099     0.7233457444
    6      C      -4.8271717767     0.8950663569    -0.2577286058
    7      C      -3.3797120266     0.5597459541    -0.2247976196
    8      N      -2.5702725095     1.3643308745    -0.8571368196
    9      C      -2.8509276047    -0.5950595437     0.4435273386
   10      C      -1.2306844226     1.1475180510    -0.8693278668
   11      N      -3.5167278257    -1.5564855604     1.0882601258
   12      C      -1.4353806008    -0.8033434870     0.4396151918
   13      C      -0.5905579777     0.1156429800    -0.2440125960
   14      S      -2.4093413514    -2.5763651914     1.6406601287
   15      N      -1.0542085129    -1.8912968653     1.1075333130
   16      C       0.8594298930    -0.0545583968    -0.2884327425
   17      S       1.9250659710     1.1367802272     0.3133131756
   18      C       1.5878718003    -1.1338257601    -0.7462363206
   19      C       3.3501452408     0.2634270568    -0.0523599440
   20      N       1.0541081268    -2.2567535588    -1.3093481617
   21      C       3.0020348328    -0.9581695035    -0.6130124393
   22      C       4.6694168682     0.7836072105     0.2371863862
   23      C       1.9173751622    -3.1455799506    -1.6837991852
   24      N       3.8777280016    -1.9196184730    -1.0249866408
   25      C       5.8266097262     0.0782896681     0.4209773044
   26      S       4.9596747256     2.4833423213     0.4088119993
   27      C       3.3352792385    -2.9788243648    -1.5372825213
   28      C       6.9385299014     0.9060007768     0.7081219475
   29      C       6.6200568909     2.2264187468     0.7407706360
   30      H      -8.5211488520     1.7681891056    -0.2131297095
   31      H      -7.0746955096     2.6606514438    -2.0494553644
   32      H      -7.4724011031     0.3503137252     1.5330542077
   33      H      -4.6440417589     2.0764843289    -2.0329078364
   34      H      -0.6541593798     1.8684708345    -1.4357050501
   35      H       1.5366352329    -4.0559375579    -2.1342552739
   36      H       5.8648901138    -0.9960917228     0.3432896649
   37      H       3.9983788601    -3.7682283621    -1.8740053708
   38      H       7.9352692868     0.5320713423     0.8855918095
   39      H       7.2682867866     3.0629615397     0.9375053933
 ----------------------------------------------------------------

    9   -2291.1468571729      4.60E-09 Convergence criterion met
 Total energy in the final basis set = -2291.1468571729
 Final energy is   -2291.14685717287
 **  OPTIMIZATION CONVERGED  **

                    Orbital Energies (a.u.)
 --------------------------------------------------------------

 Alpha MOs
 -- Occupied --
-89.144 -89.102 -89.080 -14.480 -14.476 -14.460 -14.458 -14.448
-14.435 -10.357 -10.352 -10.350 -10.345 -10.342 -10.341 -10.338
-10.338 -10.337 -10.336 -10.336 -10.335 -10.329 -10.325 -10.319
-10.311 -10.302 -10.300 -10.295 -10.293  -8.154  -8.117  -8.095
 -6.104  -6.098  -6.098  -6.065  -6.062  -6.060  -6.044  -6.040
 -6.038  -1.140  -1.098  -1.071  -1.051  -1.027  -1.012  -1.002
 -0.987  -0.926  -0.913  -0.897  -0.878  -0.869  -0.853  -0.838
 -0.813  -0.777  -0.770  -0.747  -0.739  -0.728  -0.722  -0.709
 -0.671  -0.654  -0.647  -0.629  -0.629  -0.622  -0.605  -0.601
 -0.590  -0.576  -0.568  -0.564  -0.558  -0.545  -0.542  -0.526
 -0.512  -0.506  -0.502  -0.501  -0.494  -0.492  -0.486  -0.480
 -0.472  -0.468  -0.461  -0.458  -0.450  -0.437  -0.428  -0.426
 -0.420  -0.410  -0.393  -0.375  -0.369  -0.362  -0.358  -0.352
 -0.343  -0.339  -0.335  -0.333  -0.318  -0.272

          Ground-State Mulliken Net Atomic Charges

     Atom                 Charge (a.u.)
  ----------------------------------------
      1 C                    -0.091123
      2 C                    -0.128405
      3 C                    -0.080005
      4 C                    -0.117739
      5 N                    -0.143349
      6 C                     0.080830
      7 C                     0.109488
      8 N                    -0.174536
      9 C                    -0.013057
     10 C                    -0.094026
     11 N                    -0.223430
     12 C                     0.049955
     13 C                     0.055124
     14 S                     0.408155
     15 N                    -0.265465
     16 C                    -0.092854
     17 S                     0.178110
     18 C                     0.055281
     19 C                    -0.058702
     20 N                    -0.141709
     21 C                     0.041993
     22 C                    -0.013316
     23 C                    -0.048828
     24 N                    -0.163236
     25 C                    -0.141647
     26 S                     0.097298
     27 C                    -0.047916
     28 C                    -0.156165
     29 C                    -0.182227
     30 H                     0.133236
     31 H                     0.120255
     32 H                     0.120219
     33 H                     0.137085
     34 H                     0.129796
     35 H                     0.128888
     36 H                     0.137797
     37 H                     0.127290
     38 H                     0.130666
     39 H                     0.136269
  ----------------------------------------
  Sum of atomic charges =     0.000000

                    Cartesian Multipole Moments
 -----------------------------------------------------------------
    Charge (ESU x 10^10)
                 0.0000
    Dipole Moment (Debye)
         X      -0.0152      Y      -0.1812      Z      -1.0116
       Tot       1.0278
    Quadrupole Moments (Debye-Ang)
        XX    -152.9645     XY      -7.5443     YY    -169.1471
        XZ       5.6749     YZ       0.9864     ZZ    -181.5653

 Total job time:  6276.74s(wall), 93468.69s(cpu)
        *  Thank you very much for using Q-Chem.  Have a nice day.  *
