 Q-Chem 4.4, Q-Chem, Inc., Pleasanton, CA (2016)
 Q-Chem 4.4.2 for Intel X86 Linux

User input:
--------------------------------------------------------------
$comment
OPTIMIZATION
$end

$rem
JOBTYPE OPT
EXCHANGE omegaB97X-D
BASIS cc-pVTZ
$end

$molecule
0 1
C          0.00000        0.00000        0.00000
C         -0.65396       -1.22126       -0.00000
C          1.38563        0.00000        0.00000
C          0.09526       -2.37957        0.00866
N          2.11912       -1.10562        0.01199
C          1.48546       -2.27640        0.02149
C          2.30642       -3.51253        0.03449
N          1.74513       -4.60745       -0.39909
C          3.65824       -3.56714        0.50995
C          2.40434       -5.79109       -0.42442
N          4.38617       -2.58332        1.04242
C          4.35289       -4.81920        0.47143
C          3.70163       -5.99343       -0.01477
S          5.80914       -3.21778        1.41887
N          5.59255       -4.74484        0.95148
C          4.33823       -7.30129       -0.04468
S          5.95981       -7.55770        0.46672
C          3.80177       -8.52407       -0.44890
C          5.96960       -9.23070        0.13551
N          2.53551       -8.72927       -0.90806
C          4.72254       -9.61403       -0.34338
C          7.13188      -10.05873        0.36540
C          2.24209       -9.94913       -1.23714
N          4.37969      -10.88155       -0.69840
C          7.17237      -11.41013        0.57320
S          8.73303       -9.39226        0.39785
C          3.16684      -11.03305       -1.13421
C          8.48496      -11.90158        0.77028
C          9.42907      -10.92547        0.70881
H         -0.54853        0.93120        0.00000
H         -1.73532       -1.26909       -0.00410
H          1.93662        0.93286       -0.01167
H         -0.36319       -3.35650        0.00329
H          1.82722       -6.62671       -0.78554
H          1.24064      -10.13532       -1.61050
H          6.28254      -12.01678        0.57288
H          2.86056      -12.03176       -1.42586
H          8.71024      -12.94078        0.95567
H         10.49479      -11.02658        0.82278
$end

$opt
CONSTRAINT
tors 4 6 7 8 21.82164
tors 10 13 16 17 180.00000
tors 17 19 22 25 156.39459
ENDCONSTRAINT
$end
--------------------------------------------------------------

   16   -2291.1503681470      5.24E-09 Convergence criterion met
 Total energy in the final basis set = -2291.1503681470
   12   -2291.1504506846      7.61E-09 Convergence criterion met
 Total energy in the final basis set = -2291.1504506846
   12   -2291.1505692978      5.47E-09 Convergence criterion met
 Total energy in the final basis set = -2291.1505692978
   11   -2291.1505917307      6.37E-09 Convergence criterion met
 Total energy in the final basis set = -2291.1505917307
   11   -2291.1506043404      8.20E-09 Convergence criterion met
 Total energy in the final basis set = -2291.1506043404
   10   -2291.1506082857      9.71E-09 Convergence criterion met
 Total energy in the final basis set = -2291.1506082857
    9   -2291.1506093599      5.40E-09 Convergence criterion met
 Total energy in the final basis set = -2291.1506093599

             Standard Nuclear Orientation (Angstroms)
    I     Atom           X                Y                Z
 ----------------------------------------------------------------
    1      C       7.6745687297     0.3106270654    -0.1769078215
    2      C       7.0259697498     1.4444912836     0.2842593708
    3      C       6.9045592672    -0.7827340685    -0.5396983723
    4      C       5.6473250016     1.4384060711     0.3649574672
    5      N       5.5807481551    -0.8049365172    -0.4618310983
    6      C       4.9627835719     0.2849596998    -0.0121678041
    7      C       3.4797991150     0.2623641085     0.0416763983
    8      N       2.8608138522     1.4099142306     0.0144403602
    9      C       2.7082397029    -0.9410416176     0.1354780356
   10      C       1.5076346688     1.4972281762     0.0245444131
   11      N       3.1477482312    -2.1947555070     0.2615160322
   12      C       1.2796609454    -0.8441652762     0.1421200289
   13      C       0.6388975060     0.4305933722     0.0666216785
   14      S       1.8485804111    -3.1284041299     0.3535608383
   15      N       0.6766266247    -2.0269221204     0.2512372812
   16      C      -0.8086238934     0.5871129565     0.0490743664
   17      S      -1.8798723257    -0.7587375300     0.1023461941
   18      C      -1.5691460688     1.7551581418    -0.0108122224
   19      C      -3.3066016700     0.1700268058     0.0236979695
   20      N      -1.0800653213     3.0266750940    -0.0578230349
   21      C      -2.9806667884     1.5192371497    -0.0236548161
   22      C      -4.6177635116    -0.4406885431     0.0320577611
   23      C      -1.9632421444     3.9746579010    -0.1174650161
   24      N      -3.8785221990     2.5390307311    -0.0901876027
   25      C      -5.8067053167     0.1211952857     0.4106812541
   26      S      -4.8523112150    -2.0872636290    -0.4553859447
   27      C      -3.3707931265     3.7317004483    -0.1360293501
   28      C      -6.8973774571    -0.7753610906     0.3141383953
   29      C      -6.5316630274    -2.0056153611    -0.1332099748
   30      H       8.7515176096     0.2710035916    -0.2587754268
   31      H       7.5873473561     2.3215349443     0.5764675585
   32      H       7.3719953795    -1.6847694390    -0.9173953081
   33      H       5.0918433031     2.2981530186     0.7064465023
   34      H       1.1127359829     2.4999961723    -0.0116550759
   35      H      -1.5979628433     4.9951855160    -0.1554227605
   36      H      -5.8810199698     1.1451358687     0.7388940868
   37      H      -4.0556332735     4.5703277792    -0.1940495616
   38      H      -7.9134125003    -0.5150997384     0.5686698051
   39      H      -7.1564102250    -2.8664220891    -0.2992974375
 ----------------------------------------------------------------

    8   -2291.1506096791      8.01E-09 Convergence criterion met
 Total energy in the final basis set = -2291.1506096791
 Final energy is   -2291.15060967906
 **  OPTIMIZATION CONVERGED  **

                    Orbital Energies (a.u.)
 --------------------------------------------------------------

 Alpha MOs
 -- Occupied --
-89.146 -89.098 -89.079 -14.482 -14.479 -14.463 -14.462 -14.444
-14.434 -10.355 -10.351 -10.350 -10.346 -10.343 -10.343 -10.342
-10.341 -10.338 -10.336 -10.334 -10.330 -10.325 -10.323 -10.319
-10.309 -10.301 -10.298 -10.295 -10.293  -8.156  -8.113  -8.095
 -6.106  -6.101  -6.100  -6.062  -6.058  -6.057  -6.044  -6.040
 -6.038  -1.143  -1.102  -1.068  -1.048  -1.030  -1.013  -1.003
 -0.986  -0.924  -0.911  -0.896  -0.879  -0.869  -0.853  -0.838
 -0.811  -0.777  -0.772  -0.748  -0.738  -0.731  -0.716  -0.710
 -0.672  -0.656  -0.648  -0.629  -0.628  -0.620  -0.607  -0.603
 -0.586  -0.576  -0.567  -0.561  -0.557  -0.548  -0.543  -0.526
 -0.512  -0.508  -0.501  -0.498  -0.493  -0.492  -0.486  -0.483
 -0.473  -0.465  -0.463  -0.461  -0.451  -0.443  -0.429  -0.426
 -0.418  -0.411  -0.391  -0.377  -0.372  -0.359  -0.357  -0.351
 -0.343  -0.338  -0.334  -0.334  -0.321  -0.263

          Ground-State Mulliken Net Atomic Charges

     Atom                 Charge (a.u.)
  ----------------------------------------
      1 C                    -0.092501
      2 C                    -0.129333
      3 C                    -0.080268
      4 C                    -0.118486
      5 N                    -0.145484
      6 C                     0.083858
      7 C                     0.097191
      8 N                    -0.176605
      9 C                    -0.022174
     10 C                    -0.087077
     11 N                    -0.217319
     12 C                     0.056602
     13 C                     0.061486
     14 S                     0.403999
     15 N                    -0.306707
     16 C                    -0.070595
     17 S                     0.174282
     18 C                     0.062049
     19 C                    -0.056829
     20 N                    -0.167991
     21 C                     0.061800
     22 C                    -0.007726
     23 C                    -0.047609
     24 N                    -0.160563
     25 C                    -0.141014
     26 S                     0.101937
     27 C                    -0.044273
     28 C                    -0.157326
     29 C                    -0.181408
     30 H                     0.132872
     31 H                     0.120101
     32 H                     0.118992
     33 H                     0.137262
     34 H                     0.139523
     35 H                     0.127435
     36 H                     0.137119
     37 H                     0.128163
     38 H                     0.130202
     39 H                     0.136411
  ----------------------------------------
  Sum of atomic charges =     0.000000

                    Cartesian Multipole Moments
 -----------------------------------------------------------------
    Charge (ESU x 10^10)
                 0.0000
    Dipole Moment (Debye)
         X      -0.3203      Y       1.4486      Z       0.6805
       Tot       1.6322
    Quadrupole Moments (Debye-Ang)
        XX    -151.4138     XY       2.8688     YY    -164.6334
        XZ       0.4129     YZ       1.9489     ZZ    -186.7572

 Total job time:  7278.06s(wall), 108710.80s(cpu)
        *  Thank you very much for using Q-Chem.  Have a nice day.  *
