 Q-Chem 4.4, Q-Chem, Inc., Pleasanton, CA (2016)
 Q-Chem 4.4.2 for Intel X86 Linux

User input:
--------------------------------------------------------------
$comment
OPTIMIZATION
$end

$rem
JOBTYPE OPT
EXCHANGE omegaB97X-D
BASIS cc-pVTZ
$end

$molecule
0 1
C          0.00000        0.00000        0.00000
C         -0.65396       -1.22126       -0.00000
C          1.38563        0.00000        0.00000
C          0.09526       -2.37957        0.00866
N          2.11912       -1.10562        0.01199
C          1.48546       -2.27640        0.02149
C          2.30642       -3.51253        0.03449
N          1.74513       -4.60745       -0.39909
C          3.65824       -3.56714        0.50995
C          2.40434       -5.79109       -0.42442
N          4.38617       -2.58332        1.04242
C          4.35289       -4.81920        0.47143
C          3.70163       -5.99343       -0.01477
S          5.80914       -3.21778        1.41887
N          5.59255       -4.74484        0.95148
C          4.33823       -7.30129       -0.04468
S          3.92538       -8.50994       -1.19599
C          5.34635       -7.80036        0.78055
C          5.02228       -9.67486       -0.60565
N          5.94461       -7.13195        1.80606
C          5.73482       -9.13970        0.46080
C          5.14673      -10.98934       -1.19389
C          6.85942       -7.78601        2.45241
N          6.69902       -9.79515        1.16143
C          6.22188      -11.83352       -1.14351
S          3.85015      -11.71209       -2.09135
C          7.24024       -9.12500        2.13194
C          6.00516      -13.04904       -1.83547
C          4.77174      -13.12129       -2.40238
H         -0.54853        0.93120        0.00000
H         -1.73532       -1.26909       -0.00410
H          1.93662        0.93286       -0.01167
H         -0.36319       -3.35650        0.00329
H          1.82722       -6.62671       -0.78554
H          7.34594       -7.27532        3.27671
H          7.12596      -11.57904       -0.61654
H          8.01319       -9.61831        2.71115
H          6.74422      -13.83222       -1.90940
H          4.35413      -13.92862       -2.97925
$end

$opt
CONSTRAINT
tors 4 6 7 8 21.82164
tors 10 13 16 17 30.00000
tors 17 19 22 25 156.39459
ENDCONSTRAINT
$end
--------------------------------------------------------------

   16   -2291.1378699350      5.23E-09 Convergence criterion met
 Total energy in the final basis set = -2291.1378699350
   14   -2291.1421530766      8.58E-09 Convergence criterion met
 Total energy in the final basis set = -2291.1421530766
   13   -2291.1442109408      5.54E-09 Convergence criterion met
 Total energy in the final basis set = -2291.1442109408
   13   -2291.1448042648      6.02E-09 Convergence criterion met
 Total energy in the final basis set = -2291.1448042648
   11   -2291.1448950385      9.34E-09 Convergence criterion met
 Total energy in the final basis set = -2291.1448950385
   12   -2291.1449343352      3.96E-09 Convergence criterion met
 Total energy in the final basis set = -2291.1449343352
   10   -2291.1449413551      6.15E-09 Convergence criterion met
 Total energy in the final basis set = -2291.1449413551
   10   -2291.1449445460      6.76E-09 Convergence criterion met
 Total energy in the final basis set = -2291.1449445460

             Standard Nuclear Orientation (Angstroms)
    I     Atom           X                Y                Z
 ----------------------------------------------------------------
    1      C       7.3904594530     1.8288860262     0.1242517056
    2      C       6.4873688776     2.5049183094     0.9279928463
    3      C       6.9188261592     0.7866638677    -0.6575396862
    4      C       5.1630550661     2.1132640244     0.9196565367
    5      N       5.6511272222     0.3968007921    -0.6717853855
    6      C       4.7886008699     1.0451677973     0.1066688503
    7      C       3.3649172376     0.6209687100     0.0706232730
    8      N       2.4753066455     1.5022791968     0.4381045106
    9      C       2.9320543905    -0.6820477544    -0.3440926668
   10      C       1.1532551519     1.2118611237     0.4365443992
   11      N       3.6831148402    -1.7034791482    -0.7632030071
   12      C       1.5287432058    -0.9746788238    -0.3607998849
   13      C       0.5958738428     0.0098398484     0.0854847693
   14      S       2.6636498817    -2.8711768559    -1.1729958694
   15      N       1.2480759700    -2.1842996029    -0.8425412614
   16      C      -0.8462388512    -0.1903986060     0.0438207656
   17      S      -1.8958220269     1.1130209793    -0.3250057126
   18      C      -1.6050716893    -1.2893655026     0.4159943663
   19      C      -3.3373172809     0.2409554281    -0.0404228623
   20      N      -1.1115156723    -2.4666786936     0.8970047495
   21      C      -3.0156746476    -1.0545014301     0.3411859149
   22      C      -4.6439157043     0.8339297555    -0.2243360700
   23      C      -1.9987518460    -3.3595148674     1.1983616231
   24      N      -3.9189661503    -2.0277892394     0.6515722848
   25      C      -5.8300685599     0.1978988264    -0.4695412784
   26      S      -4.8754477115     2.5501432177    -0.1632506528
   27      C      -3.4095320654    -3.1487095064     1.0544063525
   28      C      -6.9166395267     1.0932271516    -0.6140168560
   29      C      -6.5509647085     2.3952138080    -0.4797567078
   30      H       8.4360928340     2.1011163055     0.0988269239
   31      H       6.8098474880     3.3258670429     1.5538312484
   32      H       7.5904614091     0.2356054288    -1.3056038250
   33      H       4.4172935553     2.6128021910     1.5182887760
   34      H       0.5147113391     2.0185293061     0.7759407680
   35      H      -1.6421121080    -4.3062218513     1.5900703712
   36      H      -5.9056985603    -0.8754433433    -0.5340636216
   37      H      -4.0957328993    -3.9497798088     1.3064964161
   38      H      -7.9303562997     0.7809750594    -0.8131611547
   39      H      -7.1709701327     3.2730872319    -0.5411408968
 ----------------------------------------------------------------

    9   -2291.1449452224      5.91E-09 Convergence criterion met
 Total energy in the final basis set = -2291.1449452224
 Final energy is   -2291.14494522241
 **  OPTIMIZATION CONVERGED  **

                    Orbital Energies (a.u.)
 --------------------------------------------------------------

 Alpha MOs
 -- Occupied --
-89.142 -89.102 -89.081 -14.477 -14.473 -14.460 -14.457 -14.447
-14.434 -10.354 -10.352 -10.348 -10.347 -10.343 -10.341 -10.341
-10.339 -10.338 -10.336 -10.336 -10.334 -10.331 -10.324 -10.321
-10.310 -10.301 -10.298 -10.296 -10.294  -8.152  -8.117  -8.096
 -6.102  -6.096  -6.096  -6.066  -6.062  -6.061  -6.046  -6.042
 -6.039  -1.139  -1.099  -1.070  -1.050  -1.027  -1.013  -1.001
 -0.988  -0.926  -0.912  -0.895  -0.879  -0.870  -0.852  -0.840
 -0.813  -0.777  -0.771  -0.746  -0.738  -0.729  -0.721  -0.708
 -0.671  -0.656  -0.648  -0.629  -0.628  -0.622  -0.606  -0.600
 -0.588  -0.575  -0.566  -0.562  -0.557  -0.545  -0.544  -0.526
 -0.512  -0.506  -0.502  -0.502  -0.493  -0.492  -0.488  -0.481
 -0.472  -0.466  -0.462  -0.457  -0.450  -0.439  -0.428  -0.427
 -0.418  -0.410  -0.389  -0.374  -0.371  -0.361  -0.356  -0.353
 -0.344  -0.338  -0.335  -0.332  -0.320  -0.268

          Ground-State Mulliken Net Atomic Charges

     Atom                 Charge (a.u.)
  ----------------------------------------
      1 C                    -0.091461
      2 C                    -0.129010
      3 C                    -0.080935
      4 C                    -0.118449
      5 N                    -0.142361
      6 C                     0.083664
      7 C                     0.108215
      8 N                    -0.175402
      9 C                    -0.014637
     10 C                    -0.124192
     11 N                    -0.223346
     12 C                     0.039586
     13 C                     0.081682
     14 S                     0.406081
     15 N                    -0.260322
     16 C                    -0.066710
     17 S                     0.156482
     18 C                     0.043673
     19 C                    -0.053347
     20 N                    -0.133273
     21 C                     0.045542
     22 C                    -0.011850
     23 C                    -0.048424
     24 N                    -0.163420
     25 C                    -0.139884
     26 S                     0.098584
     27 C                    -0.046181
     28 C                    -0.155866
     29 C                    -0.181305
     30 H                     0.132906
     31 H                     0.119543
     32 H                     0.118708
     33 H                     0.136465
     34 H                     0.128772
     35 H                     0.127263
     36 H                     0.138711
     37 H                     0.126709
     38 H                     0.130868
     39 H                     0.136923
  ----------------------------------------
  Sum of atomic charges =     0.000000

                    Cartesian Multipole Moments
 -----------------------------------------------------------------
    Charge (ESU x 10^10)
                 0.0000
    Dipole Moment (Debye)
         X      -0.5523      Y       0.0523      Z       0.9245
       Tot       1.0782
    Quadrupole Moments (Debye-Ang)
        XX    -154.0226     XY       8.2729     YY    -165.8137
        XZ       4.5765     YZ       0.2641     ZZ    -184.3080

 Total job time:  8622.99s(wall), 128412.04s(cpu)
        *  Thank you very much for using Q-Chem.  Have a nice day.  *
