 Q-Chem 4.4, Q-Chem, Inc., Pleasanton, CA (2016)
 Q-Chem 4.4.2 for Intel X86 Linux

User input:
--------------------------------------------------------------
$comment
OPTIMIZATION
$end

$rem
JOBTYPE OPT
EXCHANGE omegaB97X-D
BASIS cc-pVTZ
$end

$molecule
0 1
C          0.00000        0.00000        0.00000
C         -0.65396       -1.22126       -0.00000
C          1.38563        0.00000        0.00000
C          0.09526       -2.37957        0.00866
N          2.11912       -1.10562        0.01199
C          1.48546       -2.27640        0.02149
C          2.30642       -3.51253        0.03449
N          1.74513       -4.60745       -0.39909
C          3.65824       -3.56714        0.50995
C          2.40434       -5.79109       -0.42442
N          4.38617       -2.58332        1.04242
C          4.35289       -4.81920        0.47143
C          3.70163       -5.99343       -0.01477
S          5.80914       -3.21778        1.41887
N          5.59255       -4.74484        0.95148
C          4.33823       -7.30129       -0.04468
S          4.21474       -8.36465       -1.39035
C          5.13036       -7.90891        0.92985
C          5.15330       -9.60897       -0.69790
N          5.46782       -7.37157        2.13557
C          5.59343       -9.21076        0.55873
C          5.42200      -10.85094       -1.38688
C          6.21213       -8.11127        2.89798
N          6.37315       -9.95888        1.38490
C          6.46261      -11.71541       -1.18453
S          4.37606      -11.44361       -2.63736
C          6.66794       -9.41255        2.52442
C          6.42289      -12.84099       -2.04171
C          5.35611      -12.82582       -2.88414
H         -0.54853        0.93120        0.00000
H         -1.73532       -1.26909       -0.00410
H          1.93662        0.93286       -0.01167
H         -0.36319       -3.35650        0.00329
H          1.82722       -6.62671       -0.78554
H          6.48907       -7.70587        3.86541
H          7.21695      -11.53887       -0.43646
H          7.28864       -9.98234        3.20734
H          7.16514      -13.62456       -2.03058
H          5.09092      -13.55509       -3.63034
$end

$opt
CONSTRAINT
tors 4 6 7 8 21.82164
tors 10 13 16 17 45.00000
tors 17 19 22 25 156.39459
ENDCONSTRAINT
$end
--------------------------------------------------------------

   16   -2291.1450425775      4.62E-09 Convergence criterion met
 Total energy in the final basis set = -2291.1450425775
   13   -2291.1464165988      9.61E-09 Convergence criterion met
 Total energy in the final basis set = -2291.1464165988
   12   -2291.1466647796      5.14E-09 Convergence criterion met
 Total energy in the final basis set = -2291.1466647796
   11   -2291.1467119653      9.18E-09 Convergence criterion met
 Total energy in the final basis set = -2291.1467119653
   10   -2291.1467227089      9.94E-09 Convergence criterion met
 Total energy in the final basis set = -2291.1467227089
   10   -2291.1467261564      5.72E-09 Convergence criterion met
 Total energy in the final basis set = -2291.1467261564
    9   -2291.1467272500      6.69E-09 Convergence criterion met
 Total energy in the final basis set = -2291.1467272500

             Standard Nuclear Orientation (Angstroms)
    I     Atom           X                Y                Z
 ----------------------------------------------------------------
    1      C      -7.4214685047     1.7130096002    -0.1728965076
    2      C      -6.5661130978     2.3110904688    -1.0833622739
    3      C      -6.8960952015     0.7739873147     0.7004310902
    4      C      -5.2338228537     1.9476090837    -1.0851740511
    5      N      -5.6202617677     0.4114840821     0.7060817410
    6      C      -4.8040625880     0.9839631831    -0.1754170683
    7      C      -3.3697213771     0.5967920159    -0.1453958417
    8      N      -2.5151993766     1.4506220387    -0.6389172383
    9      C      -2.8957742888    -0.6511935324     0.3809020504
   10      C      -1.1850109646     1.1908063605    -0.6467109519
   11      N      -3.6102477871    -1.6550712596     0.8956001666
   12      C      -1.4871675276    -0.9080825017     0.3859816367
   13      C      -0.5928748679     0.0561633294    -0.1632396987
   14      S      -2.5518295725    -2.7663974513     1.3609153368
   15      N      -1.1614355940    -2.0735432200     0.9426755068
   16      C       0.8523703575    -0.1313740644    -0.1693708328
   17      S       1.9082058509     1.1176139203     0.3303591188
   18      C       1.5964355863    -1.2186061497    -0.5894957660
   19      C       3.3427039563     0.2479783972    -0.0018577326
   20      N       1.0827315293    -2.3664896440    -1.1189463757
   21      C       3.0088558717    -1.0108549895    -0.4835812585
   22      C       4.6550837211     0.8088739461     0.2368071048
   23      C       1.9588383562    -3.2543744655    -1.4645479188
   24      N       3.8989696255    -1.9757006346    -0.8539168631
   25      C       5.8297126122     0.1405227940     0.4475087579
   26      S       4.9110193202     2.5218535676     0.2968675586
   27      C       3.3733712614    -3.0643109985    -1.3199127377
   28      C       6.9269913377     1.0078425518     0.6652780884
   29      C       6.5806638281     2.3209599280     0.6194478473
   30      H      -8.4712410974     1.9670680438    -0.1342345424
   31      H      -6.9307317331     3.0510523991    -1.7827115919
   32      H      -7.5301799693     0.2888101008     1.4334450328
   33      H      -4.5234431697     2.3890086229    -1.7668796668
   34      H      -0.5730898981     1.9641806886    -1.0949941601
   35      H       1.5908014402    -4.1812467651    -1.8913669334
   36      H       5.8907139870    -0.9355689924     0.4376974383
   37      H       4.0486196712    -3.8575785996    -1.6214970618
   38      H       7.9339717284     0.6673463312     0.8519720037
   39      H       7.2129212474     3.1820489077     0.7515519514
 ----------------------------------------------------------------

    9   -2291.1467276316      4.15E-09 Convergence criterion met
 Total energy in the final basis set = -2291.1467276316
 Final energy is   -2291.14672763159
 **  OPTIMIZATION CONVERGED  **

                    Orbital Energies (a.u.)
 --------------------------------------------------------------

 Alpha MOs
 -- Occupied --
-89.143 -89.102 -89.080 -14.478 -14.475 -14.460 -14.458 -14.448
-14.435 -10.355 -10.352 -10.349 -10.346 -10.342 -10.341 -10.340
-10.338 -10.337 -10.337 -10.335 -10.335 -10.330 -10.324 -10.320
-10.310 -10.302 -10.299 -10.296 -10.293  -8.153  -8.117  -8.096
 -6.103  -6.097  -6.097  -6.066  -6.062  -6.060  -6.045  -6.041
 -6.039  -1.140  -1.098  -1.071  -1.050  -1.027  -1.012  -1.001
 -0.988  -0.926  -0.913  -0.896  -0.879  -0.870  -0.852  -0.839
 -0.813  -0.777  -0.770  -0.746  -0.738  -0.729  -0.722  -0.709
 -0.671  -0.655  -0.647  -0.629  -0.629  -0.622  -0.606  -0.601
 -0.589  -0.576  -0.567  -0.563  -0.557  -0.545  -0.543  -0.526
 -0.512  -0.506  -0.502  -0.502  -0.493  -0.492  -0.487  -0.480
 -0.472  -0.467  -0.462  -0.458  -0.450  -0.438  -0.428  -0.426
 -0.419  -0.410  -0.391  -0.375  -0.370  -0.362  -0.357  -0.353
 -0.343  -0.339  -0.335  -0.333  -0.319  -0.270

          Ground-State Mulliken Net Atomic Charges

     Atom                 Charge (a.u.)
  ----------------------------------------
      1 C                    -0.091166
      2 C                    -0.128297
      3 C                    -0.080545
      4 C                    -0.118793
      5 N                    -0.143641
      6 C                     0.083159
      7 C                     0.108444
      8 N                    -0.174558
      9 C                    -0.013850
     10 C                    -0.114089
     11 N                    -0.223661
     12 C                     0.042537
     13 C                     0.076315
     14 S                     0.407193
     15 N                    -0.262992
     16 C                    -0.077693
     17 S                     0.168443
     18 C                     0.047062
     19 C                    -0.057660
     20 N                    -0.137532
     21 C                     0.042426
     22 C                    -0.013461
     23 C                    -0.047929
     24 N                    -0.162928
     25 C                    -0.140481
     26 S                     0.097672
     27 C                    -0.046831
     28 C                    -0.155842
     29 C                    -0.182148
     30 H                     0.132992
     31 H                     0.119564
     32 H                     0.119749
     33 H                     0.136753
     34 H                     0.131416
     35 H                     0.128011
     36 H                     0.137683
     37 H                     0.126979
     38 H                     0.130839
     39 H                     0.136860
  ----------------------------------------
  Sum of atomic charges =     0.000000

                    Cartesian Multipole Moments
 -----------------------------------------------------------------
    Charge (ESU x 10^10)
                 0.0000
    Dipole Moment (Debye)
         X       0.2592      Y      -0.0401      Z      -0.9722
       Tot       1.0070
    Quadrupole Moments (Debye-Ang)
        XX    -153.5893     XY      -8.0462     YY    -167.3328
        XZ       5.0113     YZ       0.4038     ZZ    -183.0311

 Total job time:  7158.53s(wall), 106694.65s(cpu)
        *  Thank you very much for using Q-Chem.  Have a nice day.  *
