 Q-Chem 4.4, Q-Chem, Inc., Pleasanton, CA (2016)
 Q-Chem 4.4.2 for Intel X86 Linux

User input:
--------------------------------------------------------------
$comment
OPTIMIZATION
$end

$rem
JOBTYPE OPT
EXCHANGE omegaB97X-D
BASIS cc-pVTZ
$end

$molecule
0 1
C          0.00000        0.00000        0.00000
C         -0.65396       -1.22126       -0.00000
C          1.38563        0.00000        0.00000
C          0.09526       -2.37957        0.00866
N          2.11912       -1.10562        0.01199
C          1.48546       -2.27640        0.02149
C          2.30642       -3.51253        0.03449
N          1.74513       -4.60745       -0.39909
C          3.65824       -3.56714        0.50995
C          2.40434       -5.79109       -0.42442
N          4.38617       -2.58332        1.04242
C          4.35289       -4.81920        0.47143
C          3.70163       -5.99343       -0.01477
S          5.80914       -3.21778        1.41887
N          5.59255       -4.74484        0.95148
C          4.33823       -7.30129       -0.04468
S          5.93279       -7.54554       -0.64009
C          3.83159       -8.52860        0.38358
C          5.94766       -9.22976       -0.37200
N          2.60116       -8.73935        0.92947
C          4.74253       -9.61678        0.20183
C          7.08767      -10.05589       -0.69957
C          2.32719       -9.96470        1.25485
N          4.42059      -10.89031        0.55490
C          7.42545      -11.27000       -0.16763
S          8.24371       -9.57785       -1.90122
C          3.23874      -11.04839        1.06689
C          8.61573      -11.80392       -0.71666
C          9.17070      -10.99707       -1.65948
H         -0.54853        0.93120        0.00000
H         -1.73532       -1.26909       -0.00410
H          1.93662        0.93286       -0.01167
H         -0.36319       -3.35650        0.00329
H          1.82722       -6.62671       -0.78554
H          1.35072      -10.15716        1.68661
H          6.82486      -11.75307        0.58453
H          2.94995      -12.05196        1.35972
H          9.03984      -12.74903       -0.41344
H         10.06929      -11.16390       -2.22838
$end

$opt
CONSTRAINT
tors 4 6 7 8 21.82164
tors 10 13 16 17 135.00000
tors 17 19 22 25 156.39459
ENDCONSTRAINT
$end
--------------------------------------------------------------

   16   -2291.1481610501      5.08E-09 Convergence criterion met
 Total energy in the final basis set = -2291.1481610501
   12   -2291.1488176734      9.95E-09 Convergence criterion met
 Total energy in the final basis set = -2291.1488176734
   12   -2291.1489606615      5.85E-09 Convergence criterion met
 Total energy in the final basis set = -2291.1489606615
   12   -2291.1490358845      6.15E-09 Convergence criterion met
 Total energy in the final basis set = -2291.1490358845
   11   -2291.1490650565      8.01E-09 Convergence criterion met
 Total energy in the final basis set = -2291.1490650565
   11   -2291.1490772578      5.10E-09 Convergence criterion met
 Total energy in the final basis set = -2291.1490772578
    9   -2291.1490792992      6.45E-09 Convergence criterion met
 Total energy in the final basis set = -2291.1490792992

             Standard Nuclear Orientation (Angstroms)
    I     Atom           X                Y                Z
 ----------------------------------------------------------------
    1      C       7.6049646656     0.2589412213    -0.8093806448
    2      C       6.9234153083     1.4647865863    -0.8144458121
    3      C       6.8782959968    -0.9041385860    -0.6105266316
    4      C       5.5560943862     1.4588166042    -0.6198079554
    5      N       5.5664175936    -0.9244978599    -0.4168670839
    6      C       4.9178275339     0.2374528767    -0.4160092633
    7      C       3.4452629431     0.2070397628    -0.2242582918
    8      N       2.7650222625     1.2247390045    -0.6760138828
    9      C       2.7558466307    -0.8612524995     0.4402318299
   10      C       1.4148450657     1.2810683404    -0.5667933577
   11      N       3.2720577564    -1.9446856472     1.0252287441
   12      C       1.3311827818    -0.7903166697     0.5557985181
   13      C       0.6296931535     0.3326621095     0.0317060278
   14      S       2.0350929593    -2.7683960545     1.6272088009
   15      N       0.7981540221    -1.8258505659     1.2045882632
   16      C      -0.8192756318     0.4622850730     0.1007651120
   17      S      -1.8819003275    -0.8324195247    -0.2491820029
   18      C      -1.5605869540     1.6072690794     0.3423580939
   19      C      -3.3087579116     0.0968291622    -0.1008607396
   20      N      -1.0420891462     2.8261625040     0.6696628014
   21      C      -2.9731838779     1.4012495929     0.2381361903
   22      C      -4.6254757038    -0.4774131628    -0.2780488006
   23      C      -1.9139594826     3.7639354549     0.8691118975
   24      N      -3.8568274250     2.4161627819     0.4523482815
   25      C      -5.8133698754    -0.0172818495     0.2205656244
   26      S      -4.8731604317    -1.9241761245    -1.1990257624
   27      C      -3.3276611079     3.5598769404     0.7562807446
   28      C      -6.9148413790    -0.8322763039    -0.1338665710
   29      C      -6.5579319637    -1.9015617184    -0.8925266330
   30      H       8.6745805098     0.2150879987    -0.9578309269
   31      H       7.4502279331     2.3971483961    -0.9654772877
   32      H       7.3743475362    -1.8678356731    -0.6091820920
   33      H       4.9750747834     2.3679656763    -0.6235940321
   34      H       0.9575645538     2.1650713443    -0.9879488293
   35      H      -1.5416345539     4.7461532275     1.1395455153
   36      H      -5.8782581024     0.8814383319     0.8116836447
   37      H      -3.9998535851     4.3923254957     0.9327466064
   38      H      -7.9320523800    -0.6303731137     0.1649888412
   39      H      -7.1901380797    -2.6750174360    -1.2936780414
 ----------------------------------------------------------------

    9   -2291.1490799397      3.28E-09 Convergence criterion met
 Total energy in the final basis set = -2291.1490799397
 Final energy is   -2291.14907993968
 **  OPTIMIZATION CONVERGED  **

                    Orbital Energies (a.u.)
 --------------------------------------------------------------

 Alpha MOs
 -- Occupied --
-89.146 -89.100 -89.079 -14.482 -14.479 -14.461 -14.461 -14.447
-14.435 -10.355 -10.354 -10.351 -10.345 -10.344 -10.343 -10.339
-10.339 -10.337 -10.337 -10.334 -10.332 -10.328 -10.324 -10.319
-10.310 -10.302 -10.299 -10.295 -10.293  -8.156  -8.115  -8.095
 -6.106  -6.100  -6.100  -6.064  -6.060  -6.058  -6.044  -6.040
 -6.038  -1.142  -1.100  -1.070  -1.050  -1.029  -1.013  -1.003
 -0.987  -0.926  -0.913  -0.897  -0.879  -0.868  -0.854  -0.838
 -0.812  -0.777  -0.771  -0.748  -0.739  -0.731  -0.718  -0.711
 -0.672  -0.655  -0.647  -0.629  -0.629  -0.621  -0.606  -0.603
 -0.590  -0.576  -0.569  -0.561  -0.558  -0.545  -0.543  -0.526
 -0.512  -0.507  -0.502  -0.501  -0.494  -0.492  -0.486  -0.482
 -0.473  -0.468  -0.460  -0.458  -0.450  -0.440  -0.428  -0.427
 -0.421  -0.412  -0.397  -0.376  -0.371  -0.363  -0.358  -0.350
 -0.342  -0.339  -0.336  -0.334  -0.317  -0.269

          Ground-State Mulliken Net Atomic Charges

     Atom                 Charge (a.u.)
  ----------------------------------------
      1 C                    -0.091149
      2 C                    -0.129314
      3 C                    -0.079677
      4 C                    -0.118645
      5 N                    -0.144779
      6 C                     0.081717
      7 C                     0.106132
      8 N                    -0.176123
      9 C                    -0.012315
     10 C                    -0.064817
     11 N                    -0.220209
     12 C                     0.030504
     13 C                     0.061123
     14 S                     0.409234
     15 N                    -0.286810
     16 C                    -0.065245
     17 S                     0.187344
     18 C                     0.031607
     19 C                    -0.056476
     20 N                    -0.158306
     21 C                     0.046684
     22 C                    -0.014503
     23 C                    -0.045811
     24 N                    -0.162186
     25 C                    -0.139039
     26 S                     0.100466
     27 C                    -0.049655
     28 C                    -0.157465
     29 C                    -0.181615
     30 H                     0.133085
     31 H                     0.120299
     32 H                     0.119214
     33 H                     0.137646
     34 H                     0.126453
     35 H                     0.131388
     36 H                     0.136508
     37 H                     0.127817
     38 H                     0.130345
     39 H                     0.136572
  ----------------------------------------
  Sum of atomic charges =     0.000000

                    Cartesian Multipole Moments
 -----------------------------------------------------------------
    Charge (ESU x 10^10)
                 0.0000
    Dipole Moment (Debye)
         X      -0.0204      Y       1.5830      Z       0.2771
       Tot       1.6072
    Quadrupole Moments (Debye-Ang)
        XX    -151.1462     XY       4.1910     YY    -166.9182
        XZ      -3.3442     YZ       2.9557     ZZ    -184.9374

 Total job time:  7271.48s(wall), 108436.94s(cpu)
        *  Thank you very much for using Q-Chem.  Have a nice day.  *
