 Q-Chem 4.4, Q-Chem, Inc., Pleasanton, CA (2016)
 Q-Chem 4.4.2 for Intel X86 Linux

User input:
--------------------------------------------------------------
$comment
SP
$end

$rem
MEM_STATIC 5000
MEM_TOTAL 20000
JOBTYPE SP
EXCHANGE B3LYP
BASIS 6-31g(d,p)
$end

$molecule
0 1
O          16.481000     11.664000      8.066000
C          15.210000     11.036000      8.231000
H          14.653000     10.930000      7.291000
H          14.532000     11.634000      8.852000
H          15.313000     10.044000      8.686000
O          17.005000     12.074000     10.241000
C          17.193000     12.218000      9.040000
C          18.377000     13.017000      8.576000
H          18.756000     13.423000      9.523000
H          17.934000     13.868000      8.045000
C          19.506000     12.413000      7.636000
H          19.943000     11.558000      8.167000
H          19.032000     11.904000      6.787000
C          20.561000     13.447000      7.274000
H          21.169000     13.012000      6.471000
H          19.928000     14.208000      6.802000
C          21.362000     13.973000      8.467000
C          22.076000     12.945000      9.300000
C          21.586000     12.547000     10.568000
H          20.599000     12.873000     10.885000
C          22.285000     11.653000     11.366000
H          21.865000     11.404000     12.335000
C          23.571000     11.316000     10.962000
H          24.191000     10.656000     11.562000
C          24.022000     11.603000      9.679000
H          25.014000     11.351000      9.316000
C          23.308000     12.423000      8.809000
H          23.733000     12.713000      7.852000
C          21.661000     17.322000     12.785000
C          23.944000     17.083000     12.116000
C          24.475000     21.235000     10.330000
C          18.810000     18.888000      8.833000
C          23.995000     20.311000      7.049000
C          22.682000     16.581000     12.215000
C          20.368000     20.473000      7.144000
C          23.312000     20.514000     12.339000
C          24.242000     16.406000      8.158000
C          19.348000     18.317000      7.653000
C          22.171000     15.274000      8.314000
C          23.431000     16.847000      7.096000
C          21.147000     18.352000      6.325000
C          21.667000     21.029000      6.997000
C          23.590000     15.703000     10.387000
C          23.137000     21.971000      8.592000
C          20.894000     15.260000      9.194000
C          19.854000     16.234000      8.807000
C          24.239000     21.210000      8.099000
C          20.112000     21.187000     11.116000
C          22.178000     22.033000     10.819000
C          22.146000     21.295000     12.035000
C          23.115000     19.217000     12.875000
C          19.284000     16.775000      9.998000
C          23.508000     15.557000      8.962000
C          24.158000     18.430000     12.370000
C          20.067000     19.174000      6.762000
C          24.509000     16.559000     10.964000
C          23.507000     18.161000      6.556000
C          19.024000     18.941000     11.127000
C          24.456000     20.532000     11.531000
C          22.162000     16.283000      7.147000
C          20.703000     19.449000     12.783000
C          22.433000     18.914000      6.117000
C          25.154000     17.296000      8.689000
C          20.751000     21.928000      8.882000
C          19.836000     21.028000      8.325000
C          25.290000     18.535000      8.116000
C          18.776000     18.094000     10.045000
C          19.872000     17.019000      7.648000
C          19.202000     20.265000     10.611000
C          21.125000     15.572000     10.616000
C          25.568000     18.683000     10.373000
C          21.002000     17.042000      6.771000
C          24.507000     18.995000      7.058000
C          19.828000     18.538000     12.186000
C          25.036000     20.706000      9.191000
C          21.826000     18.692000     13.108000
C          23.295000     22.007000     10.019000
C          25.261000     17.346000     10.049000
C          25.586000     19.398000      9.194000
C          22.417000     15.730000     11.172000
C          20.097000     16.402000     11.118000
C          20.861000     21.988000     10.259000
C          24.990000     19.237000     11.547000
C          22.750000     20.246000      6.484000
C          19.056000     20.219000      9.170000
C          21.825000     21.861000      8.064000
C          20.344000     17.259000     12.257000
C          20.843000     20.782000     12.233000
O          31.677000     31.296000     19.435000
C          32.496000     31.318000     20.674000
H          33.276000     32.087000     20.608000
H          32.873000     30.335000     20.980000
H          31.774000     31.556000     21.463000
O          29.977000     30.016000     20.402000
C          30.424000     30.614000     19.451000
C          29.757000     30.767000     18.084000
H          30.014000     31.794000     17.795000
H          28.677000     30.830000     18.270000
C          30.186000     29.671000     17.103000
H          31.277000     29.563000     17.090000
H          29.884000     28.723000     17.566000
C          29.687000     29.856000     15.677000
H          28.676000     30.280000     15.726000
H          30.173000     30.744000     15.257000
C          29.843000     28.691000     14.608000
C          31.175000     27.988000     14.877000
C          32.348000     28.288000     14.177000
H          32.335000     29.163000     13.535000
C          33.567000     27.608000     14.420000
H          34.546000     27.901000     14.052000
C          33.582000     26.525000     15.323000
H          34.464000     25.892000     15.361000
C          32.387000     26.062000     15.875000
H          32.352000     25.098000     16.372000
C          31.217000     26.807000     15.682000
H          30.276000     26.417000     16.059000
C          29.267000     26.702000      9.578000
C          28.668000     24.867000     10.972000
C          24.191000     24.975000      9.983000
C          26.512000     30.790000     10.830000
C          23.324000     26.684000     12.972000
C          29.509000     25.960000     10.741000
C          23.931000     29.989000     11.719000
C          26.122000     25.302000      8.583000
C          27.117000     26.041000     14.405000
C          26.199000     30.772000     12.205000
C          28.605000     27.913000     14.266000
C          26.348000     27.200000     14.708000
C          25.186000     29.510000     13.760000
C          23.215000     28.811000     11.872000
C          28.971000     25.887000     12.922000
C          22.981000     26.793000     10.536000
C          29.274000     28.763000     13.200000
C          28.542000     29.916000     12.602000
C          23.137000     26.034000     11.722000
C          25.514000     28.768000      8.161000
C          24.310000     26.882000      8.559000
C          25.546000     26.474000      8.033000
C          27.495000     25.247000      8.816000
C          28.716000     29.871000     11.222000
C          28.425000     26.473000     14.052000
C          27.683000     24.499000     10.028000
C          24.923000     30.369000     12.684000
C          28.363000     24.763000     12.345000
C          24.964000     27.216000     14.410000
C          27.510000     29.738000      9.066000
C          25.434000     24.518000      9.519000
C          27.136000     28.288000     14.604000
C          27.688000     27.569000      8.108000
C          24.394000     28.376000     13.938000
C          26.454000     24.931000     13.835000
C          23.610000     28.930000      9.689000
C          24.210000     30.035000     10.307000
C          25.069000     25.004000     13.554000
C          27.738000     30.418000     10.318000
C          27.233000     30.289000     13.106000
C          26.134000     29.820000      8.833000
C          29.789000     28.043000     11.995000
C          26.137000     24.059000     11.828000
C          26.551000     29.483000     14.078000
C          24.318000     26.151000     13.882000
C          28.307000     28.615000      8.781000
C          23.923000     24.908000     11.366000
C          28.278000     26.399000      8.663000
C          23.657000     26.123000      9.531000
C          27.093000     24.342000     12.769000
C          24.885000     24.446000     12.274000
C          29.717000     26.582000     11.986000
C          29.518000     28.794000     10.849000
C          24.280000     28.290000      8.637000
C          26.419000     24.011000     10.441000
C          23.415000     28.085000     13.002000
C          25.554000     30.418000      9.896000
C          22.973000     28.175000     10.668000
C          29.337000     28.114000      9.620000
C          26.301000     27.631000      7.793000
$end

--------------------------------------------------------------

             Standard Nuclear Orientation (Angstroms)
    I     Atom           X                Y                Z
 ----------------------------------------------------------------
    1      O     -13.7658440707    -0.2272599985    -1.7501458099
    2      C     -14.8544811883    -0.3970670505    -2.6573860158
    3      H     -15.4832936261    -1.2658235652    -2.4229888396
    4      H     -14.5119999844    -0.6099570982    -3.6773435897
    5      H     -15.4919392517     0.4943437681    -2.6844409615
    6      O     -12.5468114625     1.3246202079    -2.8810429427
    7      C     -12.6822443966     0.5034669726    -1.9833535284
    8      C     -11.5808704760     0.3324320555    -0.9767376413
    9      H     -10.7890615606     0.9610256396    -1.4047501966
   10      H     -11.2469333942    -0.7023289664    -1.1187469822
   11      C     -11.8008323941     0.5452493400     0.5819100283
   12      H     -12.1409870728     1.5792139830     0.7203546435
   13      H     -12.6956103269    -0.0067403119     0.8969304643
   14      C     -10.5389272559     0.2583528515     1.3809787533
   15      H     -10.8333337807     0.2243467175     2.4373245211
   16      H     -10.3546470461    -0.7799372911     1.0799997110
   17      C      -9.3721285783     1.1995645735     1.0740140319
   18      C      -9.6334275187     2.6697237956     1.2495809005
   19      C      -9.8351187766     3.5252961742     0.1388853790
   20      H      -9.9547921057     3.0946268663    -0.8516378370
   21      C     -10.0032220466     4.8929404802     0.2999174967
   22      H     -10.1339939776     5.4954968744    -0.5929355113
   23      C      -9.7722877886     5.4139538204     1.5671173499
   24      H      -9.8427157928     6.4816455751     1.7543984570
   25      C      -9.6854605287     4.5877128233     2.6814089821
   26      H      -9.5155385707     4.9496448911     3.6910964122
   27      C      -9.6064288311     3.2017915374     2.5715355098
   28      H      -9.4359435720     2.5883342372     3.4519779652
   29      C      -5.2207921812     2.5801015387    -2.2139716442
   30      C      -4.5005190169     3.3486122793    -0.0674934098
   31      C      -1.3305919794     0.1669678497     0.6670556361
   32      C      -6.4522802527    -2.3833568659    -1.9986142754
   33      C      -3.2706384353    -1.8618193679     2.6593857229
   34      C      -5.4998141350     3.0705834367    -0.9498528772
   35      C      -4.8731050007    -3.6415112635    -0.0710346959
   36      C      -1.9127414056     1.3826994264    -1.3557122149
   37      C      -6.0533428822     1.0953763352     2.8862436847
   38      C      -7.0014354677    -2.6419086313    -0.7181985092
   39      C      -7.9493805519     0.7976060216     1.5037911555
   40      C      -6.3894403224    -0.2708713451     2.9074989589
   41      C      -6.4800749215    -2.7120348484     1.4553873517
   42      C      -3.8250800198    -3.4075058235     0.8590357818
   43      C      -6.3088721076     2.7027564711     1.0865804068
   44      C      -1.8740747348    -2.0817270770     0.6911724646
   45      C      -8.3285504419     0.7980161628    -0.0000555874
   46      C      -8.1419491515    -0.4912497268    -0.6950508566
   47      C      -2.1080548000    -1.4877456080     1.9675005352
   48      C      -3.2653029004    -1.3777123513    -3.0108140909
   49      C      -1.6482520615    -1.0292937610    -1.4824057455
   50      C      -1.9227566084     0.1921454049    -2.1584661109
   51      C      -2.9244015255     2.3462191698    -1.5933832183
   52      C      -7.6299393798    -0.2247028655    -1.9999879295
   53      C      -6.8793247851     1.7479723024     1.9930217640
   54      C      -3.2119737566     2.9169628907    -0.3468693528
   55      C      -6.2011849066    -3.3665913373     0.2197380639
   56      C      -4.9897089545     3.0978035235     1.2047853225
   57      C      -5.4237359394    -1.3048873377     3.0564887970
   58      C      -5.6442798405    -0.7102618798    -3.3620399248
   59      C      -1.5742147853     1.3657619454     0.0033451235
   60      C      -7.4571089944    -0.5529302153     2.0639443367
   61      C      -3.9321898608     0.9889367391    -3.3318247833
   62      C      -5.4509761419    -2.5299845306     2.4149275456
   63      C      -4.7227691393     1.4370165232     3.0228471132
   64      C      -2.9861800058    -3.0149789543    -1.2248671487
   65      C      -4.3339461631    -3.3708898788    -1.3445659338
   66      C      -3.7992715448     0.4488045266     3.2520527911
   67      C      -6.7751134086    -1.1360579342    -2.6623613119
   68      C      -7.8190674926    -1.7046508058    -0.0759908789
   69      C      -4.6138241702    -1.6833554851    -3.1566964399
   70      C      -7.5495515918     1.7352316999    -0.8292581131
   71      C      -2.8924191944     2.0769554143     1.9405725200
   72      C      -7.5030808016    -1.7790701118     1.3172686726
   73      C      -4.1049272870    -0.9111178738     3.2872469983
   74      C      -5.2810958818     0.6304036680    -3.3939664224
   75      C      -1.8221107369    -0.0740861817     1.9288738738
   76      C      -3.9172355354     2.1605526421    -2.5789001230
   77      C      -1.3568545069    -1.0304946455    -0.1394794545
   78      C      -4.2380770869     2.4094441437     2.1964046547
   79      C      -2.6330498400     0.8866480511     2.5867040230
   80      C      -6.6309892188     2.6658077531    -0.2873767828
   81      C      -7.2200708464     1.1469380989    -2.0714501584
   82      C      -2.4868857753    -2.0345471347    -2.0622963806
   83      C      -2.3784655903     2.3209080989     0.6384147798
   84      C      -4.0922060522    -2.8250359459     2.1390824702
   85      C      -5.1374900610    -2.7332238434    -2.3061298846
   86      C      -2.7546984649    -3.0278978380     0.1068003769
   87      C      -6.0650677667     1.6066484497    -2.8113239851
   88      C      -2.9225695884    -0.0310312972    -3.1335292702
   89      O      13.0927451487     4.6809712650    -2.0869721879
   90      C      13.8656897228     5.9294866214    -2.3108741534
   91      H      14.8604293977     5.8553781358    -1.8535800340
   92      H      13.3259953453     6.8453626558    -2.0426297341
   93      H      13.9380968910     6.0026042080    -3.4016812034
   94      O      11.4883861342     5.2061995801    -3.7036528521
   95      C      11.9254221542     4.4447113033    -2.8724193580
   96      C      11.3339326707     3.0882883265    -2.4886956308
   97      H      12.2230787903     2.4686568679    -2.3161411944
   98      H      10.9143413906     2.6603606439    -3.4083619052
   99      C      10.3558822267     3.1930446617    -1.3139354683
  100      H      10.7934828772     3.7705655229    -0.4910810914
  101      H       9.5601167216     3.8702119129    -1.6493140227
  102      C       9.8554979069     1.8601474930    -0.7756951222
  103      H       9.7278828482     1.1794004457    -1.6269270850
  104      H      10.7035957159     1.3339455386    -0.3229461748
  105      C       8.6624550959     1.8076359626     0.2722616471
  106      C       8.8074644351     3.0131289642     1.2031498867
  107      C       9.4238489629     2.9363283764     2.4561865117
  108      H       9.9547108903     2.0202646004     2.6948720210
  109      C       9.5254110652     4.0567161993     3.3174798796
  110      H      10.1372467715     4.1206359029     4.2126253091
  111      C       8.8990199075     5.2654805204     2.9499939160
  112      H       8.8165096457     6.0547302451     3.6918388652
  113      C       8.0948543401     5.3147571001     1.8107013465
  114      H       7.4254899859     6.1536332950     1.6501769215
  115      C       8.0851373554     4.2185877191     0.9392128106
  116      H       7.4143341221     4.2306740151     0.0850541932
  117      C       5.2936438515    -0.9223136629     3.5566615682
  118      C       3.8895665819     0.7280475406     2.5696778201
  119      C       1.5172898073    -2.1903570248    -0.0549234253
  120      C       7.6874380130    -3.5494869736    -0.0816049019
  121      C       3.3660716191    -1.4337222496    -2.9902259019
  122      C       5.1338060206     0.3973088084     3.1153618954
  123      C       6.0274996136    -3.7594317857    -2.3824766250
  124      C       2.3230337346    -2.4009801826     2.2038604530
  125      C       5.0921453055     1.7448232908    -1.0482411242
  126      C       7.9161341902    -2.7344774059    -1.2096011177
  127      C       7.3201828288     1.3801558927    -0.2477940721
  128      C       5.7617348847     0.9696700467    -2.0367947360
  129      C       6.8298796676    -1.4759568399    -2.7172532981
  130      C       4.7514547634    -3.3773890843    -2.7691313993
  131      C       5.4396958019     1.6934168604     1.3048179553
  132      C       2.5881467523    -3.3539657025    -1.6593900807
  133      C       8.0399817196     0.5130610274     0.7702693108
  134      C       8.4632989957    -0.8683132405     0.4022413012
  135      C       2.3790881108    -2.0510737103    -2.1749285768
  136      C       4.7657248284    -4.8228574831     1.3502360853
  137      C       2.7387600558    -4.1326253835     0.5886525643
  138      C       2.8516905663    -3.6832749926     1.9138570489
  139      C       3.0122742270    -1.5433496862     3.0593488956
  140      C       8.1136004406    -1.7209428172     1.4450426846
  141      C       5.9829474944     1.9053394491     0.0484826438
  142      C       2.8353330883    -0.2126422475     2.5477811621
  143      C       7.1010815068    -2.8070691862    -2.3716878428
  144      C       4.0506191595     1.5910278266     1.4659128573
  145      C       5.0162603876     0.0820680470    -2.8497808763
  146      C       6.7969926461    -3.7370557976     2.0127515589
  147      C       1.6110382585    -1.6685265395     1.2443448967
  148      C       7.0126310252     0.7042827205    -1.6121390956
  149      C       4.8182033638    -3.1706402253     3.2033713034
  150      C       5.5603821073    -1.1366588259    -3.1843258857
  151      C       3.6898931577     1.6132131293    -0.9345015994
  152      C       4.4134158804    -4.7686139036    -1.0703382348
  153      C       5.7947261433    -4.6315115604    -1.2604274380
  154      C       2.9958551901     0.7068182959    -1.7707280673
  155      C       7.8292389119    -3.1142801117     1.2199677978
  156      C       8.2796655826    -1.3498986989    -0.9545859597
  157      C       6.1285709337    -4.6104210732     1.1497136050
  158      C       7.3495103977     0.3047387668     2.0800407372
  159      C       2.2386653713     0.5230921148     0.3282319773
  160      C       7.5627963365    -0.5778324810    -1.9290377231
  161      C       3.6714905268    -0.0358464128    -2.7602532172
  162      C       6.1759005327    -2.9548197410     3.0026577861
  163      C       1.7297383695    -1.3220253739    -1.1457340195
  164      C       4.2994426264    -1.8791275700     3.4998630546
  165      C       2.0747699882    -3.3713414603    -0.3740716839
  166      C       3.2078028957     1.4925715727     0.3479306967
  167      C       2.0776043618     0.0213802533    -0.9518201933
  168      C       6.1064583637     1.0361777982     2.3241812375
  169      C       7.5075666977    -1.0218801006     2.4872981335
  170      C       3.9083477533    -4.8374921209     0.2355583837
  171      C       1.9369872643    -0.2804130213     1.4547162497
  172      C       4.5749001335    -2.1095878780    -3.2224354517
  173      C       6.6459097898    -4.4679955830    -0.0896606273
  174      C       3.7625201066    -3.9968066769    -2.0268335544
  175      C       6.5047916477    -1.6058324322     3.2991133056
  176      C       4.1043316677    -4.0958619078     2.3902353740
 ----------------------------------------------------------------

    9   -5804.2889105985      8.75E-06 Convergence criterion met
 Total energy in the final basis set = -5804.2889105985

                    Orbital Energies (a.u.)
 --------------------------------------------------------------

 Alpha MOs
 -- Occupied --
-19.197 -19.183 -19.145 -19.126 -10.320 -10.314 -10.252 -10.246
-10.244 -10.243 -10.241 -10.240 -10.240 -10.239 -10.233 -10.228
-10.227 -10.227 -10.226 -10.225 -10.223 -10.223 -10.223 -10.223
-10.221 -10.221 -10.221 -10.220 -10.220 -10.220 -10.219 -10.219
-10.219 -10.219 -10.218 -10.218 -10.218 -10.217 -10.217 -10.217
-10.217 -10.216 -10.216 -10.216 -10.216 -10.215 -10.215 -10.215
-10.215 -10.215 -10.215 -10.215 -10.215 -10.215 -10.215 -10.215
-10.215 -10.214 -10.214 -10.214 -10.214 -10.214 -10.214 -10.214
-10.214 -10.214 -10.214 -10.214 -10.214 -10.213 -10.213 -10.213
-10.213 -10.213 -10.213 -10.213 -10.213 -10.213 -10.213 -10.212
-10.212 -10.212 -10.212 -10.212 -10.212 -10.212 -10.212 -10.212
-10.212 -10.212 -10.212 -10.212 -10.211 -10.211 -10.211 -10.211
-10.211 -10.211 -10.211 -10.211 -10.210 -10.210 -10.210 -10.210
-10.210 -10.209 -10.209 -10.209 -10.209 -10.209 -10.209 -10.209
-10.208 -10.208 -10.208 -10.208 -10.208 -10.208 -10.208 -10.208
-10.208 -10.207 -10.207 -10.206 -10.206 -10.206 -10.206 -10.206
-10.206 -10.206 -10.206 -10.205 -10.203 -10.202 -10.202 -10.202
-10.202 -10.201 -10.200 -10.200 -10.200 -10.198 -10.197 -10.197
-10.197 -10.196 -10.196 -10.195  -1.103  -1.075  -1.008  -1.004
 -0.982  -0.980  -0.965  -0.964  -0.962  -0.960  -0.959  -0.956
 -0.935  -0.930  -0.928  -0.927  -0.925  -0.923  -0.920  -0.920
 -0.916  -0.915  -0.897  -0.895  -0.889  -0.887  -0.886  -0.880
 -0.872  -0.871  -0.852  -0.851  -0.842  -0.839  -0.837  -0.836
 -0.835  -0.834  -0.821  -0.819  -0.808  -0.802  -0.797  -0.796
 -0.795  -0.795  -0.792  -0.792  -0.792  -0.787  -0.783  -0.781
 -0.771  -0.769  -0.767  -0.766  -0.764  -0.762  -0.761  -0.761
 -0.755  -0.749  -0.747  -0.739  -0.732  -0.730  -0.716  -0.715
 -0.714  -0.713  -0.711  -0.711  -0.710  -0.709  -0.709  -0.707
 -0.707  -0.705  -0.704  -0.702  -0.702  -0.697  -0.672  -0.671
 -0.659  -0.656  -0.656  -0.654  -0.649  -0.646  -0.632  -0.628
 -0.627  -0.625  -0.623  -0.623  -0.621  -0.621  -0.618  -0.617
 -0.615  -0.614  -0.612  -0.610  -0.610  -0.608  -0.608  -0.607
 -0.607  -0.605  -0.601  -0.600  -0.577  -0.564  -0.563  -0.561
 -0.560  -0.560  -0.558  -0.556  -0.555  -0.554  -0.553  -0.551
 -0.534  -0.534  -0.533  -0.530  -0.528  -0.526  -0.524  -0.524
 -0.523  -0.522  -0.519  -0.516  -0.515  -0.515  -0.513  -0.512
 -0.504  -0.503  -0.499  -0.494  -0.489  -0.488  -0.486  -0.485
 -0.483  -0.481  -0.480  -0.479  -0.477  -0.477  -0.476  -0.475
 -0.472  -0.470  -0.469  -0.468  -0.467  -0.466  -0.464  -0.464
 -0.463  -0.463  -0.462  -0.461  -0.459  -0.459  -0.457  -0.456
 -0.455  -0.453  -0.452  -0.449  -0.448  -0.444  -0.444  -0.442
 -0.441  -0.439  -0.437  -0.437  -0.436  -0.434  -0.433  -0.433
 -0.429  -0.429  -0.428  -0.428  -0.425  -0.424  -0.424  -0.423
 -0.422  -0.421  -0.420  -0.420  -0.419  -0.418  -0.418  -0.417
 -0.416  -0.416  -0.415  -0.414  -0.413  -0.412  -0.412  -0.411
 -0.410  -0.410  -0.407  -0.405  -0.401  -0.398  -0.397  -0.396
 -0.393  -0.392  -0.392  -0.391  -0.389  -0.386  -0.386  -0.385
 -0.380  -0.375  -0.374  -0.371  -0.369  -0.368  -0.367  -0.366
 -0.364  -0.363  -0.362  -0.362  -0.361  -0.360  -0.357  -0.357
 -0.356  -0.355  -0.354  -0.354  -0.352  -0.351  -0.350  -0.348
 -0.348  -0.347  -0.347  -0.345  -0.344  -0.343  -0.342  -0.341
 -0.340  -0.340  -0.339  -0.338  -0.337  -0.335  -0.334  -0.331
 -0.331  -0.330  -0.329  -0.328  -0.327  -0.326  -0.325  -0.322
 -0.311  -0.310  -0.299  -0.294  -0.287  -0.282  -0.272  -0.271
 -0.270  -0.268  -0.267  -0.266  -0.265  -0.264  -0.263  -0.261
 -0.261  -0.260  -0.259  -0.258  -0.256  -0.255  -0.255  -0.253
 -0.250  -0.247  -0.246  -0.240  -0.222  -0.218  -0.210  -0.210
 -0.209  -0.208  -0.207  -0.205  -0.197  -0.197

          Ground-State Mulliken Net Atomic Charges

     Atom                 Charge (a.u.)
  ----------------------------------------
      1 O                    -0.445296
      2 C                    -0.088085
      3 H                     0.125920
      4 H                     0.129573
      5 H                     0.130050
      6 O                    -0.478808
      7 C                     0.577378
      8 C                    -0.253230
      9 H                     0.137273
     10 H                     0.119217
     11 C                    -0.196689
     12 H                     0.115073
     13 H                     0.112510
     14 C                    -0.190247
     15 H                     0.111101
     16 H                     0.113547
     17 C                     0.044115
     18 C                     0.060852
     19 C                    -0.103536
     20 H                     0.106858
     21 C                    -0.087660
     22 H                     0.099795
     23 C                    -0.085327
     24 H                     0.088221
     25 C                    -0.087606
     26 H                     0.088032
     27 C                    -0.094915
     28 H                     0.096817
     29 C                    -0.021360
     30 C                    -0.016355
     31 C                     0.021948
     32 C                    -0.006856
     33 C                     0.012783
     34 C                     0.032715
     35 C                     0.010872
     36 C                    -0.003003
     37 C                    -0.013898
     38 C                    -0.008049
     39 C                    -0.117250
     40 C                     0.014243
     41 C                    -0.001841
     42 C                     0.000793
     43 C                    -0.011687
     44 C                    -0.012153
     45 C                    -0.087552
     46 C                     0.052181
     47 C                    -0.026810
     48 C                     0.016905
     49 C                    -0.006616
     50 C                    -0.016218
     51 C                     0.000136
     52 C                    -0.014438
     53 C                     0.046307
     54 C                     0.009422
     55 C                    -0.024476
     56 C                    -0.011755
     57 C                     0.001963
     58 C                     0.022752
     59 C                    -0.008906
     60 C                     0.027344
     61 C                     0.006804
     62 C                    -0.010067
     63 C                     0.005754
     64 C                     0.003114
     65 C                    -0.010048
     66 C                     0.007372
     67 C                    -0.024530
     68 C                     0.000802
     69 C                    -0.020534
     70 C                     0.030747
     71 C                    -0.017927
     72 C                    -0.013967
     73 C                    -0.005128
     74 C                     0.018570
     75 C                     0.013910
     76 C                    -0.005363
     77 C                    -0.003600
     78 C                     0.014283
     79 C                    -0.006940
     80 C                     0.032723
     81 C                    -0.011731
     82 C                     0.010803
     83 C                    -0.005617
     84 C                    -0.008427
     85 C                    -0.000705
     86 C                     0.023675
     87 C                    -0.017747
     88 C                    -0.012581
     89 O                    -0.495450
     90 C                    -0.086321
     91 H                     0.128352
     92 H                     0.128683
     93 H                     0.130802
     94 O                    -0.447177
     95 C                     0.574214
     96 C                    -0.240680
     97 H                     0.126665
     98 H                     0.130770
     99 C                    -0.186179
    100 H                     0.130042
    101 H                     0.118748
    102 C                    -0.189121
    103 H                     0.107190
    104 H                     0.111405
    105 C                     0.012539
    106 C                     0.082098
    107 C                    -0.120059
    108 H                     0.088187
    109 C                    -0.088883
    110 H                     0.096268
    111 C                    -0.091493
    112 H                     0.089810
    113 C                    -0.079205
    114 H                     0.095744
    115 C                    -0.114443
    116 H                     0.091458
    117 C                     0.038411
    118 C                     0.005330
    119 C                     0.016528
    120 C                     0.028791
    121 C                    -0.025205
    122 C                    -0.022344
    123 C                    -0.018605
    124 C                     0.015261
    125 C                    -0.020621
    126 C                    -0.013465
    127 C                    -0.069502
    128 C                     0.028581
    129 C                    -0.003248
    130 C                     0.039060
    131 C                     0.033745
    132 C                    -0.005163
    133 C                    -0.085435
    134 C                     0.032778
    135 C                    -0.026159
    136 C                    -0.016569
    137 C                    -0.016440
    138 C                     0.002890
    139 C                    -0.028796
    140 C                     0.022632
    141 C                     0.015283
    142 C                    -0.013642
    143 C                    -0.003853
    144 C                    -0.009033
    145 C                     0.029673
    146 C                    -0.012083
    147 C                    -0.001550
    148 C                     0.029343
    149 C                    -0.004883
    150 C                    -0.006560
    151 C                    -0.015524
    152 C                    -0.002950
    153 C                    -0.029095
    154 C                    -0.017780
    155 C                    -0.042509
    156 C                    -0.032160
    157 C                     0.017459
    158 C                     0.017130
    159 C                     0.024394
    160 C                    -0.007833
    161 C                    -0.013187
    162 C                     0.014318
    163 C                     0.000221
    164 C                     0.006262
    165 C                     0.020951
    166 C                     0.006192
    167 C                     0.017303
    168 C                     0.001839
    169 C                     0.016668
    170 C                     0.011590
    171 C                    -0.017660
    172 C                     0.005686
    173 C                     0.015811
    174 C                     0.009191
    175 C                    -0.035422
    176 C                    -0.009722
  ----------------------------------------
  Sum of atomic charges =     0.000000

                    Cartesian Multipole Moments
 -----------------------------------------------------------------
    Charge (ESU x 10^10)
                 0.0000
    Dipole Moment (Debye)
         X      -0.8299      Y       1.0239      Z       3.2025
       Tot       3.4631
    Quadrupole Moments (Debye-Ang)
        XX    -703.0534     XY      25.4577     YY    -800.0498
        XZ       0.2374     YZ      21.4303     ZZ    -814.9165

 Total job time:  857.81s(wall), 8138.22s(cpu)
        *  Thank you very much for using Q-Chem.  Have a nice day.  *
