 Q-Chem 4.4, Q-Chem, Inc., Pleasanton, CA (2016)
 Q-Chem 4.4.2 for Intel X86 Linux

User input:
--------------------------------------------------------------
$comment
SP
$end

$rem
MEM_STATIC 5000
MEM_TOTAL 20000
JOBTYPE SP
EXCHANGE B3LYP
BASIS 6-31g(d,p)
$end

$molecule
0 1
O         -21.789000     32.731000     11.424000
C         -21.222000     33.995000     11.097000
H         -21.242000     34.666000     11.965000
H         -21.745000     34.504000     10.278000
H         -20.172000     33.827000     10.830000
O         -20.964000     31.723000      9.498000
C         -21.554000     31.633000     10.576000
C         -22.158000     30.382000     10.979000
H         -23.237000     30.578000     10.941000
H         -21.897000     30.244000     12.035000
C         -21.801000     29.115000     10.130000
H         -21.920000     29.317000      9.057000
H         -20.730000     28.891000     10.208000
C         -22.532000     27.849000     10.559000
H         -22.355000     27.599000     11.613000
H         -23.586000     28.144000     10.481000
C         -22.135000     26.708000      9.578000
C         -22.376000     26.978000      8.118000
C         -21.384000     27.414000      7.247000
H         -20.360000     27.435000      7.609000
C         -21.693000     27.877000      5.924000
H         -20.920000     28.164000      5.218000
C         -23.015000     27.784000      5.522000
H         -23.274000     28.125000      4.523000
C         -24.048000     27.357000      6.419000
H         -25.079000     27.436000      6.089000
C         -23.754000     27.014000      7.727000
H         -24.550000     26.648000      8.368000
C         -23.217000     21.511000      8.415000
C         -21.002000     21.791000      7.562000
C         -18.797000     19.258000     10.701000
C         -23.396000     22.938000     13.267000
C         -17.895000     22.091000     12.599000
C         -22.259000     22.315000      7.765000
C         -20.863000     22.392000     14.448000
C         -20.936000     18.985000      9.566000
C         -18.960000     24.592000      9.682000
C         -22.440000     23.935000     13.373000
C         -21.104000     25.681000      9.922000
C         -19.013000     24.960000     10.981000
C         -20.253000     24.454000     13.356000
C         -19.596000     21.842000     14.264000
C         -20.786000     24.015000      8.137000
C         -18.987000     19.901000     12.894000
C         -22.536000     25.342000      9.932000
C         -23.084000     24.882000     11.259000
C         -18.012000     20.712000     12.257000
C         -22.907000     19.521000     12.391000
C         -20.846000     18.728000     11.977000
C         -21.565000     18.655000     10.776000
C         -21.602000     19.660000      8.538000
C         -24.016000     23.842000     11.085000
C         -20.197000     24.949000      9.009000
C         -20.645000     20.467000      7.900000
C         -21.190000     23.671000     13.983000
C         -20.106000     22.824000      7.812000
C         -18.320000     24.216000     11.967000
C         -24.276000     21.503000     11.778000
C         -19.558000     19.259000      9.502000
C         -20.283000     25.584000     11.229000
C         -23.451000     19.943000     10.031000
C         -18.941000     23.991000     13.203000
C         -18.280000     23.405000      9.332000
C         -21.153000     20.156000     13.865000
C         -21.775000     21.354000     14.283000
C         -17.584000     22.712000     10.283000
C         -24.173000     22.833000     12.078000
C         -22.339000     24.958000     12.441000
C         -23.536000     20.727000     12.750000
C         -22.996000     24.235000      9.104000
C         -18.461000     21.291000      8.726000
C         -20.938000     25.227000     12.417000
C         -17.616000     23.030000     11.606000
C         -24.188000     21.082000     10.418000
C         -17.840000     20.318000     10.882000
C         -22.912000     20.143000      8.807000
C         -19.477000     18.956000     11.932000
C         -18.831000     22.565000      8.347000
C         -17.612000     21.370000      9.882000
C         -22.125000     23.654000      8.182000
C         -23.944000     23.440000      9.741000
C         -21.692000     19.173000     13.036000
C         -19.397000     20.259000      8.531000
C         -18.643000     22.701000     13.627000
C         -23.023000     21.612000     13.710000
C         -19.828000     20.507000     13.849000
C         -24.037000     22.085000      9.420000
C         -22.878000     19.161000     11.040000
O         -21.608000     16.954000      4.488000
C         -21.848000     17.337000      5.872000
H         -21.554000     16.537000      6.563000
H         -22.924000     17.457000      6.048000
H         -21.263000     18.219000      6.159000
O         -22.950000     15.110000      4.668000
C         -22.321000     15.896000      3.997000
C         -21.975000     15.630000      2.516000
H         -22.024000     14.548000      2.345000
H         -20.969000     16.045000      2.374000
C         -22.993000     16.392000      1.622000
H         -22.913000     16.018000      0.595000
H         -24.002000     16.062000      1.900000
C         -22.675000     17.911000      1.457000
H         -22.344000     18.333000      2.414000
H         -21.848000     17.997000      0.743000
C         -23.851000     18.709000      0.780000
C         -23.882000     18.513000     -0.742000
C         -23.091000     19.392000     -1.589000
H         -22.539000     20.197000     -1.112000
C         -23.345000     19.195000     -3.010000
H         -22.856000     19.938000     -3.634000
C         -24.097000     18.144000     -3.513000
H         -24.198000     18.110000     -4.594000
C         -24.689000     17.209000     -2.720000
H         -25.136000     16.367000     -3.241000
C         -24.644000     17.431000     -1.263000
H         -25.102000     16.716000     -0.586000
C         -25.688000     23.880000      0.465000
C         -27.629000     22.545000      0.047000
C         -29.859000     23.348000      3.888000
C         -23.571000     22.399000      4.866000
C         -28.890000     20.360000      5.341000
C         -26.278000     22.719000     -0.040000
C         -25.640000     21.520000      6.534000
C         -28.506000     24.831000      2.477000
C         -27.479000     18.815000      1.821000
C         -23.807000     21.016000      5.016000
C         -25.125000     19.028000      1.584000
C         -26.842000     18.475000      3.059000
C         -25.423000     19.485000      5.302000
C         -27.050000     21.287000      6.603000
C         -26.669000     20.516000      0.213000
C         -28.922000     22.732000      5.860000
C         -24.072000     20.063000      1.421000
C         -23.386000     20.693000      2.670000
C         -29.520000     21.619000      5.281000
C         -25.886000     25.118000      4.720000
C         -28.129000     24.781000      4.900000
C         -27.833000     25.252000      3.645000
C         -27.849000     24.620000      1.258000
C         -23.317000     22.073000      2.516000
C         -26.477000     19.289000      0.957000
C         -28.484000     23.481000      0.686000
C         -24.812000     20.567000      5.866000
C         -27.793000     21.155000      0.214000
C         -27.556000     18.894000      4.232000
C         -24.036000     24.186000      3.467000
C         -29.620000     23.915000      2.605000
C         -25.437000     18.617000      3.009000
C         -25.811000     25.277000      2.254000
C         -26.835000     19.319000      5.370000
C         -28.671000     19.579000      1.788000
C         -26.654000     23.500000      6.360000
C         -25.437000     22.878000      6.404000
C         -29.399000     19.814000      2.989000
C         -23.295000     22.939000      3.599000
C         -23.736000     20.168000      3.944000
C         -24.631000     24.469000      4.702000
C         -24.477000     21.365000      0.748000
C         -29.707000     21.619000      1.645000
C         -24.785000     19.229000      4.054000
C         -28.781000     19.495000      4.194000
C         -24.618000     24.582000      2.329000
C         -30.065000     22.001000      4.043000
C         -26.519000     24.806000      1.097000
C         -29.146000     23.866000      5.062000
C         -28.840000     20.707000      0.988000
C         -30.011000     21.088000      2.912000
C         -25.675000     21.435000      0.083000
C         -23.908000     22.490000      1.317000
C         -26.904000     24.707000      5.669000
C         -29.561000     23.036000      1.567000
C         -27.664000     20.232000      6.023000
C         -24.391000     23.331000      5.523000
C         -27.690000     22.538000      6.502000
C         -24.548000     23.717000      1.296000
C         -26.485000     25.550000      3.500000
$end

--------------------------------------------------------------

             Standard Nuclear Orientation (Angstroms)
    I     Atom           X                Y                Z
 ----------------------------------------------------------------
    1      O      -7.9950316582    -8.2388973485    -1.3235753940
    2      C      -8.3736750255    -9.2477940413    -2.2535596218
    3      H      -9.2979866638    -9.7446300771    -1.9328308442
    4      H      -7.6111281217   -10.0260939901    -2.3806124034
    5      H      -8.5757271479    -8.7548481742    -3.2117831405
    6      O      -6.4486890151    -7.2986674484    -2.7833552285
    7      C      -7.0520808078    -7.2683911694    -1.7094438302
    8      C      -6.7240931429    -6.2735282926    -0.7119981184
    9      H      -6.2630666054    -6.8478567857     0.1014527491
   10      H      -7.6809336793    -5.8961665463    -0.3320569384
   11      C      -5.7830983613    -5.1035947772    -1.1584546008
   12      H      -4.8965485621    -5.4913522124    -1.6780386894
   13      H      -6.2651444520    -4.5004272738    -1.9376346373
   14      C      -5.4144147011    -4.1367486103    -0.0402243705
   15      H      -6.2965135494    -3.6867208563     0.4331905030
   16      H      -4.9622165679    -4.7992087931     0.7085668918
   17      C      -4.4207052320    -3.0880452345    -0.6186824249
   18      C      -3.1769493547    -3.6396292669    -1.2600928807
   19      C      -3.0368023727    -3.8133991488    -2.6323041806
   20      H      -3.8108179474    -3.4107951382    -3.2795065453
   21      C      -1.9366004123    -4.5469601346    -3.1905361452
   22      H      -1.7881879426    -4.6378158379    -4.2620084874
   23      C      -0.9713367594    -4.9963541240    -2.3049582985
   24      H      -0.1262205631    -5.5515688921    -2.7035535520
   25      C      -1.1173508690    -4.8417746150    -0.8876326283
   26      H      -0.3980149623    -5.3342828683    -0.2410311484
   27      C      -2.2356072484    -4.2263788872    -0.3530863085
   28      H      -2.2947106204    -4.0806423375     0.7210275819
   29      C      -1.3391962286     1.1382283961     0.8561109376
   30      C      -1.7212942344     1.5507763333    -1.4668267098
   31      C      -4.5536609264     5.1421971256    -1.0076637591
   32      C      -5.7513922810     0.4775813130     3.2449067486
   33      C      -7.4301494009     3.1378004842    -1.3950978304
   34      C      -1.4826779510     0.6459317347    -0.4568007093
   35      C      -7.7180013623     2.0666027109     1.9347824345
   36      C      -2.5493241461     4.4562109934     0.1965505480
   37      C      -5.2911764009     0.0188097207    -2.6579541653
   38      C      -6.5849711489    -0.0813061713     2.2899344710
   39      C      -4.8563513714    -1.7201299509    -1.0370676757
   40      C      -6.4657470506    -0.1469511744    -2.0110066292
   41      C      -7.7264411951     0.2247653984     0.3778713634
   42      C      -7.9689167709     3.0018097305     0.9327473611
   43      C      -2.9922337240    -0.3352284786    -1.8556141365
   44      C      -6.4976821571     4.8061726495     0.1613815806
   45      C      -4.1082562093    -1.9214709742     0.2141159322
   46      C      -4.8232409239    -1.4983629891     1.4721340127
   47      C      -6.6619194038     4.3154672686    -1.1601135408
   48      C      -4.1779727088     3.6716638973     3.1772806118
   49      C      -4.5221011311     5.0822988752     1.4627396855
   50      C      -3.1703656186     4.7130983463     1.4281987840
   51      C      -1.5991000686     3.4426022435     0.0364365112
   52      C      -3.9304267682    -0.9012964897     2.3814713970
   53      C      -4.2786061094    -0.8546875710    -2.0902827057
   54      C      -1.7530758787     2.9489587743    -1.2699897497
   55      C      -7.5798534271     0.7018649951     1.6565718761
   56      C      -2.6589870840     0.9584605139    -2.3048595790
   57      C      -7.3716950104     0.9337173271    -1.8791169634
   58      C      -3.6617886912     1.2625535909     3.5059074390
   59      C      -3.2075627107     4.6900127260    -1.0241520127
   60      C      -6.2899318834    -1.1419336633    -0.9897922180
   61      C      -2.0928301354     2.7378086557     2.2696932407
   62      C      -8.0507843105     1.1006017543    -0.6646420520
   63      C      -4.9383138815     1.3051124459    -3.1214003238
   64      C      -6.4030155144     3.9358585618     2.3824204400
   65      C      -6.8424103523     2.6703536394     2.8321330904
   66      C      -5.8323085327     2.3346951008    -3.0224098174
   67      C      -4.3733403532     0.1187731944     3.2714513945
   68      C      -6.1718724020    -1.1253864097     1.4747045150
   69      C      -4.5674440398     2.3875359158     3.5995191812
   70      C      -2.8633268783    -1.1897191763     0.4073082379
   71      C      -3.6916853055     3.0977816318    -2.8032063840
   72      C      -6.8723856327    -0.8727827844     0.2576545481
   73      C      -7.0208722432     2.2261035568    -2.3681918242
   74      C      -2.4357077058     1.4806991944     2.8104055246
   75      C      -5.4699099971     4.5367352620    -1.9383159885
   76      C      -1.3786979056     2.5662346470     1.1342309922
   77      C      -5.1777721994     5.3580530907     0.2701689065
   78      C      -3.6042027193     1.7349145916    -2.9995663286
   79      C      -5.0668208304     3.5015561865    -2.8998831496
   80      C      -2.3087576723    -0.4776662949    -0.6565149099
   81      C      -2.7163458005    -0.7040411288     1.7030749596
   82      C      -5.1599829577     4.5248106933     2.6105792658
   83      C      -2.7820215940     3.6829302322    -1.9036186742
   84      C      -8.1381110173     2.4589710142    -0.3819991677
   85      C      -5.8774436108     1.8989072912     3.4849015943
   86      C      -7.1012132179     4.0867661840     1.2124508437
   87      C      -1.9840253547     0.4632583499     1.9240584246
   88      C      -2.9515937907     3.8137228319     2.5204275016
   89      O       2.6264199940     5.3337032265    -1.4780565633
   90      C       1.4612322068     5.0994402560    -0.6371027707
   91      H       1.0002438863     6.0444936800    -0.3236050927
   92      H       1.7659947249     4.6278883051     0.3051872935
   93      H       0.6810545606     4.5398359762    -1.1668988546
   94      O       3.6606686527     6.5763703369     0.1405255830
   95      C       3.6898436334     5.9791984313    -0.9112408054
   96      C       4.8513475073     6.1294458802    -1.9173061388
   97      H       5.3534379145     7.0832828215    -1.7161437357
   98      H       4.3833337387     6.0879883885    -2.9091072221
   99      C       5.8226205265     4.9289063605    -1.7397178965
  100      H       6.7598091582     5.1501774541    -2.2629019670
  101      H       6.1520236645     4.9111145371    -0.6930842339
  102      C       5.3425044466     3.6195075998    -2.4401987565
  103      H       4.2619827894     3.4914989907    -2.3002675435
  104      H       5.5356773239     3.7320614285    -3.5131092258
  105      C       6.1932850306     2.3610948513    -2.0270659060
  106      C       7.5385318681     2.3051703582    -2.7639813674
  107      C       7.6119742858     1.6545409275    -4.0628341517
  108      H       6.7122331882     1.1821311875    -4.4469604263
  109      C       8.9745986873     1.5342730373    -4.5641886920
  110      H       9.0415777678     0.9333118262    -5.4669098148
  111      C      10.0635798959     2.1575137950    -3.9735916338
  112      H      11.0221565122     1.9924592655    -4.4571264030
  113      C       9.9622063011     2.9233223760    -2.8525213365
  114      H      10.8624726170     3.4610744163    -2.5686951513
  115      C       8.6567374590     2.9507073539    -2.1675693926
  116      H       8.5227175780     3.5448720364    -1.2685004288
  117      C       5.6798778940    -3.1100758042    -1.9016076635
  118      C       7.3267923401    -2.6403278887    -0.2308474464
  119      C       4.8848250071    -3.6135922979     3.4380136758
  120      C       1.5066064678    -0.3326113854    -0.9459152415
  121      C       4.1629080032    -0.2972404287     4.1154796303
  122      C       6.7311754019    -2.3275199786    -1.4184659349
  123      C       1.3288764247    -0.0201551800     1.8301267523
  124      C       4.9853090424    -4.7019879253     1.2411711879
  125      C       6.9404128828     1.1124958848     1.4571989509
  126      C       1.9195983143     0.8787753027    -0.3518908087
  127      C       6.0019735109     1.7279684724    -0.6364531308
  128      C       5.7237490128     1.8381487636     1.6743853387
  129      C       2.8923962349     1.7502245175     1.4733361557
  130      C       1.9847113819    -0.3024985314     3.0700109165
  131      C       7.3841506352    -0.4012250054    -0.4524897341
  132      C       3.0052979719    -2.4170904905     3.8645937373
  133      C       5.3369472164     1.1291407989    -1.8220957604
  134      C       3.7866072121     0.9804470714    -1.8649098526
  135      C       4.1070277953    -1.6925877816     4.3037989527
  136      C       1.8333933364    -3.6918308270     0.2298215850
  137      C       2.8075863528    -4.1615796990     2.2316462437
  138      C       3.5735898022    -4.6748113975     1.2146339826
  139      C       5.7696972224    -4.4517454022     0.1079259087
  140      C       3.4537863059    -0.2888416339    -2.3242718307
  141      C       7.0583338192     0.9083525165     0.0717040437
  142      C       6.8905023561    -3.7155638222     0.5870527536
  143      C       1.8069342776     1.0567358032     1.0227956556
  144      C       7.6950563206    -1.3940756750     0.3151581035
  145      C       4.9388451485     1.3689740373     2.7812218217
  146      C       2.3286038455    -2.3532609956    -1.7257167956
  147      C       5.6701883440    -4.2399125192     2.4302307580
  148      C       5.0826844799     2.2053392265     0.4698537167
  149      C       3.8076121006    -4.1764261230    -1.1771928677
  150      C       3.5290991518     1.4052906767     2.6987152974
  151      C       7.2716490060    -0.0250044838     2.2331013559
  152      C       1.3180031299    -2.2347267583     2.1029389513
  153      C       0.9219820594    -1.2174206663     1.2794314365
  154      C       6.5270719327    -0.3255619215     3.4090606276
  155      C       2.2702147376    -0.9183796187    -1.9690686939
  156      C       3.0461154840     1.5268136861    -0.7812325376
  157      C       1.4802527108    -2.6451611205    -0.6512710458
  158      C       5.6769517435    -0.3156386200    -2.1525005914
  159      C       7.2262107184    -2.2981746344     2.5263211172
  160      C       3.7236405233     2.0307945478     0.3506619416
  161      C       5.3400382053     0.3690244996     3.6193238759
  162      C       3.4193744016    -3.0959132985    -1.9476878548
  163      C       5.2687933182    -2.4238382899     4.0018609394
  164      C       5.2416375285    -4.1685023973    -1.1046512476
  165      C       3.4196968959    -3.6604987418     3.3594744918
  166      C       7.6645899152    -1.2433967146     1.6834989415
  167      C       6.4725237367    -1.7307697570     3.5701954576
  168      C       6.7545432625    -0.9095268363    -1.5455225812
  169      C       4.5930078364    -1.0631086476    -2.5761763684
  170      C       1.6321834973    -3.5388965818     1.6587973431
  171      C       6.7834455287    -3.5625986112     2.0359335216
  172      C       3.0764760642     0.3626687327     3.5082156510
  173      C       1.0406351913    -1.3889071596    -0.1460508738
  174      C       1.9700825467    -1.7001433442     3.2465809440
  175      C       4.5190978213    -2.4267995312    -2.3515556134
  176      C       2.9891013240    -4.4859032974    -0.0302033355
 ----------------------------------------------------------------

    9   -5804.2538391147      9.02E-06 Convergence criterion met
 Total energy in the final basis set = -5804.2538391147

                    Orbital Energies (a.u.)
 --------------------------------------------------------------

 Alpha MOs
 -- Occupied --
-19.193 -19.189 -19.137 -19.133 -10.319 -10.312 -10.242 -10.241
-10.239 -10.238 -10.238 -10.238 -10.236 -10.233 -10.232 -10.231
-10.230 -10.229 -10.228 -10.228 -10.227 -10.226 -10.226 -10.224
-10.224 -10.223 -10.222 -10.221 -10.221 -10.221 -10.221 -10.221
-10.221 -10.221 -10.221 -10.221 -10.220 -10.220 -10.220 -10.220
-10.220 -10.220 -10.219 -10.219 -10.219 -10.219 -10.219 -10.219
-10.219 -10.219 -10.219 -10.219 -10.218 -10.218 -10.218 -10.218
-10.218 -10.218 -10.218 -10.218 -10.218 -10.218 -10.218 -10.218
-10.217 -10.217 -10.217 -10.217 -10.217 -10.217 -10.216 -10.216
-10.216 -10.216 -10.216 -10.216 -10.216 -10.216 -10.215 -10.215
-10.215 -10.215 -10.215 -10.214 -10.214 -10.214 -10.214 -10.214
-10.214 -10.214 -10.214 -10.214 -10.214 -10.213 -10.213 -10.213
-10.213 -10.213 -10.213 -10.213 -10.213 -10.213 -10.213 -10.212
-10.212 -10.212 -10.212 -10.212 -10.212 -10.212 -10.212 -10.212
-10.211 -10.211 -10.211 -10.211 -10.211 -10.211 -10.211 -10.210
-10.210 -10.210 -10.210 -10.210 -10.209 -10.208 -10.208 -10.207
-10.207 -10.207 -10.207 -10.206 -10.206 -10.205 -10.203 -10.202
-10.202 -10.202 -10.202 -10.201 -10.201 -10.200 -10.199 -10.199
-10.198 -10.197 -10.196 -10.194  -1.090  -1.082  -1.010  -1.007
 -0.985  -0.984  -0.969  -0.968  -0.965  -0.962  -0.962  -0.961
 -0.939  -0.932  -0.931  -0.929  -0.927  -0.927  -0.923  -0.922
 -0.921  -0.918  -0.900  -0.899  -0.889  -0.889  -0.884  -0.883
 -0.879  -0.870  -0.852  -0.848  -0.847  -0.843  -0.843  -0.840
 -0.838  -0.837  -0.821  -0.820  -0.809  -0.804  -0.800  -0.798
 -0.797  -0.796  -0.795  -0.793  -0.792  -0.792  -0.786  -0.785
 -0.773  -0.772  -0.769  -0.768  -0.768  -0.767  -0.766  -0.764
 -0.751  -0.747  -0.742  -0.738  -0.737  -0.731  -0.720  -0.716
 -0.715  -0.715  -0.713  -0.713  -0.712  -0.710  -0.710  -0.708
 -0.707  -0.707  -0.706  -0.705  -0.703  -0.699  -0.679  -0.673
 -0.662  -0.661  -0.658  -0.656  -0.650  -0.648  -0.633  -0.630
 -0.628  -0.627  -0.625  -0.624  -0.622  -0.621  -0.618  -0.617
 -0.617  -0.615  -0.614  -0.614  -0.613  -0.612  -0.611  -0.609
 -0.608  -0.604  -0.604  -0.603  -0.567  -0.567  -0.562  -0.561
 -0.561  -0.560  -0.559  -0.558  -0.557  -0.556  -0.555  -0.550
 -0.538  -0.536  -0.533  -0.532  -0.530  -0.528  -0.526  -0.525
 -0.524  -0.523  -0.518  -0.518  -0.517  -0.516  -0.514  -0.513
 -0.509  -0.506  -0.501  -0.496  -0.495  -0.492  -0.489  -0.487
 -0.486  -0.484  -0.484  -0.481  -0.481  -0.477  -0.477  -0.475
 -0.473  -0.472  -0.471  -0.470  -0.470  -0.469  -0.468  -0.467
 -0.466  -0.465  -0.463  -0.463  -0.462  -0.461  -0.460  -0.458
 -0.456  -0.455  -0.454  -0.453  -0.450  -0.445  -0.445  -0.444
 -0.443  -0.442  -0.442  -0.439  -0.439  -0.438  -0.435  -0.434
 -0.431  -0.431  -0.430  -0.428  -0.428  -0.427  -0.426  -0.425
 -0.424  -0.422  -0.422  -0.421  -0.420  -0.420  -0.419  -0.418
 -0.418  -0.417  -0.416  -0.416  -0.415  -0.414  -0.414  -0.413
 -0.412  -0.411  -0.410  -0.406  -0.402  -0.401  -0.400  -0.399
 -0.396  -0.394  -0.392  -0.389  -0.389  -0.389  -0.385  -0.385
 -0.378  -0.375  -0.375  -0.373  -0.369  -0.367  -0.366  -0.365
 -0.365  -0.364  -0.363  -0.362  -0.362  -0.361  -0.360  -0.359
 -0.358  -0.357  -0.356  -0.355  -0.355  -0.354  -0.353  -0.352
 -0.351  -0.348  -0.348  -0.347  -0.347  -0.345  -0.344  -0.343
 -0.343  -0.342  -0.339  -0.339  -0.338  -0.337  -0.337  -0.336
 -0.333  -0.332  -0.331  -0.330  -0.329  -0.326  -0.325  -0.322
 -0.316  -0.303  -0.297  -0.296  -0.291  -0.289  -0.274  -0.273
 -0.271  -0.270  -0.269  -0.269  -0.268  -0.266  -0.265  -0.264
 -0.263  -0.263  -0.262  -0.259  -0.257  -0.256  -0.255  -0.253
 -0.250  -0.248  -0.246  -0.242  -0.226  -0.225  -0.213  -0.213
 -0.212  -0.209  -0.209  -0.205  -0.202  -0.199

          Ground-State Mulliken Net Atomic Charges

     Atom                 Charge (a.u.)
  ----------------------------------------
      1 O                    -0.490987
      2 C                    -0.074859
      3 H                     0.120227
      4 H                     0.122037
      5 H                     0.126579
      6 O                    -0.473290
      7 C                     0.609961
      8 C                    -0.268951
      9 H                     0.139856
     10 H                     0.130957
     11 C                    -0.181281
     12 H                     0.141255
     13 H                     0.107632
     14 C                    -0.175838
     15 H                     0.111771
     16 H                     0.106920
     17 C                     0.032210
     18 C                     0.067503
     19 C                    -0.115345
     20 H                     0.094717
     21 C                    -0.081772
     22 H                     0.099554
     23 C                    -0.087143
     24 H                     0.090246
     25 C                    -0.087585
     26 H                     0.093074
     27 C                    -0.101615
     28 H                     0.096366
     29 C                    -0.026259
     30 C                     0.008172
     31 C                    -0.013584
     32 C                    -0.030119
     33 C                     0.020785
     34 C                    -0.006492
     35 C                    -0.002089
     36 C                     0.019825
     37 C                    -0.003087
     38 C                     0.001589
     39 C                    -0.078495
     40 C                     0.034372
     41 C                     0.023511
     42 C                    -0.023800
     43 C                     0.017301
     44 C                    -0.028606
     45 C                    -0.081428
     46 C                     0.046509
     47 C                     0.002558
     48 C                     0.008933
     49 C                     0.021105
     50 C                    -0.007968
     51 C                    -0.023777
     52 C                     0.000374
     53 C                    -0.002106
     54 C                    -0.014365
     55 C                     0.026637
     56 C                    -0.003224
     57 C                    -0.027454
     58 C                    -0.005083
     59 C                    -0.010623
     60 C                    -0.002843
     61 C                     0.050871
     62 C                    -0.004874
     63 C                     0.000700
     64 C                     0.045057
     65 C                    -0.016621
     66 C                     0.036718
     67 C                     0.007660
     68 C                    -0.020437
     69 C                     0.012735
     70 C                     0.050860
     71 C                     0.001022
     72 C                    -0.021509
     73 C                    -0.005640
     74 C                    -0.029497
     75 C                    -0.005419
     76 C                    -0.008756
     77 C                    -0.007393
     78 C                    -0.006772
     79 C                    -0.042907
     80 C                     0.006974
     81 C                    -0.004475
     82 C                    -0.033343
     83 C                     0.011157
     84 C                    -0.009589
     85 C                    -0.018740
     86 C                     0.023776
     87 C                     0.009924
     88 C                    -0.013100
     89 O                    -0.466015
     90 C                    -0.098813
     91 H                     0.129291
     92 H                     0.130610
     93 H                     0.125950
     94 O                    -0.463571
     95 C                     0.596840
     96 C                    -0.249315
     97 H                     0.130752
     98 H                     0.123490
     99 C                    -0.200742
    100 H                     0.107777
    101 H                     0.117353
    102 C                    -0.193762
    103 H                     0.125803
    104 H                     0.114498
    105 C                     0.007741
    106 C                     0.072057
    107 C                    -0.104682
    108 H                     0.104461
    109 C                    -0.099963
    110 H                     0.090893
    111 C                    -0.061376
    112 H                     0.090853
    113 C                    -0.094541
    114 H                     0.098915
    115 C                    -0.118914
    116 H                     0.098899
    117 C                    -0.030925
    118 C                     0.016445
    119 C                    -0.013767
    120 C                     0.020857
    121 C                     0.001586
    122 C                    -0.015387
    123 C                     0.001130
    124 C                    -0.005319
    125 C                    -0.018628
    126 C                     0.009669
    127 C                    -0.089188
    128 C                    -0.014851
    129 C                    -0.019739
    130 C                    -0.010657
    131 C                     0.043911
    132 C                     0.007644
    133 C                    -0.093820
    134 C                     0.002294
    135 C                    -0.015975
    136 C                    -0.017382
    137 C                     0.021911
    138 C                     0.031471
    139 C                     0.030989
    140 C                     0.010662
    141 C                     0.039304
    142 C                    -0.036511
    143 C                     0.006633
    144 C                    -0.012497
    145 C                     0.011767
    146 C                    -0.020379
    147 C                    -0.024076
    148 C                     0.037523
    149 C                    -0.031695
    150 C                    -0.015932
    151 C                     0.006333
    152 C                     0.008670
    153 C                     0.018517
    154 C                    -0.036992
    155 C                    -0.030173
    156 C                     0.001173
    157 C                     0.018272
    158 C                     0.024628
    159 C                    -0.005693
    160 C                     0.032710
    161 C                     0.025165
    162 C                     0.063870
    163 C                     0.034165
    164 C                     0.002827
    165 C                    -0.022595
    166 C                     0.011757
    167 C                    -0.013120
    168 C                    -0.015835
    169 C                     0.025360
    170 C                    -0.047276
    171 C                     0.017488
    172 C                    -0.002001
    173 C                    -0.008797
    174 C                     0.006761
    175 C                    -0.014804
    176 C                    -0.022817
  ----------------------------------------
  Sum of atomic charges =     0.000000

                    Cartesian Multipole Moments
 -----------------------------------------------------------------
    Charge (ESU x 10^10)
                 0.0000
    Dipole Moment (Debye)
         X       0.3069      Y      -3.0257      Z      -1.9593
       Tot       3.6177
    Quadrupole Moments (Debye-Ang)
        XX    -776.1826     XY      26.4690     YY    -808.7616
        XZ     -22.2394     YZ     -11.3820     ZZ    -805.9076

 Total job time:  882.82s(wall), 8405.64s(cpu)
        *  Thank you very much for using Q-Chem.  Have a nice day.  *
