 Q-Chem 4.4, Q-Chem, Inc., Pleasanton, CA (2016)
 Q-Chem 4.4.2 for Intel X86 Linux

User input:
--------------------------------------------------------------
$comment
SP
$end

$rem
MEM_STATIC 5000
MEM_TOTAL 20000
JOBTYPE SP
EXCHANGE B3LYP
BASIS 6-31g(d,p)
$end

$molecule
0 1
O          -7.778000     12.991000     -4.469000
C          -7.028000     14.149000     -3.997000
H          -6.288000     14.560000     -4.695000
H          -6.555000     13.916000     -3.036000
H          -7.720000     14.983000     -3.828000
O          -5.994000     11.523000     -4.224000
C          -7.147000     11.783000     -4.577000
C          -7.980000     10.705000     -5.288000
H          -8.953000     11.139000     -5.550000
H          -8.227000     10.005000     -4.480000
C          -7.275000      9.984000     -6.407000
H          -7.028000     10.717000     -7.185000
H          -6.266000      9.689000     -6.097000
C          -8.120000      8.879000     -7.095000
H          -8.413000      8.138000     -6.341000
H          -9.101000      9.298000     -7.348000
C          -7.425000      8.205000     -8.226000
C          -6.153000      7.450000     -7.750000
C          -6.320000      6.092000     -7.425000
H          -7.228000      5.517000     -7.578000
C          -5.267000      5.354000     -6.844000
H          -5.482000      4.415000     -6.342000
C          -3.988000      5.943000     -6.758000
H          -3.127000      5.410000     -6.366000
C          -3.802000      7.230000     -6.943000
H          -2.874000      7.703000     -6.636000
C          -4.893000      7.990000     -7.536000
H          -4.755000      9.046000     -7.744000
C          -6.216000      8.867000    -13.548000
C          -6.473000      6.492000    -13.414000
C         -10.269000      6.291000    -15.761000
C         -10.198000     11.257000    -11.791000
C         -12.313000      6.236000    -12.852000
C          -5.969000      7.669000    -12.813000
C         -12.434000      9.698000    -12.364000
C          -8.237000      7.563000    -16.192000
C          -9.079000      5.607000    -10.532000
C         -10.776000     10.517000    -10.725000
C          -8.250000      7.521000     -9.278000
C         -10.186000      6.343000    -10.060000
C         -11.695000      8.556000    -10.343000
C         -12.912000      8.522000    -12.951000
C          -6.856000      6.404000    -11.178000
C         -12.212000      7.406000    -15.004000
C          -7.584000      8.821000     -9.637000
C          -8.498000      9.972000     -9.997000
C         -12.063000      6.212000    -14.265000
C          -9.776000     10.678000    -15.199000
C         -10.440000      8.672000    -16.124000
C          -9.044000      8.718000    -16.213000
C          -7.051000      7.668000    -15.456000
C          -7.979000     10.674000    -11.112000
C          -7.893000      6.303000    -10.153000
C          -6.985000      6.527000    -14.683000
C         -11.872000      9.720000    -11.043000
C          -7.061000      5.768000    -12.435000
C         -11.421000      6.208000    -10.742000
C          -8.456000     11.420000    -13.327000
C          -8.850000      6.378000    -15.902000
C          -9.732000      7.463000     -9.334000
C          -7.459000     10.002000    -14.956000
C         -12.226000      7.350000    -10.869000
C          -9.201000      4.879000    -11.704000
C         -11.943000      9.751000    -14.524000
C         -11.921000     10.545000    -13.388000
C         -10.330000      4.928000    -12.456000
C          -8.799000     11.355000    -11.947000
C          -9.887000      9.860000     -9.855000
C          -9.704000     11.331000    -13.956000
C          -6.633000      8.825000    -10.777000
C          -8.678000      4.913000    -13.966000
C         -10.508000      8.631000     -9.616000
C         -11.472000      5.558000    -12.001000
C          -7.320000     10.777000    -13.845000
C         -10.894000      5.588000    -14.711000
C          -6.702000      8.863000    -14.853000
C         -11.110000      7.454000    -15.862000
C          -8.198000      4.949000    -12.642000
C         -10.088000      4.906000    -13.862000
C          -6.203000      7.642000    -11.409000
C          -6.866000      9.955000    -11.589000
C         -10.915000      9.845000    -15.461000
C          -8.113000      5.699000    -14.973000
C         -12.771000      7.374000    -12.168000
C         -10.771000     11.300000    -13.074000
C         -12.630000      8.567000    -14.319000
C          -6.569000     10.055000    -12.963000
C          -8.665000      9.989000    -15.699000
O          -7.334000     17.317000    -13.701000
C          -5.972000     17.538000    -14.183000
H          -5.428000     18.022000    -13.362000
H          -6.121000     18.034000    -15.150000
H          -5.543000     16.549000    -14.381000
O          -7.637000     15.346000    -14.876000
C          -7.986000     16.137000    -14.008000
C          -9.172000     15.949000    -13.055000
H         -10.000000     15.601000    -13.685000
H          -9.468000     16.939000    -12.687000
C          -8.876000     15.026000    -11.890000
H          -9.830000     14.625000    -11.527000
H          -8.264000     14.210000    -12.296000
C          -8.222000     15.876000    -10.763000
H          -7.451000     16.576000    -11.107000
H          -8.903000     16.559000    -10.240000
C          -7.513000     15.104000     -9.616000
C          -8.509000     14.641000     -8.702000
C          -8.893000     15.376000     -7.585000
H          -8.386000     16.313000     -7.370000
C          -9.630000     14.772000     -6.519000
H          -9.724000     15.305000     -5.578000
C         -10.193000     13.557000     -6.722000
H         -10.823000     13.041000     -6.004000
C          -9.814000     12.771000     -7.844000
H         -10.264000     11.790000     -7.962000
C          -9.076000     13.358000     -8.889000
H          -8.900000     12.853000     -9.834000
C          -3.449000     14.938000     -5.900000
C          -3.691000     12.567000     -6.523000
C           0.251000     12.255000     -8.914000
C          -2.825000     17.957000     -9.931000
C          -1.359000     12.784000    -11.956000
C          -4.230000     13.888000     -6.321000
C          -1.403000     16.476000    -11.827000
C          -0.256000     13.376000     -6.709000
C          -4.957000     12.374000    -10.301000
C          -3.484000     17.377000    -11.060000
C          -6.220000     14.403000     -9.995000
C          -4.790000     13.215000    -11.425000
C          -3.606000     15.519000    -12.414000
C          -0.861000     15.187000    -12.055000
C          -5.268000     13.014000     -8.077000
C           0.483000     13.670000    -10.621000
C          -6.154000     15.584000     -9.085000
C          -5.350000     16.744000     -9.550000
C          -0.332000     12.612000    -10.999000
C          -0.130000     16.649000     -8.035000
C           0.900000     14.646000     -8.479000
C           0.320000     14.561000     -7.192000
C          -1.443000     13.473000     -5.998000
C          -4.590000     17.271000     -8.452000
C          -5.726000     13.135000     -9.410000
C          -2.291000     12.417000     -6.407000
C          -2.806000     16.580000    -11.985000
C          -4.335000     12.035000     -7.644000
C          -3.603000     13.118000    -12.152000
C          -2.282000     17.704000     -7.773000
C          -0.388000     12.288000     -7.615000
C          -5.419000     14.408000    -11.256000
C          -1.503000     15.883000     -6.261000
C          -3.025000     14.282000    -12.657000
C          -3.965000     11.465000     -9.973000
C           0.324000     16.149000    -10.392000
C          -0.718000     17.036000    -10.784000
C          -2.797000     11.350000    -10.678000
C          -3.354000     17.891000     -8.664000
C          -4.738000     16.734000    -10.815000
C          -1.108000     17.611000     -8.497000
C          -5.600000     15.375000     -7.689000
C          -2.321000     11.052000     -8.462000
C          -4.764000     15.584000    -11.643000
C          -2.597000     12.217000    -11.753000
C          -2.438000     16.787000     -6.705000
C          -0.482000     11.721000     -9.991000
C          -2.078000     14.697000     -5.772000
C           0.849000     13.487000     -9.297000
C          -3.666000     11.278000     -8.615000
C          -1.737000     11.153000     -9.740000
C          -5.251000     14.075000     -7.255000
C          -4.762000     16.440000     -7.292000
C           0.618000     15.965000     -9.025000
C          -1.607000     11.664000     -7.376000
C          -1.649000     14.085000    -12.407000
C          -1.446000     17.776000     -9.834000
C           0.251000     14.985000    -11.199000
C          -3.679000     16.189000     -6.442000
C          -0.283000     15.831000     -6.904000
$end

--------------------------------------------------------------

             Standard Nuclear Orientation (Angstroms)
    I     Atom           X                Y                Z
 ----------------------------------------------------------------
    1      O       2.2128272452    -3.5947739282     4.7334440752
    2      C       3.6438561460    -3.3988196116     4.9334595517
    3      H       4.1416825169    -2.7282817249     4.2219310231
    4      H       4.1499946004    -4.3708334017     4.9569554434
    5      H       3.8102284412    -2.9191152354     5.9056657906
    6      O       2.4875454328    -4.9589403362     2.8729911926
    7      C       1.7806297973    -4.3354101880     3.6686660248
    8      C       0.2609091693    -4.2822114431     3.4470512550
    9      H      -0.1798222873    -3.6561648092     4.2328950025
   10      H      -0.0679002378    -5.2933225832     3.7179970728
   11      C      -0.1712134800    -3.9507462488     2.0426197540
   12      H       0.1905602784    -2.9434998098     1.8014634584
   13      H       0.4029687463    -4.5375143713     1.3165178731
   14      C      -1.7082276401    -3.9297259687     1.8292196147
   15      H      -2.1140623820    -4.9152724460     2.0889161745
   16      H      -2.1608229080    -3.3183689552     2.6187328353
   17      C      -2.1200282109    -3.5591367952     0.4473563963
   18      C      -1.6194886584    -4.5943302645    -0.5978324084
   19      C      -2.5112021798    -5.6320864260    -0.9227741647
   20      H      -3.5402102566    -5.7044427598    -0.5845361732
   21      C      -2.1031962864    -6.7032553661    -1.7456607260
   22      H      -2.6825589110    -7.6220190538    -1.7583978883
   23      C      -0.8482149070    -6.6314733315    -2.3859942928
   24      H      -0.4983298097    -7.4000849532    -3.0685560803
   25      C       0.0601437498    -5.7491544329    -2.0372997103
   26      H       1.0909909533    -5.8618902221    -2.3594901585
   27      C      -0.3623679397    -4.6491342263    -1.1823322154
   28      H       0.3527795193    -3.8786261552    -0.9133983496
   29      C      -2.8505566769     0.8139577683    -2.8031791133
   30      C      -4.5469871113    -0.6657186791    -3.6139265415
   31      C      -8.0125385071     1.6867191469    -2.0600874901
   32      C      -3.2059508772     1.5209195863     2.0987973198
   33      C      -8.3089139595    -0.2911140835     0.8799089902
   34      C      -3.2158990580    -0.5189121633    -3.1587359866
   35      C      -5.9071581180     1.4114671926     2.7696218986
   36      C      -6.0039374192     2.4470631030    -3.2090730156
   37      C      -5.7704833715    -3.0243761294    -0.6440482724
   38      C      -3.6817679684     0.3382694343     2.7256758674
   39      C      -3.4980575482    -3.0044374721     0.2270638488
   40      C      -5.8277570012    -2.7722177205     0.7426978717
   41      C      -5.4424189262    -0.9793073060     2.7153929352
   42      C      -7.2155229952     1.2499527921     2.3025850194
   43      C      -4.0324167704    -2.4103197940    -2.2553562216
   44      C      -8.2568628234     2.0799022310     0.2587992451
   45      C      -2.3328385227    -2.0573559626     0.1390965997
   46      C      -2.2946752587    -0.9363370961     1.1548019044
   47      C      -8.6818164524     0.7625324434    -0.0203230505
   48      C      -4.5694167759     3.7812811156    -0.1726593714
   49      C      -6.6747000329     3.4207645818    -1.0435022026
   50      C      -5.7688722209     3.2865525613    -2.1019520638
   51      C      -4.8921330438     1.7351277777    -3.6742139873
   52      C      -1.9005064606     0.2718980844     0.5301510362
   53      C      -4.3971379938    -3.1033775171    -1.0213203949
   54      C      -5.3233429405     0.4364522750    -3.8510358293
   55      C      -5.0412762781     0.2941851783     3.0212139095
   56      C      -5.0506634971    -1.7688546090    -3.0157942664
   57      C      -6.9715156240    -2.1124540767     1.2575785832
   58      C      -2.5293716863     2.5352575749     0.1154193821
   59      C      -7.0836206797     1.6139841683    -3.1430613092
   60      C      -4.5211127553    -2.7492734739     1.2716084277
   61      C      -3.4223597132     2.8028450083    -2.0730374598
   62      C      -6.7827658369    -1.1978260755     2.3045490400
   63      C      -6.7646393718    -2.5183093943    -1.4650247073
   64      C      -6.3468015477     3.0576000162     1.3531296176
   65      C      -5.3870571307     2.6357650656     2.2599713505
   66      C      -7.7428970594    -1.7113782912    -0.9808552209
   67      C      -2.2882456271     1.4698425397     1.0281203333
   68      C      -3.2203292156    -0.8842797668     2.2047941838
   69      C      -3.6315238809     3.1830106994     0.6870332636
   70      C      -2.1308091125    -1.3176179887    -1.1321189003
   71      C      -7.2336028928    -0.8087344329    -2.9646098723
   72      C      -4.3532129184    -1.7022421403     2.2315350037
   73      C      -7.8996389968    -1.5033141130     0.3756956491
   74      C      -2.4083375463     2.3698969231    -1.2739242009
   75      C      -8.5002161517     0.5465036712    -1.3897046263
   76      C      -3.6491601567     1.9168120519    -3.0950385161
   77      C      -7.8236858870     2.5994339465    -0.9640321163
   78      C      -6.4106468568    -1.9064181775    -2.6444446656
   79      C      -8.1170996958    -0.6607076794    -1.8707696283
   80      C      -2.8697963754    -1.5985761365    -2.2977832364
   81      C      -1.8298697633     0.0328137115    -0.8558894104
   82      C      -5.9602293566     3.6788796905     0.1664693852
   83      C      -6.7139731970     0.3571942396    -3.5317653272
   84      C      -7.5989273875    -0.0731903654     2.0720047584
   85      C      -4.0218125395     2.6489734901     1.9035253606
   86      C      -7.5052050063     2.3041298637     1.4320862922
   87      C      -2.0754459489     1.1220307043    -1.7157636336
   88      C      -4.4885983998     3.5784872317    -1.5551878633
   89      O       1.9823197233     6.1613757967     1.7492113718
   90      C       2.8378427373     6.4457880557     0.5988205514
   91      H       3.8152376531     5.9997329219     0.8223535381
   92      H       2.7150355537     7.5256988774     0.4504392427
   93      H       2.3867273654     5.9399902271    -0.2625907777
   94      O       0.0431749052     5.9581578993     0.5019363979
   95      C       0.6610789947     5.8064892325     1.5488829829
   96      C       0.1151472725     5.1427656429     2.8183626209
   97      H      -0.8863429724     5.5671060210     2.9616823083
   98      H       0.7159407727     5.4936237892     3.6663518492
   99      C       0.1225634277     3.6282340064     2.7644281914
  100      H      -0.6309833513     3.2621850930     3.4721438440
  101      H      -0.1710222951     3.3586212749     1.7415145106
  102      C       1.5272810642     3.1420566065     3.2234977912
  103      H       2.3675187153     3.7019437761     2.7953575723
  104      H       1.7306100884     3.2518927574     4.2960519054
  105      C       1.8970621744     1.6632555334     2.9223610838
  106      C       1.2775901755     0.8345559541     3.9079027876
  107      C       1.9270656396     0.4597739680     5.0796920538
  108      H       2.9586581151     0.7659539590     5.2323805520
  109      C       1.4382251008    -0.6153576468     5.8855877904
  110      H       2.0773468840    -1.0205776283     6.6638718728
  111      C       0.1898488950    -1.0875456778     5.6553741674
  112      H      -0.2988662562    -1.8546814891     6.2481136955
  113      C      -0.4986143026    -0.7384387556     4.4618651468
  114      H      -1.4867112515    -1.1564866573     4.2954759298
  115      C      -0.0127007918     0.3098952549     3.6580480889
  116      H      -0.5813491426     0.7213622546     2.8295796457
  117      C       5.7963738391    -2.0274941908     1.6870299481
  118      C       3.8340123063    -2.9129056727     0.4897339438
  119      C       5.3114145371    -1.8755620304    -3.7640631619
  120      C       6.7266298628     2.8353363095     0.5733867125
  121      C       3.4973157042     1.0955648570    -3.8486530157
  122      C       4.4357168472    -2.1939097366     1.5839745431
  123      C       5.9700202210     3.2044815427    -2.0914837621
  124      C       6.5374974450    -2.8538830848    -1.7853454920
  125      C       1.4931540818     0.1482482557    -0.5412890430
  126      C       5.4973804196     3.4850141423     0.2384441507
  127      C       2.1327714313     1.3281110509     1.4598255041
  128      C       1.7474540944     1.5048690590    -0.8469972365
  129      C       3.6852485719     3.4597432342    -1.1813810314
  130      C       5.3819756450     2.5244956240    -3.1865142307
  131      C       2.5340075514    -1.1644971811     1.0853087785
  132      C       5.7751341331     0.2705147133    -4.1503489973
  133      C       3.2952545593     1.3073356886     2.3954634477
  134      C       4.4182039398     2.2312219702     2.0894245165
  135      C       4.4028567696     0.0712031069    -4.2103716687
  136      C       8.3072860811     0.1192409718    -1.0676669236
  137      C       7.4826609793    -0.8981113589    -2.9531463524
  138      C       7.5221500236    -1.8631315059    -1.9201067930
  139      C       6.0913582782    -3.1573812160    -0.5075553182
  140      C       5.6665202024     1.5575089244     2.3102190826
  141      C       1.8264015151     0.0302812678     0.8149531691
  142      C       4.6875479547    -3.3256862001    -0.5576652796
  143      C       5.0685161669     3.6232895603    -1.0834761804
  144      C       2.6493638793    -2.2433568474     0.1692445133
  145      C       2.1877101243     1.8209297510    -2.1327605379
  146      C       7.7051365186     0.8999424669     1.1324908162
  147      C       5.3953702398    -2.7698114373    -2.6282460823
  148      C       2.1934120727     2.1883287935     0.2399504499
  149      C       7.5574372506    -1.5029586270     0.4896243764
  150      C       3.1516165564     2.8160930708    -2.2894109675
  151      C       1.6548023277    -0.8161883603    -1.5219321271
  152      C       7.4035894104     1.5962287299    -2.8035829612
  153      C       7.1712655716     2.6060817665    -1.8276631497
  154      C       2.0788260822    -0.5249899380    -2.7907431196
  155      C       6.8045644936     1.8888973190     1.5672002919
  156      C       4.3444756715     3.1169775105     1.0009070544
  157      C       8.1406988487     1.2181905144    -0.1403424945
  158      C       4.0299760012    -0.0053371669     2.5864801407
  159      C       3.0051720525    -2.5216607000    -2.1733089033
  160      C       3.2587643746     3.0852321808     0.0904219015
  161      C       2.3898878003     0.8031981140    -3.0848028175
  162      C       7.3868866427    -0.4598807119     1.3679625534
  163      C       4.0837285329    -1.2269922055    -3.9975546125
  164      C       6.5749766124    -2.4991836941     0.6261846560
  165      C       6.3783844217    -0.9389318611    -3.8441642933
  166      C       2.2243178994    -2.0436045547    -1.1509395407
  167      C       2.9822283407    -1.5548237111    -3.1976334724
  168      C       3.5525050380    -1.1796517713     1.9594524784
  169      C       5.4288516807     0.1794183474     2.6420700060
  170      C       7.9751561253     0.3643653952    -2.4230501570
  171      C       4.2756521889    -3.1276054219    -1.8861726688
  172      C       4.0075749485     2.2740382172    -3.2733808688
  173      C       7.5389164105     2.4224600846    -0.4818548653
  174      C       6.2857251345     1.5474369994    -3.6750603435
  175      C       6.2789650906    -0.8173562444     2.1499952112
  176      C       8.0799527093    -1.2314745636    -0.7585050234
 ----------------------------------------------------------------

   10   -5804.2312664647      3.08E-06 Convergence criterion met
 Total energy in the final basis set = -5804.2312664647

                    Orbital Energies (a.u.)
 --------------------------------------------------------------

 Alpha MOs
 -- Occupied --
-19.200 -19.186 -19.139 -19.136 -10.321 -10.318 -10.248 -10.245
-10.244 -10.244 -10.243 -10.242 -10.241 -10.237 -10.234 -10.233
-10.233 -10.232 -10.231 -10.230 -10.228 -10.227 -10.226 -10.225
-10.225 -10.224 -10.224 -10.224 -10.224 -10.224 -10.223 -10.223
-10.222 -10.222 -10.222 -10.222 -10.221 -10.221 -10.221 -10.221
-10.221 -10.221 -10.220 -10.220 -10.220 -10.220 -10.220 -10.219
-10.219 -10.219 -10.219 -10.219 -10.219 -10.219 -10.218 -10.218
-10.218 -10.218 -10.218 -10.217 -10.217 -10.217 -10.217 -10.217
-10.217 -10.216 -10.216 -10.216 -10.216 -10.216 -10.216 -10.216
-10.216 -10.216 -10.216 -10.215 -10.215 -10.215 -10.215 -10.215
-10.215 -10.215 -10.215 -10.215 -10.215 -10.215 -10.214 -10.214
-10.214 -10.214 -10.214 -10.213 -10.213 -10.213 -10.213 -10.213
-10.213 -10.212 -10.212 -10.212 -10.212 -10.212 -10.212 -10.212
-10.211 -10.211 -10.211 -10.211 -10.211 -10.211 -10.210 -10.210
-10.210 -10.210 -10.209 -10.209 -10.209 -10.209 -10.209 -10.208
-10.207 -10.207 -10.207 -10.207 -10.207 -10.206 -10.206 -10.206
-10.205 -10.205 -10.205 -10.204 -10.203 -10.203 -10.202 -10.201
-10.200 -10.200 -10.199 -10.199 -10.198 -10.197 -10.197 -10.197
-10.194 -10.193 -10.191 -10.187  -1.088  -1.081  -1.006  -1.006
 -0.988  -0.986  -0.970  -0.969  -0.968  -0.967  -0.966  -0.963
 -0.938  -0.936  -0.933  -0.932  -0.930  -0.929  -0.927  -0.927
 -0.924  -0.920  -0.901  -0.899  -0.897  -0.895  -0.889  -0.884
 -0.879  -0.875  -0.856  -0.856  -0.847  -0.845  -0.841  -0.841
 -0.840  -0.838  -0.826  -0.822  -0.811  -0.805  -0.802  -0.801
 -0.800  -0.800  -0.797  -0.796  -0.794  -0.791  -0.790  -0.786
 -0.776  -0.774  -0.772  -0.772  -0.771  -0.769  -0.769  -0.767
 -0.749  -0.748  -0.742  -0.739  -0.735  -0.734  -0.721  -0.719
 -0.718  -0.718  -0.717  -0.715  -0.714  -0.713  -0.711  -0.711
 -0.710  -0.709  -0.708  -0.705  -0.705  -0.704  -0.676  -0.676
 -0.663  -0.661  -0.661  -0.659  -0.651  -0.647  -0.638  -0.632
 -0.631  -0.631  -0.630  -0.625  -0.624  -0.622  -0.621  -0.619
 -0.618  -0.617  -0.615  -0.614  -0.613  -0.612  -0.611  -0.610
 -0.609  -0.607  -0.607  -0.605  -0.568  -0.567  -0.566  -0.565
 -0.564  -0.563  -0.562  -0.561  -0.559  -0.556  -0.555  -0.554
 -0.542  -0.537  -0.537  -0.534  -0.533  -0.529  -0.529  -0.527
 -0.526  -0.525  -0.523  -0.522  -0.520  -0.517  -0.517  -0.515
 -0.509  -0.507  -0.502  -0.498  -0.495  -0.490  -0.490  -0.488
 -0.486  -0.483  -0.482  -0.482  -0.480  -0.480  -0.478  -0.477
 -0.476  -0.475  -0.472  -0.471  -0.470  -0.470  -0.469  -0.468
 -0.467  -0.466  -0.466  -0.466  -0.465  -0.464  -0.461  -0.460
 -0.458  -0.456  -0.456  -0.455  -0.451  -0.451  -0.449  -0.446
 -0.445  -0.443  -0.441  -0.441  -0.438  -0.437  -0.436  -0.434
 -0.433  -0.432  -0.431  -0.431  -0.429  -0.428  -0.428  -0.427
 -0.426  -0.425  -0.424  -0.423  -0.422  -0.421  -0.421  -0.420
 -0.419  -0.419  -0.418  -0.417  -0.417  -0.416  -0.416  -0.415
 -0.414  -0.412  -0.410  -0.410  -0.404  -0.402  -0.400  -0.399
 -0.398  -0.394  -0.393  -0.389  -0.388  -0.387  -0.387  -0.383
 -0.383  -0.378  -0.377  -0.374  -0.371  -0.370  -0.369  -0.368
 -0.366  -0.365  -0.364  -0.364  -0.362  -0.361  -0.361  -0.360
 -0.358  -0.357  -0.357  -0.357  -0.356  -0.356  -0.355  -0.354
 -0.352  -0.351  -0.350  -0.349  -0.348  -0.348  -0.348  -0.346
 -0.343  -0.342  -0.341  -0.340  -0.337  -0.337  -0.336  -0.335
 -0.335  -0.334  -0.331  -0.330  -0.329  -0.328  -0.328  -0.325
 -0.313  -0.312  -0.302  -0.296  -0.293  -0.288  -0.274  -0.274
 -0.272  -0.271  -0.271  -0.270  -0.269  -0.267  -0.265  -0.264
 -0.264  -0.263  -0.261  -0.260  -0.259  -0.258  -0.256  -0.252
 -0.248  -0.246  -0.244  -0.242  -0.226  -0.223  -0.216  -0.213
 -0.213  -0.212  -0.210  -0.206  -0.201  -0.198

          Ground-State Mulliken Net Atomic Charges

     Atom                 Charge (a.u.)
  ----------------------------------------
      1 O                    -0.464729
      2 C                    -0.090640
      3 H                     0.130795
      4 H                     0.132842
      5 H                     0.116103
      6 O                    -0.480327
      7 C                     0.597522
      8 C                    -0.246781
      9 H                     0.114409
     10 H                     0.127751
     11 C                    -0.193860
     12 H                     0.109977
     13 H                     0.137962
     14 C                    -0.181455
     15 H                     0.109305
     16 H                     0.106092
     17 C                     0.019084
     18 C                     0.114704
     19 C                    -0.121391
     20 H                     0.093020
     21 C                    -0.093699
     22 H                     0.095673
     23 C                    -0.078242
     24 H                     0.082939
     25 C                    -0.072260
     26 H                     0.099879
     27 C                    -0.140098
     28 H                     0.087508
     29 C                     0.006249
     30 C                     0.014983
     31 C                    -0.010393
     32 C                     0.015960
     33 C                     0.009483
     34 C                    -0.023965
     35 C                    -0.004216
     36 C                    -0.006022
     37 C                     0.011455
     38 C                    -0.037041
     39 C                    -0.088689
     40 C                     0.022129
     41 C                     0.016988
     42 C                     0.002372
     43 C                    -0.022392
     44 C                    -0.010188
     45 C                    -0.086364
     46 C                     0.043995
     47 C                    -0.006941
     48 C                    -0.016729
     49 C                    -0.011525
     50 C                     0.028585
     51 C                    -0.029956
     52 C                     0.012394
     53 C                     0.008938
     54 C                     0.003719
     55 C                     0.017658
     56 C                     0.025654
     57 C                    -0.028014
     58 C                    -0.009855
     59 C                     0.014717
     60 C                     0.027136
     61 C                     0.010744
     62 C                    -0.025392
     63 C                     0.006406
     64 C                     0.039271
     65 C                    -0.036027
     66 C                     0.005559
     67 C                    -0.026075
     68 C                    -0.013335
     69 C                     0.025368
     70 C                     0.060147
     71 C                    -0.024133
     72 C                    -0.011350
     73 C                    -0.003912
     74 C                    -0.001066
     75 C                     0.023438
     76 C                     0.018461
     77 C                    -0.012569
     78 C                    -0.002652
     79 C                    -0.009962
     80 C                    -0.025046
     81 C                     0.004071
     82 C                    -0.022392
     83 C                     0.012796
     84 C                     0.000657
     85 C                    -0.003670
     86 C                     0.010340
     87 C                    -0.004846
     88 C                    -0.005230
     89 O                    -0.476673
     90 C                    -0.092975
     91 H                     0.131247
     92 H                     0.131878
     93 H                     0.138152
     94 O                    -0.470469
     95 C                     0.586774
     96 C                    -0.240702
     97 H                     0.124278
     98 H                     0.123172
     99 C                    -0.192006
    100 H                     0.121173
    101 H                     0.127194
    102 C                    -0.188146
    103 H                     0.117382
    104 H                     0.113122
    105 C                    -0.003104
    106 C                     0.106427
    107 C                    -0.135568
    108 H                     0.082209
    109 C                    -0.070499
    110 H                     0.088405
    111 C                    -0.071021
    112 H                     0.086155
    113 C                    -0.100416
    114 H                     0.089066
    115 C                    -0.100207
    116 H                     0.088519
    117 C                    -0.004193
    118 C                     0.022760
    119 C                    -0.034313
    120 C                     0.004365
    121 C                    -0.009698
    122 C                    -0.027619
    123 C                     0.001815
    124 C                    -0.002011
    125 C                    -0.001108
    126 C                    -0.042220
    127 C                    -0.075993
    128 C                     0.008970
    129 C                    -0.001787
    130 C                    -0.009540
    131 C                    -0.005739
    132 C                     0.021428
    133 C                    -0.098612
    134 C                     0.031717
    135 C                     0.022644
    136 C                     0.019589
    137 C                    -0.002417
    138 C                    -0.002462
    139 C                     0.013185
    140 C                    -0.011927
    141 C                     0.032941
    142 C                    -0.008818
    143 C                     0.011362
    144 C                     0.017985
    145 C                     0.007044
    146 C                    -0.024652
    147 C                     0.011294
    148 C                     0.028845
    149 C                    -0.011345
    150 C                    -0.020738
    151 C                     0.023047
    152 C                    -0.009388
    153 C                     0.011105
    154 C                    -0.013781
    155 C                     0.018389
    156 C                    -0.003995
    157 C                    -0.007774
    158 C                     0.021215
    159 C                    -0.008567
    160 C                     0.008651
    161 C                     0.008753
    162 C                     0.037523
    163 C                     0.001699
    164 C                     0.007449
    165 C                    -0.007184
    166 C                    -0.029184
    167 C                     0.002798
    168 C                     0.021616
    169 C                    -0.012919
    170 C                    -0.006482
    171 C                     0.000634
    172 C                     0.007750
    173 C                    -0.000013
    174 C                    -0.021592
    175 C                     0.001454
    176 C                    -0.017135
  ----------------------------------------
  Sum of atomic charges =     0.000000

                    Cartesian Multipole Moments
 -----------------------------------------------------------------
    Charge (ESU x 10^10)
                 0.0000
    Dipole Moment (Debye)
         X       1.7653      Y      -1.3130      Z       3.6472
       Tot       4.2594
    Quadrupole Moments (Debye-Ang)
        XX    -816.1038     XY      12.4764     YY    -807.0142
        XZ       5.3005     YZ       3.4944     ZZ    -793.0096

 Total job time:  991.34s(wall), 9622.09s(cpu)
        *  Thank you very much for using Q-Chem.  Have a nice day.  *
