 Q-Chem 4.4, Q-Chem, Inc., Pleasanton, CA (2016)
 Q-Chem 4.4.2 for Intel X86 Linux

User input:
--------------------------------------------------------------
$comment
SP
$end

$rem
MEM_STATIC 5000
MEM_TOTAL 20000
JOBTYPE SP
EXCHANGE B3LYP
BASIS 6-31g(d,p)
$end

$molecule
0 1
O         -18.763000     -4.496000     10.623000
C         -20.066000     -3.867000     10.682000
H         -20.134000     -3.058000      9.944000
H         -20.325000     -3.437000     11.658000
H         -20.929000     -4.504000     10.455000
O         -18.978000     -6.053000     12.392000
C         -18.287000     -5.417000     11.606000
C         -16.704000     -5.586000     11.410000
H         -16.278000     -5.938000     12.358000
H         -16.207000     -4.608000     11.387000
C         -16.212000     -6.277000     10.200000
H         -16.518000     -5.636000      9.365000
H         -15.124000     -6.213000     10.078000
C         -16.731000     -7.731000     10.076000
H         -16.143000     -8.435000     10.679000
H         -17.711000     -7.776000     10.568000
C         -16.850000     -8.312000      8.693000
C         -17.967000     -7.784000      7.956000
C         -17.688000     -6.905000      6.904000
H         -16.678000     -6.811000      6.515000
C         -18.621000     -5.970000      6.392000
H         -18.268000     -5.321000      5.597000
C         -19.913000     -5.980000      6.834000
H         -20.660000     -5.292000      6.449000
C         -20.255000     -6.950000      7.848000
H         -21.291000     -7.091000      8.142000
C         -19.339000     -7.895000      8.382000
H         -19.670000     -8.643000      9.097000
C         -17.575000    -13.045000      6.219000
C         -16.298000    -11.776000      4.548000
C         -12.460000    -14.058000      4.925000
C         -14.957000    -13.203000     10.632000
C         -10.797000    -11.726000      7.018000
C         -17.319000    -11.844000      5.534000
C         -12.167000    -13.067000     10.113000
C         -14.730000    -14.881000      4.889000
C         -13.960000     -9.229000      6.323000
C         -14.248000    -11.994000     10.691000
C         -15.588000     -8.903000      8.045000
C         -13.205000     -9.159000      7.536000
C         -12.682000    -10.695000      9.835000
C         -11.241000    -13.026000      9.064000
C         -16.132000     -9.983000      5.758000
C         -11.281000    -14.121000      6.834000
C         -16.566000     -9.829000      8.599000
C         -16.169000    -10.761000      9.766000
C         -10.895000    -12.892000      6.227000
C         -14.645000    -15.733000      8.286000
C         -13.110000    -15.671000      6.598000
C         -14.425000    -15.636000      6.076000
C         -15.973000    -14.228000      4.753000
C         -16.839000    -11.971000      9.597000
C         -15.325000     -9.139000      6.588000
C         -15.651000    -12.986000      4.150000
C         -12.894000    -11.915000     10.450000
C         -15.647000    -10.578000      4.617000
C         -12.017000     -9.915000      7.628000
C         -16.340000    -14.354000      9.231000
C         -13.696000    -14.136000      4.293000
C         -14.146000     -9.081000      8.620000
C         -16.607000    -15.011000      6.944000
C         -11.750000    -10.653000      8.828000
C         -13.356000     -9.866000      5.248000
C         -12.381000    -15.013000      8.837000
C         -12.907000    -14.263000      9.936000
C         -12.179000    -10.558000      5.334000
C         -16.235000    -13.217000     10.075000
C         -14.886000    -10.785000     10.271000
C         -15.148000    -15.043000      9.347000
C         -17.452000    -10.726000      7.742000
C         -13.568000    -11.727000      4.019000
C         -13.930000     -9.969000      9.738000
C         -11.505000    -10.623000      6.543000
C         -17.091000    -14.312000      8.064000
C         -11.690000    -12.881000      5.041000
C         -16.924000    -14.255000      5.797000
C         -12.131000    -14.855000      5.985000
C         -14.237000    -10.550000      4.377000
C         -12.261000    -11.685000      4.545000
C         -17.213000    -10.675000      6.330000
C         -17.625000    -11.961000      8.422000
C         -13.264000    -15.719000      7.977000
C         -14.265000    -12.949000      3.889000
C         -10.998000    -11.787000      8.403000
C         -14.279000    -14.348000     10.240000
C         -11.413000    -14.193000      8.260000
C         -17.712000    -13.116000      7.633000
C         -15.383000    -15.713000      7.077000
O         -16.124000    -18.160000      3.341000
C         -14.675000    -17.986000      3.230000
H         -14.413000    -17.865000      2.171000
H         -14.124000    -18.898000      3.487000
H         -14.387000    -17.087000      3.789000
O         -16.677000    -16.360000      2.072000
C         -16.978000    -17.318000      2.717000
C         -18.453000    -17.800000      2.957000
H         -18.463000    -18.827000      2.572000
H         -19.106000    -17.130000      2.385000
C         -18.780000    -17.785000      4.468000
H         -17.978000    -18.312000      4.998000
H         -18.579000    -16.770000      4.833000
C         -20.179000    -18.223000      4.966000
H         -20.925000    -17.504000      4.608000
H         -20.395000    -19.235000      4.601000
C         -20.291000    -18.193000      6.485000
C         -19.307000    -19.083000      7.273000
C         -18.092000    -18.544000      7.800000
H         -17.937000    -17.479000      7.655000
C         -17.211000    -19.367000      8.524000
H         -16.386000    -18.877000      9.031000
C         -17.560000    -20.672000      8.806000
H         -16.921000    -21.205000      9.503000
C         -18.704000    -21.219000      8.342000
H         -18.963000    -22.238000      8.611000
C         -19.564000    -20.465000      7.497000
H         -20.468000    -20.986000      7.194000
C         -23.572000    -18.721000     10.755000
C         -21.775000    -17.270000     11.531000
C         -24.350000    -13.475000     11.762000
C         -25.644000    -16.912000      6.536000
C         -23.198000    -12.345000      8.670000
C         -22.210000    -18.396000     10.785000
C         -25.577000    -14.080000      6.594000
C         -24.872000    -15.752000     12.366000
C         -20.245000    -15.152000      8.538000
C         -24.632000    -16.180000      5.827000
C         -20.799000    -16.951000      7.188000
C         -20.848000    -14.586000      7.391000
C         -23.253000    -14.413000      5.964000
C         -25.148000    -12.996000      7.372000
C         -20.618000    -17.254000      9.642000
C         -25.261000    -12.669000      9.842000
C         -21.699000    -18.139000      7.051000
C         -23.001000    -17.929000      6.425000
C         -23.895000    -12.335000      9.865000
C         -26.998000    -16.250000      9.646000
C         -26.366000    -14.483000     10.896000
C         -26.089000    -15.647000     11.646000
C         -24.119000    -16.933000     12.352000
C         -23.984000    -18.587000      7.161000
C         -20.287000    -16.507000      8.502000
C         -22.748000    -16.549000     12.319000
C         -24.583000    -14.785000      5.885000
C         -20.849000    -16.572000     10.849000
C         -21.625000    -13.416000      7.465000
C         -26.067000    -18.126000      8.410000
C         -24.018000    -14.640000     12.458000
C         -21.197000    -15.644000      6.529000
C         -25.677000    -17.976000     10.780000
C         -22.824000    -13.290000      6.720000
C         -20.498000    -14.483000      9.804000
C         -26.772000    -14.114000      8.573000
C         -26.518000    -14.787000      7.320000
C         -21.245000    -13.336000      9.845000
C         -25.312000    -18.082000      7.226000
C         -23.353000    -16.711000      5.845000
C         -26.796000    -16.925000      8.457000
C         -22.058000    -18.726000      8.351000
C         -21.708000    -14.455000     11.745000
C         -22.475000    -15.611000      5.916000
C         -21.870000    -12.805000      8.641000
C         -25.515000    -18.701000      9.566000
C         -23.290000    -12.810000     11.054000
C         -24.511000    -18.031000     11.531000
C         -25.546000    -13.408000     10.974000
C         -20.728000    -15.188000     10.979000
C         -21.989000    -13.319000     10.998000
C         -21.537000    -18.281000      9.589000
C         -23.418000    -19.039000      8.384000
C         -27.037000    -14.851000      9.712000
C         -22.736000    -15.125000     12.427000
C         -23.795000    -12.669000      7.466000
C         -26.617000    -16.208000      7.312000
C         -25.875000    -12.984000      8.618000
C         -24.195000    -19.092000      9.538000
C         -26.405000    -16.758000     10.804000
$end

--------------------------------------------------------------

             Standard Nuclear Orientation (Angstroms)
    I     Atom           X                Y                Z
 ----------------------------------------------------------------
    1      O       4.0959835558    -8.6425133059     0.1262967870
    2      C       3.2606006089    -9.7147004371     0.6257776052
    3      H       3.6896209050   -10.1386450816     1.5422717535
    4      H       3.1108878968   -10.5455060979    -0.0755818303
    5      H       2.2373681998    -9.4459671428     0.9136054245
    6      O       2.9234650496    -8.0974432196    -1.8556048134
    7      C       3.9337857572    -8.0529707945    -1.1649187261
    8      C       5.2511956071    -7.1998428451    -1.4957812191
    9      H       5.3235600762    -7.0917629456    -2.5853527491
   10      H       6.1546286091    -7.8063166887    -1.3542881522
   11      C       5.5091265569    -5.9692540745    -0.7193999320
   12      H       5.6642817938    -6.3125235425     0.3100829114
   13      H       6.4993638506    -5.5379176669    -0.9094078413
   14      C       4.3779249671    -4.9193208100    -0.8493079893
   15      H       4.4682509455    -4.3223750923    -1.7660773320
   16      H       3.4405084265    -5.4623783090    -1.0248864115
   17      C       4.1824047755    -3.9616530867     0.2948315941
   18      C       3.5671322665    -4.5746544998     1.4417016858
   19      C       4.3728899932    -4.7987204302     2.5631895121
   20      H       5.3459402322    -4.3232402899     2.6489150539
   21      C       4.0821544102    -5.7617089927     3.5606782836
   22      H       4.8069601461    -5.8609832338     4.3623242593
   23      C       2.8978522990    -6.4409244592     3.5319927573
   24      H       2.6326189380    -7.1707932831     4.2912824017
   25      C       1.9989243375    -6.1520585428     2.4390403327
   26      H       0.9935885132    -6.5630307897     2.4352072367
   27      C       2.2671558685    -5.1958764647     1.4236563268
   28      H       1.5246808676    -4.9750281278     0.6619169455
   29      C       1.6153994720     0.6251249357     1.4862765759
   30      C       3.5569441718     0.7115368814     2.9883645075
   31      C       5.7371757877     4.0200937988     0.8955343123
   32      C       3.2134488462     0.1496242393    -3.3689880189
   33      C       8.0158829701     1.9573291729    -0.8756059065
   34      C       2.5063066671    -0.0150287756     2.3658501064
   35      C       5.7670625708     1.3568480859    -3.6749692762
   36      C       3.3793235101     3.8045894191     1.3705243115
   37      C       6.5668462399    -1.1384922987     1.3691179007
   38      C       4.4004808206    -0.5948924574    -3.3019583225
   39      C       5.0799501131    -2.7157335582     0.3574885627
   40      C       7.0912357790    -1.3495105180     0.0550475364
   41      C       6.4969833504    -0.7240768293    -2.6233704206
   42      C       6.7308922025     2.0913609855    -2.9741973866
   43      C       4.3984275087    -1.1726737688     2.3189162127
   44      C       6.4713340370     3.8286863124    -1.2169679573
   45      C       3.7129310594    -2.5466817970    -0.1153289591
   46      C       3.4521551251    -2.0491598743    -1.5549781693
   47      C       7.4778428814     3.1882126265    -0.4393951929
   48      C       2.5856941539     3.2692520967    -1.9993873188
   49      C       4.1736740918     4.4726257430    -0.8860030256
   50      C       3.1210846727     4.1098756161    -0.0122743147
   51      C       2.6337752106     2.8100656260     2.0376331168
   52      C       2.3132863542    -1.2466311872    -1.5329185016
   53      C       5.3911572637    -1.8638356638     1.5512783629
   54      C       3.5905121233     2.1314361081     2.8338576186
   55      C       5.6445353462    -0.0239579434    -3.4568780366
   56      C       4.6870729586    -0.0509635434     3.0602535007
   57      C       7.7455962001    -0.2746929693    -0.5836414930
   58      C       1.6510917589     1.0796941512    -1.9926518351
   59      C       4.7136489018     3.8248823905     1.8161260893
   60      C       6.1668154527    -2.2024953787    -0.6410019503
   61      C       1.4127505202     2.3817134241     0.0026542234
   62      C       7.4608279351    -0.0038052707    -1.9625758243
   63      C       6.9295702715     0.0413572473     2.0036226884
   64      C       4.8194213605     3.3741605359    -2.9726056840
   65      C       4.5753201173     2.1224895370    -3.6212282967
   66      C       7.6059322548     1.0606304389     1.3910823808
   67      C       2.1741265330    -0.1441555285    -2.4873806361
   68      C       4.4845821543    -1.7020804176    -2.4007442600
   69      C       2.3378486955     2.0912094003    -2.6362688104
   70      C       2.6299227230    -1.8330052302     0.6858031780
   71      C       6.0181312029     1.9708835716     2.6854679701
   72      C       5.7768877030    -1.7961880188    -1.9706615606
   73      C       7.9958383676     0.9310331128     0.0676928855
   74      C       1.1777356419     1.1815942572    -0.6914199746
   75      C       6.9540284598     3.3053805827     0.8837193606
   76      C       1.6556721352     2.0556811052     1.3525897833
   77      C       5.4967075183     4.4179393377    -0.3893563206
   78      C       5.9550467242     0.5847048882     2.8741025543
   79      C       7.1002148723     2.2646900611     1.8313826822
   80      C       3.0520467802    -1.2470721130     1.9235267589
   81      C       1.7953089131    -1.1291452548    -0.2227973522
   82      C       3.8311180540     3.9309023472    -2.1176085320
   83      C       4.8448371020     2.7578349715     2.6764431597
   84      C       7.6255376770     1.4052328914    -2.1024584845
   85      C       3.3042842720     1.5255595994    -3.5203941292
   86      C       6.1299842561     3.2981368800    -2.5046331416
   87      C       1.2718147165     0.0962473462     0.2113475539
   88      C       2.1187096373     3.4105671443    -0.6694698332
   89      O       0.8055993926     6.5601580507     2.3054931258
   90      C       2.1600705951     7.0411923813     2.0294283974
   91      H       2.5881180530     7.4450056337     2.9559683215
   92      H       2.1651395510     7.9270529527     1.3839678224
   93      H       2.7659071060     6.1970021618     1.6773900538
   94      O       1.3616489175     5.3143408144     4.1206841184
   95      C       0.5537982376     5.7487838601     3.3571223861
   96      C      -0.9884835352     5.4654951969     3.4387524450
   97      H      -1.4382822430     6.4629586318     3.5149221143
   98      H      -1.1556554499     4.8590092729     4.3369291397
   99      C      -1.4685521323     4.7517326079     2.1540921364
  100      H      -1.0979097446     5.3148814701     1.2896150809
  101      H      -0.8562623769     3.8488327610     2.0369421392
  102      C      -2.9586385524     4.3651765664     1.9889682819
  103      H      -3.2117641976     3.5996856249     2.7316606989
  104      H      -3.5824896403     5.2595260088     2.1113361498
  105      C      -3.2462278471     3.7225888963     0.6379766151
  106      C      -2.9269144221     4.5646120417    -0.6151538486
  107      C      -1.6860970435     4.4064944518    -1.3078630666
  108      H      -1.0208746425     3.6355342757    -0.9305375251
  109      C      -1.4152609599     5.1752290517    -2.4538826697
  110      H      -0.5333135171     4.9082429337    -3.0271724053
  111      C      -2.3823444539     6.0164695364    -2.9651692454
  112      H      -2.1783955948     6.4559617052    -3.9364933398
  113      C      -3.5739602589     6.1861484755    -2.3532036981
  114      H      -4.3239702230     6.8300844523    -2.8011261371
  115      C      -3.8433983325     5.5290178007    -1.1212445264
  116      H      -4.8362240101     5.7131247101    -0.7201612187
  117      C      -6.9196406750     1.2307649689    -2.4561301560
  118      C      -4.7700940756     0.4529887904    -3.2995159710
  119      C      -5.2112079750    -3.8370722781    -1.7225551101
  120      C      -7.2779478848     0.4765634700     2.5106013692
  121      C      -3.2530516335    -3.1496765039     1.0805822022
  122      C      -5.5871041458     1.4976646124    -2.7947744806
  123      C      -5.8680415354    -1.8798813574     3.2087481024
  124      C      -6.8383434514    -2.3763819757    -2.7427722351
  125      C      -2.0233079110     0.4316118986    -0.4290487974
  126      C      -5.9536892080     0.5414076727     3.0626730913
  127      C      -3.1850950986     2.2171225709     0.4809067895
  128      C      -2.1195042518     0.1486920640     0.9530787768
  129      C      -3.9285408121    -0.4276429381     3.0135417560
  130      C      -5.0807133296    -2.9040114479     2.6650084090
  131      C      -3.5047254975     1.6180376662    -1.9035469604
  132      C      -5.3548684364    -4.1530375356     0.5236605135
  133      C      -4.5170769540     2.8965000596     0.5471152842
  134      C      -5.4603503293     2.4322500322     1.5599762083
  135      C      -4.0135995573    -3.8893921886     0.1927074580
  136      C      -8.5532736281    -1.7934207887     0.2380750846
  137      C      -7.3257512045    -3.4831102424    -0.6118374107
  138      C      -7.7456712011    -2.6833743107    -1.6972933683
  139      C      -6.7507758559    -1.0826249795    -3.2723860103
  140      C      -6.7275870474     2.3072169041     0.9947976375
  141      C      -2.7053979963     1.5581766053    -0.7526072577
  142      C      -5.3736134453    -0.8375558593    -3.5398758625
  143      C      -5.2492953047    -0.6239806172     3.3749059574
  144      C      -3.5403440391     0.5013319283    -2.7562096220
  145      C      -2.2412496483    -1.1681798403     1.4317555425
  146      C      -8.4802444996     0.6121630394     0.5868818972
  147      C      -5.5766507590    -2.9939749683    -2.7749350310
  148      C      -2.8136759995     1.2150543357     1.5574016129
  149      C      -8.3898995684    -0.2487463398    -1.6585964114
  150      C      -3.1195207171    -1.4760048547     2.5005799856
  151      C      -2.0921960101    -0.7053576212    -1.3328633474
  152      C      -7.1871305251    -3.0791582384     1.7365520557
  153      C      -7.1210497717    -1.9433486789     2.6270709936
  154      C      -2.1945288138    -1.9785169698    -0.8390088443
  155      C      -7.6449817909     1.3260912710     1.4623587316
  156      C      -5.1024459529     1.4931786091     2.5263494901
  157      C      -8.5418590745    -0.7010294799     1.0846569983
  158      C      -5.2854414811     2.7513530966    -0.6986769587
  159      C      -3.3893939448    -1.9480654387    -2.7489564935
  160      C      -3.8228789775     0.9031838081     2.5031225672
  161      C      -2.3189085869    -2.2196423251     0.5922808661
  162      C      -8.4337888017     0.8786309045    -0.7909793966
  163      C      -3.8776459453    -3.6973777252    -1.2037230134
  164      C      -7.5069540890    -0.0156963948    -2.7039083282
  165      C      -6.1094041818    -4.0782836706    -0.6312670463
  166      C      -2.7885362020    -0.6529815475    -2.5340781842
  167      C      -2.9867886866    -2.7271956390    -1.6726985612
  168      C      -4.7872108673     2.1238416443    -1.8649126265
  169      C      -6.6189819164     2.4515127584    -0.4150862698
  170      C      -7.9243148342    -3.0006450571     0.5698858760
  171      C      -4.6941122458    -2.0608889709    -3.2547123691
  172      C      -3.7636511947    -2.6665260414     2.2708992687
  173      C      -7.8880102317    -0.7952828940     2.2766104305
  174      C      -5.8731842496    -3.6767107448     1.7397437780
  175      C      -7.4735876417     1.7475231441    -1.2590659361
  176      C      -8.4393828811    -1.5670447965    -1.1354094649
 ----------------------------------------------------------------

    9   -5804.2776079237      8.77E-06 Convergence criterion met
 Total energy in the final basis set = -5804.2776079237

                    Orbital Energies (a.u.)
 --------------------------------------------------------------

 Alpha MOs
 -- Occupied --
-19.191 -19.187 -19.154 -19.132 -10.334 -10.312 -10.247 -10.246
-10.242 -10.241 -10.236 -10.236 -10.234 -10.233 -10.232 -10.232
-10.227 -10.226 -10.225 -10.225 -10.225 -10.224 -10.224 -10.224
-10.224 -10.223 -10.223 -10.223 -10.223 -10.223 -10.222 -10.222
-10.221 -10.220 -10.220 -10.220 -10.220 -10.220 -10.220 -10.220
-10.220 -10.220 -10.219 -10.219 -10.219 -10.219 -10.219 -10.219
-10.219 -10.218 -10.218 -10.218 -10.218 -10.218 -10.218 -10.218
-10.218 -10.217 -10.217 -10.217 -10.217 -10.216 -10.216 -10.216
-10.216 -10.216 -10.216 -10.216 -10.216 -10.215 -10.215 -10.215
-10.215 -10.215 -10.215 -10.215 -10.215 -10.215 -10.215 -10.215
-10.214 -10.214 -10.214 -10.214 -10.214 -10.213 -10.213 -10.213
-10.213 -10.213 -10.213 -10.213 -10.213 -10.212 -10.212 -10.212
-10.212 -10.212 -10.212 -10.212 -10.211 -10.211 -10.211 -10.211
-10.211 -10.211 -10.211 -10.210 -10.210 -10.210 -10.210 -10.210
-10.210 -10.209 -10.209 -10.209 -10.209 -10.208 -10.208 -10.208
-10.208 -10.208 -10.207 -10.207 -10.207 -10.207 -10.206 -10.206
-10.206 -10.206 -10.205 -10.205 -10.204 -10.204 -10.203 -10.202
-10.201 -10.201 -10.200 -10.198 -10.197 -10.197 -10.196 -10.195
-10.193 -10.192 -10.189 -10.188  -1.092  -1.074  -1.014  -1.012
 -0.983  -0.983  -0.966  -0.966  -0.964  -0.962  -0.962  -0.961
 -0.935  -0.935  -0.929  -0.926  -0.925  -0.924  -0.924  -0.924
 -0.919  -0.919  -0.900  -0.895  -0.892  -0.891  -0.886  -0.882
 -0.875  -0.872  -0.852  -0.850  -0.843  -0.841  -0.839  -0.838
 -0.837  -0.834  -0.824  -0.822  -0.809  -0.799  -0.798  -0.797
 -0.797  -0.796  -0.795  -0.792  -0.792  -0.790  -0.786  -0.782
 -0.773  -0.770  -0.769  -0.769  -0.767  -0.766  -0.765  -0.760
 -0.746  -0.745  -0.741  -0.739  -0.732  -0.730  -0.717  -0.715
 -0.714  -0.714  -0.713  -0.712  -0.711  -0.711  -0.710  -0.709
 -0.709  -0.708  -0.706  -0.704  -0.702  -0.701  -0.672  -0.670
 -0.659  -0.658  -0.657  -0.656  -0.649  -0.647  -0.632  -0.630
 -0.629  -0.627  -0.626  -0.623  -0.623  -0.621  -0.619  -0.617
 -0.616  -0.614  -0.613  -0.613  -0.612  -0.609  -0.609  -0.606
 -0.605  -0.604  -0.603  -0.602  -0.569  -0.564  -0.563  -0.563
 -0.561  -0.560  -0.558  -0.558  -0.557  -0.556  -0.554  -0.553
 -0.537  -0.534  -0.534  -0.530  -0.529  -0.528  -0.525  -0.525
 -0.524  -0.521  -0.521  -0.519  -0.517  -0.516  -0.514  -0.512
 -0.508  -0.505  -0.496  -0.494  -0.491  -0.490  -0.487  -0.485
 -0.484  -0.482  -0.480  -0.478  -0.477  -0.476  -0.475  -0.474
 -0.472  -0.471  -0.471  -0.469  -0.468  -0.466  -0.466  -0.465
 -0.465  -0.464  -0.463  -0.462  -0.461  -0.461  -0.458  -0.456
 -0.455  -0.454  -0.452  -0.452  -0.449  -0.446  -0.445  -0.443
 -0.443  -0.440  -0.440  -0.440  -0.438  -0.435  -0.435  -0.433
 -0.430  -0.430  -0.429  -0.428  -0.426  -0.425  -0.424  -0.424
 -0.423  -0.422  -0.421  -0.420  -0.419  -0.419  -0.418  -0.417
 -0.417  -0.416  -0.416  -0.415  -0.414  -0.413  -0.413  -0.412
 -0.412  -0.411  -0.410  -0.408  -0.403  -0.400  -0.399  -0.396
 -0.395  -0.394  -0.393  -0.391  -0.390  -0.389  -0.388  -0.384
 -0.382  -0.381  -0.375  -0.370  -0.370  -0.369  -0.366  -0.366
 -0.364  -0.364  -0.363  -0.362  -0.362  -0.360  -0.359  -0.357
 -0.357  -0.355  -0.355  -0.354  -0.352  -0.351  -0.351  -0.350
 -0.349  -0.349  -0.348  -0.348  -0.347  -0.346  -0.345  -0.343
 -0.342  -0.342  -0.341  -0.338  -0.337  -0.336  -0.334  -0.334
 -0.332  -0.331  -0.330  -0.329  -0.329  -0.327  -0.326  -0.323
 -0.307  -0.304  -0.298  -0.297  -0.292  -0.286  -0.276  -0.273
 -0.271  -0.269  -0.269  -0.268  -0.265  -0.264  -0.264  -0.264
 -0.263  -0.262  -0.260  -0.258  -0.257  -0.255  -0.252  -0.251
 -0.249  -0.248  -0.244  -0.241  -0.227  -0.223  -0.213  -0.212
 -0.210  -0.209  -0.208  -0.203  -0.198  -0.194

          Ground-State Mulliken Net Atomic Charges

     Atom                 Charge (a.u.)
  ----------------------------------------
      1 O                    -0.474774
      2 C                    -0.081348
      3 H                     0.124193
      4 H                     0.121194
      5 H                     0.121592
      6 O                    -0.444223
      7 C                     0.586911
      8 C                    -0.240031
      9 H                     0.123377
     10 H                     0.119519
     11 C                    -0.187053
     12 H                     0.127190
     13 H                     0.108337
     14 C                    -0.181441
     15 H                     0.102787
     16 H                     0.122951
     17 C                     0.004396
     18 C                     0.097522
     19 C                    -0.105144
     20 H                     0.087322
     21 C                    -0.083080
     22 H                     0.090084
     23 C                    -0.077509
     24 H                     0.092195
     25 C                    -0.103147
     26 H                     0.089241
     27 C                    -0.105634
     28 H                     0.103693
     29 C                     0.014420
     30 C                     0.022009
     31 C                     0.052282
     32 C                    -0.011307
     33 C                    -0.009672
     34 C                    -0.033361
     35 C                     0.001931
     36 C                    -0.020295
     37 C                     0.003586
     38 C                     0.006437
     39 C                    -0.083801
     40 C                    -0.010583
     41 C                    -0.016557
     42 C                    -0.014142
     43 C                     0.013495
     44 C                     0.000280
     45 C                    -0.100664
     46 C                     0.040890
     47 C                    -0.022893
     48 C                    -0.014728
     49 C                    -0.005042
     50 C                    -0.003157
     51 C                     0.011972
     52 C                    -0.003862
     53 C                     0.034326
     54 C                     0.001476
     55 C                     0.021039
     56 C                     0.000512
     57 C                    -0.016910
     58 C                     0.022882
     59 C                    -0.000177
     60 C                     0.002160
     61 C                    -0.011396
     62 C                    -0.003099
     63 C                     0.011144
     64 C                    -0.013739
     65 C                     0.002050
     66 C                     0.022020
     67 C                    -0.016340
     68 C                     0.009013
     69 C                     0.009508
     70 C                     0.028774
     71 C                     0.024144
     72 C                     0.004917
     73 C                     0.032420
     74 C                     0.005738
     75 C                     0.001195
     76 C                    -0.024046
     77 C                    -0.014997
     78 C                    -0.041742
     79 C                    -0.040805
     80 C                     0.011301
     81 C                    -0.004110
     82 C                     0.008890
     83 C                     0.000415
     84 C                     0.003046
     85 C                    -0.011959
     86 C                     0.010923
     87 C                     0.002704
     88 C                     0.008019
     89 O                    -0.461749
     90 C                    -0.090754
     91 H                     0.125719
     92 H                     0.125524
     93 H                     0.130673
     94 O                    -0.458538
     95 C                     0.575811
     96 C                    -0.235200
     97 H                     0.121349
     98 H                     0.123590
     99 C                    -0.210473
    100 H                     0.131934
    101 H                     0.103083
    102 C                    -0.162964
    103 H                     0.104515
    104 H                     0.106728
    105 C                     0.017871
    106 C                     0.069611
    107 C                    -0.100417
    108 H                     0.094163
    109 C                    -0.098631
    110 H                     0.092668
    111 C                    -0.070727
    112 H                     0.086226
    113 C                    -0.082387
    114 H                     0.089885
    115 C                    -0.118526
    116 H                     0.089740
    117 C                    -0.010050
    118 C                    -0.002763
    119 C                    -0.024924
    120 C                    -0.028688
    121 C                     0.015080
    122 C                    -0.026416
    123 C                     0.003791
    124 C                    -0.002263
    125 C                     0.006176
    126 C                    -0.015593
    127 C                    -0.088481
    128 C                     0.019568
    129 C                    -0.001178
    130 C                    -0.014395
    131 C                     0.006661
    132 C                     0.004637
    133 C                    -0.094226
    134 C                     0.044661
    135 C                    -0.019286
    136 C                     0.009266
    137 C                     0.016069
    138 C                    -0.026807
    139 C                    -0.004637
    140 C                    -0.021929
    141 C                     0.028190
    142 C                    -0.012174
    143 C                     0.008714
    144 C                     0.018461
    145 C                     0.011743
    146 C                     0.006891
    147 C                     0.009191
    148 C                     0.000149
    149 C                    -0.001708
    150 C                    -0.044253
    151 C                    -0.001135
    152 C                    -0.016771
    153 C                     0.014970
    154 C                     0.003425
    155 C                     0.007482
    156 C                     0.020556
    157 C                     0.021847
    158 C                     0.056414
    159 C                    -0.026987
    160 C                    -0.005718
    161 C                    -0.021153
    162 C                    -0.037441
    163 C                     0.000041
    164 C                     0.002654
    165 C                     0.021381
    166 C                    -0.025385
    167 C                     0.020562
    168 C                     0.027553
    169 C                    -0.016847
    170 C                    -0.004465
    171 C                     0.012439
    172 C                     0.036475
    173 C                    -0.017802
    174 C                    -0.013282
    175 C                     0.032829
    176 C                     0.004507
  ----------------------------------------
  Sum of atomic charges =     0.000000

                    Cartesian Multipole Moments
 -----------------------------------------------------------------
    Charge (ESU x 10^10)
                 0.0000
    Dipole Moment (Debye)
         X       2.2956      Y      -0.5700      Z       0.1876
       Tot       2.3727
    Quadrupole Moments (Debye-Ang)
        XX    -804.0244     XY     -24.8413     YY    -760.4624
        XZ      -4.5811     YZ     -25.5040     ZZ    -817.8023

 Total job time:  871.33s(wall), 8352.67s(cpu)
        *  Thank you very much for using Q-Chem.  Have a nice day.  *
