 Q-Chem 4.4, Q-Chem, Inc., Pleasanton, CA (2016)
 Q-Chem 4.4.2 for Intel X86 Linux

User input:
--------------------------------------------------------------
$comment
SP
$end

$rem
MEM_STATIC 5000
MEM_TOTAL 20000
JOBTYPE SP
EXCHANGE B3LYP
BASIS 6-31g(d,p)
$end

$molecule
0 1
O          12.194000     -5.794000      8.267000
C          10.910000     -5.407000      7.669000
H          11.060000     -4.479000      7.106000
H          10.132000     -5.230000      8.422000
H          10.543000     -6.231000      7.045000
O          11.493000     -7.866000      9.026000
C          12.351000     -7.070000      8.842000
C          13.735000     -7.287000      9.269000
H          13.668000     -8.210000      9.858000
H          14.065000     -6.495000      9.953000
C          14.792000     -7.355000      8.205000
H          14.696000     -8.228000      7.548000
H          14.627000     -6.518000      7.515000
C          16.102000     -7.409000      8.965000
H          16.096000     -6.742000      9.837000
H          16.129000     -8.418000      9.396000
C          17.300000     -7.208000      7.937000
C          17.666000     -8.472000      7.220000
C          18.462000     -9.518000      7.807000
H          18.801000     -9.491000      8.839000
C          18.818000    -10.636000      6.994000
H          19.443000    -11.399000      7.450000
C          18.551000    -10.643000      5.595000
H          18.924000    -11.383000      4.892000
C          17.674000     -9.603000      5.044000
H          17.515000     -9.617000      3.970000
C          17.249000     -8.563000      5.894000
H          16.782000     -7.697000      5.435000
C          22.323000     -4.952000      7.680000
C          21.512000     -4.619000      5.415000
C          21.011000     -0.149000      5.830000
C          19.130000     -3.147000     11.118000
C          17.590000     -0.354000      6.389000
C          21.523000     -5.404000      6.565000
C          17.918000     -0.880000      9.950000
C          22.812000     -1.609000      6.616000
C          17.527000     -4.270000      5.506000
C          17.786000     -3.252000     10.566000
C          17.435000     -5.847000      7.261000
C          16.646000     -3.745000      6.405000
C          16.438000     -2.515000      8.882000
C          17.809000     -0.093000      8.826000
C          19.480000     -5.633000      5.705000
C          19.580000      0.765000      7.344000
C          18.395000     -6.274000      8.366000
C          18.341000     -5.422000      9.677000
C          18.833000      0.321000      6.215000
C          21.906000     -1.305000      9.981000
C          21.858000      0.115000      8.130000
C          22.756000     -0.968000      7.833000
C          23.001000     -2.975000      6.432000
C          19.706000     -5.242000     10.141000
C          18.125000     -5.467000      5.930000
C          22.243000     -3.430000      5.352000
C          17.252000     -2.100000      9.998000
C          20.209000     -4.747000      4.894000
C          16.464000     -2.332000      6.524000
C          21.332000     -3.583000     10.769000
C          21.942000     -1.210000      5.596000
C          16.565000     -4.583000      7.511000
C          22.887000     -3.152000      8.918000
C          16.397000     -1.691000      7.733000
C          18.177000     -3.406000      4.667000
C          19.938000      0.141000      9.729000
C          19.191000     -0.765000     10.434000
C          18.060000     -1.999000      4.754000
C          20.111000     -4.180000     10.925000
C          17.404000     -4.403000      9.814000
C          21.198000     -2.130000     10.877000
C          19.897000     -6.328000      8.106000
C          20.246000     -2.442000      4.340000
C          16.554000     -3.954000      8.780000
C          17.175000     -1.482000      5.716000
C          22.184000     -4.045000      9.731000
C          19.706000     -0.249000      5.286000
C          23.000000     -3.726000      7.653000
C          20.972000      0.496000      7.077000
C          19.555000     -3.597000      4.419000
C          19.319000     -1.354000      4.548000
C          20.382000     -6.102000      6.733000
C          20.582000     -5.794000      9.167000
C          21.307000     -0.125000      9.389000
C          21.582000     -2.318000      4.820000
C          17.122000     -0.541000      7.687000
C          19.753000     -1.899000     11.102000
C          19.075000      0.524000      8.644000
C          21.795000     -5.171000      8.934000
C          22.799000     -1.794000      9.009000
O          13.657000      9.882000     12.911000
C          14.662000     10.895000     13.028000
H          15.270000     10.602000     13.892000
H          14.046000     11.736000     13.372000
H          15.240000     11.151000     12.132000
O          15.093000      8.174000     12.710000
C          13.980000      8.630000     12.743000
C          12.665000      7.811000     12.868000
H          11.979000      8.402000     13.486000
H          13.054000      6.951000     13.427000
C          11.912000      7.394000     11.573000
H          11.472000      8.270000     11.080000
H          12.756000      7.041000     10.969000
C          10.758000      6.348000     11.816000
H          10.968000      5.664000     12.648000
H           9.883000      6.873000     12.219000
C          10.336000      5.529000     10.528000
C           9.819000      6.429000      9.398000
C          10.777000      6.978000      8.470000
H          11.818000      6.668000      8.470000
C          10.364000      7.844000      7.490000
H          11.054000      8.181000      6.722000
C           9.020000      8.094000      7.400000
H           8.715000      8.744000      6.585000
C           8.103000      7.545000      8.274000
H           7.066000      7.721000      8.002000
C           8.473000      6.688000      9.278000
H           7.748000      6.328000     10.002000
C           7.868000      1.064000      8.458000
C           9.787000      1.341000      7.023000
C          12.133000     -2.273000      8.342000
C           9.372000      0.855000     13.269000
C          14.168000     -0.318000     10.497000
C           8.804000      1.875000      7.823000
C          11.959000     -0.391000     13.293000
C           9.742000     -1.941000      7.909000
C          12.804000      3.092000      8.995000
C          10.546000      1.643000     13.377000
C          11.188000      4.261000     10.210000
C          13.249000      3.048000     10.335000
C          12.637000      1.889000     12.753000
C          12.985000     -0.911000     12.500000
C          10.610000      3.210000      7.990000
C          12.733000     -2.271000     10.514000
C           9.808000      4.122000     10.608000
C           9.539000      3.401000     11.898000
C          13.642000     -1.452000      9.830000
C           8.806000     -2.030000     11.342000
C          10.474000     -2.928000     10.019000
C           9.430000     -2.568000      9.184000
C           8.953000     -0.871000      7.453000
C           8.480000      2.482000     11.743000
C          11.570000      3.774000      8.866000
C           9.887000     -0.024000      6.906000
C          11.757000      0.992000     13.420000
C          10.949000      2.166000      7.095000
C          13.952000      1.871000     10.700000
C           7.769000      0.137000     11.856000
C          11.062000     -1.814000      7.519000
C          12.255000      3.659000     11.149000
C           7.662000     -0.866000      9.571000
C          13.687000      1.363000     11.957000
C          13.149000      2.026000      7.985000
C          11.059000     -2.152000     12.233000
C          10.747000     -1.112000     13.160000
C          13.890000      0.901000      8.408000
C           8.323000      1.277000     12.497000
C          10.598000      2.890000     12.679000
C           8.461000     -1.016000     12.281000
C           8.863000      3.424000      9.656000
C          12.332000      0.171000      6.966000
C          11.972000      3.026000     12.319000
C          14.263000      0.833000      9.759000
C           7.382000      0.135000     10.484000
C          13.326000     -1.459000      8.490000
C           7.916000     -0.323000      8.307000
C          11.806000     -2.774000      9.580000
C          12.195000      1.549000      7.085000
C          13.411000     -0.236000      7.793000
C           9.287000      3.017000      8.413000
C           8.094000      2.509000     10.361000
C          10.116000     -2.645000     11.340000
C          11.159000     -0.615000      6.845000
C          13.827000     -0.027000     11.816000
C           9.471000     -0.502000     13.142000
C          12.447000     -2.062000     11.891000
C           7.507000      1.354000      9.757000
C           8.368000     -2.024000     10.007000
$end

--------------------------------------------------------------

             Standard Nuclear Orientation (Angstroms)
    I     Atom           X                Y                Z
 ----------------------------------------------------------------
    1      O       1.5244447184    -5.4122745646    -0.2402185485
    2      C       0.5031383556    -6.0227954488    -1.1005827523
    3      H       0.1328436908    -5.2559081525    -1.7900889061
    4      H      -0.3491801575    -6.4120571019    -0.5299247833
    5      H       0.9396575858    -6.8866861851    -1.6165137141
    6      O       2.2127473282    -7.3855354285     0.7563491012
    7      C       2.3397790826    -6.2217713364     0.5742719984
    8      C       3.3612217439    -5.4224238754     1.2543988440
    9      H       3.7807639294    -6.1282544913     1.9818096607
   10      H       2.9050113234    -4.6059748691     1.8282481904
   11      C       4.4150922618    -4.7688623102     0.4081227589
   12      H       5.0843117512    -5.4833244571    -0.0865317829
   13      H       3.9124253835    -4.2866894135    -0.4396562849
   14      C       5.1951664509    -3.8948813461     1.3695058948
   15      H       4.5374904798    -3.3959307910     2.0932597622
   16      H       5.7767381514    -4.6020614685     1.9746849028
   17      C       6.1623922140    -2.9481564963     0.5325020824
   18      C       7.4325819497    -3.6317324085     0.1261979996
   19      C       8.5462105968    -3.8355789239     1.0153430016
   20      H       8.5176291202    -3.5627315506     2.0667284733
   21      C       9.7361134980    -4.4216828567     0.4878562572
   22      H      10.5731455040    -4.5394086958     1.1706798418
   23      C       9.8918879256    -4.6380270246    -0.9112393538
   24      H      10.8170699825    -4.9351368058    -1.3977595894
   25      C       8.7159990395    -4.4933429146    -1.7776583262
   26      H       8.8739065228    -4.6341940238    -2.8426368198
   27      C       7.5197254915    -4.0105598426    -1.2114648048
   28      H       6.7273931302    -3.7096255888    -1.8899734666
   29      C       8.2964026040     2.1316955105     0.6974785785
   30      C       8.0521841898     1.7724509222    -1.6921104431
   31      C       4.6393371479     4.6908340224    -2.1816420038
   32      C       4.0004210032     1.3261586748     3.1811795451
   33      C       2.2118364496     2.2079654398    -2.1629080406
   34      C       8.2992246006     1.2318483659    -0.4329178797
   35      C       1.9255490541     2.1218169799     1.4392578315
   36      C       6.6913256603     4.8785626859    -0.8598636207
   37      C       4.9720781710    -0.7032386649    -2.3199758595
   38      C       3.2507514088     0.3173440654     2.4447329531
   39      C       5.5225844356    -1.8786789934    -0.3474898933
   40      C       3.7809835376    -0.9068693723    -1.6876665132
   41      C       2.2169267295    -0.1042199665     0.4573680395
   42      C       1.6013311483     2.5972252583     0.1888596076
   43      C       7.2106441997    -0.3525668132    -1.5600874548
   44      C       2.6510574643     4.4057415692    -1.1135506252
   45      C       6.2170649837    -1.5091275202     0.9586810285
   46      C       5.2961114462    -0.8995701069     2.0667538338
   47      C       2.6895969514     3.5477637180    -2.2502892560
   48      C       5.0283495462     4.5467095281     2.1996887854
   49      C       4.5057284894     5.5099786830     0.1396196685
   50      C       5.9313883687     5.3312790754     0.1949582522
   51      C       7.7736542374     4.0101782694    -0.7598318448
   52      C       6.0324977821     0.1764507809     2.7077181176
   53      C       6.0847861922    -1.1559978689    -1.5939738190
   54      C       7.7997367560     3.1376430754    -1.8488640010
   55      C       2.2482647397     0.7783138503     1.5977315742
   56      C       7.3392671136     0.7756253901    -2.3876117738
   57      C       2.6883592659    -0.0007902739    -1.8580979314
   58      C       5.9359370725     2.5111527966     3.2825081030
   59      C       6.0585217518     4.5520381918    -2.0637913461
   60      C       4.0085197518    -1.5499970285    -0.4766111515
   61      C       7.2046626944     3.8533786172     1.6642522076
   62      C       1.9225655846     0.4442246595    -0.8128358845
   63      C       5.0660217497     0.3542251280    -3.1836088433
   64      C       2.7371489986     4.2450965551     1.3709103681
   65      C       2.6347879525     3.0878703106     2.0963203455
   66      C       4.0312695077     1.2998460484    -3.3733346257
   67      C       5.4265781289     1.2428424004     3.3419068023
   68      C       3.9240615751    -0.7974135901     1.8614681852
   69      C       4.8535884541     3.4790251647     3.1020266715
   70      C       7.3816562294    -0.5241233280     0.9624188877
   71      C       5.9758874794     2.4674662975    -3.3363901025
   72      C       3.2757853748    -1.0741197641     0.6381821755
   73      C       2.8272917573     1.0889222201    -2.6791396131
   74      C       7.0986281203     2.7379537760     2.4992438800
   75      C       3.9120814208     3.7125527981    -2.9048473367
   76      C       7.9724103398     3.4875294527     0.5600837685
   77      C       3.8815117873     5.1587199139    -1.0956684703
   78      C       6.2303305790     1.1547616379    -3.1637280459
   79      C       4.5480125731     2.6281307925    -3.4836897017
   80      C       7.9104997421    -0.0548947296    -0.3304767236
   81      C       7.2561602411     0.3554891252     2.0067534553
   82      C       3.9670727570     4.9830197408     1.3136921855
   83      C       6.7248425595     3.4831731180    -2.6745155353
   84      C       1.6875171039     1.7772615945    -0.9470213594
   85      C       3.6208905647     2.6612123690     3.0416185202
   86      C       2.1357166439     3.9104131530     0.1079974086
   87      C       7.7613921527     1.6356856726     1.8666659277
   88      C       6.2219184160     4.7832945678     1.4920342990
   89      O      -8.9360234597     7.0938033933     1.6625953166
   90      C      -8.9214981445     8.5223439613     1.7571673038
   91      H      -8.5066991746     8.7432814091     2.7476911342
   92      H      -9.9984814323     8.7191545110     1.8374518314
   93      H      -8.4626366280     9.0867811261     0.9366230967
   94      O      -6.7386875141     6.8309194858     2.0124063986
   95      C      -7.8379223729     6.4005660725     1.7794414552
   96      C      -8.2595950107     4.9056179392     1.8336010820
   97      H      -9.2875943542     4.8780174021     2.2134122984
   98      H      -7.5509110381     4.5576032237     2.5952143598
   99      C      -8.2027593122     4.0598289094     0.5300161708
  100      H      -8.9742737629     4.3858626693    -0.1788508406
  101      H      -7.2234856851     4.3692386242     0.1465454528
  102      C      -8.3888026334     2.5124019427     0.7661065460
  103      H      -7.9899705260     2.1752989123     1.7312358104
  104      H      -9.4548966965     2.3028743789     0.9184241377
  105      C      -7.8329686444     1.6010503905    -0.4036267248
  106      C      -8.5199151470     1.8789170497    -1.7471607297
  107      C      -7.9774611614     2.9164371265    -2.5895648866
  108      H      -7.0339017534     3.4043675758    -2.3628480581
  109      C      -8.6046538090     3.2438718745    -3.7644439734
  110      H      -8.1510665803     3.9466177959    -4.4571919765
  111      C      -9.7015821535     2.5027620528    -4.1172051381
  112      H     -10.1494626531     2.7503434950    -5.0752534081
  113      C     -10.2018034723     1.4922558996    -3.3204479941
  114      H     -10.9876851289     0.9040482851    -3.7859915732
  115      C      -9.6169117821     1.1423814110    -2.1309714063
  116      H     -10.0694065073     0.3980163985    -1.4824575268
  117      C      -6.1268791526    -3.3822099883    -2.0062881500
  118      C      -4.5993321183    -1.8941697616    -3.1336085756
  119      C      -0.8658251640    -2.8898676218    -0.8154229503
  120      C      -6.0928148086    -2.4063133261     2.9432454973
  121      C      -1.2397193592    -0.0285593854     1.2534881902
  122      C      -5.8446422992    -2.1631643038    -2.6156418877
  123      C      -3.4392428159    -1.5394376001     3.6161074113
  124      C      -2.6762755073    -4.2958889051    -1.6871842165
  125      C      -4.0970821759     1.4880844769    -1.0443083910
  126      C      -5.8073911189    -1.0258752169     3.0975437283
  127      C      -6.3124747928     1.2557466042    -0.3426698331
  128      C      -4.0784824491     1.7881295026     0.3359770986
  129      C      -4.3347430036     0.5738669727     2.7904517953
  130      C      -2.1743900247    -1.2306375185     3.1094369796
  131      C      -5.4869908983     0.0497979808    -2.3996942028
  132      C      -0.9702236644    -2.4333063078     1.3887187692
  133      C      -7.2964607888     0.2166808065    -0.1576324646
  134      C      -7.3244739749    -0.4664425909     1.1798501279
  135      C      -0.7005045191    -1.2279340956     0.7259764266
  136      C      -4.1171642465    -4.9329725069     1.5045974373
  137      C      -2.0178248905    -4.4699272338     0.6576497745
  138      C      -2.7933133899    -4.9403731332    -0.3883230946
  139      C      -3.8327013167    -4.0671325049    -2.4524990907
  140      C      -7.4302288469    -1.8643481549     1.0225512365
  141      C      -5.3921960957     1.1360123366    -1.4951366763
  142      C      -3.5971155125    -2.8214797852    -2.9833687836
  143      C      -4.5281618818    -0.6687412104     3.4555924126
  144      C      -4.3381293139    -0.4957537354    -3.0228895050
  145      C      -2.8901479350     1.4207091694     1.0183453138
  146      C      -6.4112033812    -4.0561991467     1.4405121557
  147      C      -1.7288669509    -3.3065230124    -1.8721197657
  148      C      -5.3859312334     1.5679207546     0.8517665748
  149      C      -5.2674950464    -4.9056738797    -0.6110742848
  150      C      -3.0481649668     0.8946904371     2.2858913330
  151      C      -2.9014184058     0.9283123574    -1.7740510327
  152      C      -2.6550012266    -3.4594560638     2.7598275338
  153      C      -3.7898522421    -2.8976626069     3.4192016947
  154      C      -1.7346363227     0.6259572186    -1.0386355443
  155      C      -6.9281928105    -2.8337893688     1.9463117850
  156      C      -6.4253292058    -0.0967076605     2.2032746563
  157      C      -5.2611520952    -4.4124806193     2.1749122864
  158      C      -7.2734872881    -0.9583153011    -1.1091519679
  159      C      -2.0061037208    -1.0024023576    -2.5599437124
  160      C      -5.4528662544     0.9368287633     2.0546467024
  161      C      -1.7539210378     0.8594033977     0.3448690568
  162      C      -6.3504417830    -4.3506139296     0.0470327107
  163      C      -0.5938554783    -1.4766749285    -0.6239343039
  164      C      -5.1387263109    -4.3618622062    -1.8935517608
  165      C      -1.0678320810    -3.4536731866     0.4222726870
  166      C      -3.0436545893    -0.0909519761    -2.7166612843
  167      C      -1.1727521463    -0.5423351927    -1.5074788165
  168      C      -6.4009097456    -0.9889954121    -2.1712918660
  169      C      -7.3855036146    -2.1371720805    -0.3857156981
  170      C      -2.7805554266    -4.4826844781     1.8287062983
  171      C      -2.2889760783    -2.3809616898    -2.7270466653
  172      C      -1.9951935740    -0.0238815686     2.4239410208
  173      C      -5.0941643717    -3.3286879334     3.0821749354
  174      C      -1.6465642045    -2.4494404099     2.6392823080
  175      C      -6.8910121350    -3.3923727297    -0.8583249520
  176      C      -4.1068824233    -5.2557761615     0.1371921994
 ----------------------------------------------------------------

    9   -5804.2662768389      8.52E-06 Convergence criterion met
 Total energy in the final basis set = -5804.2662768389

                    Orbital Energies (a.u.)
 --------------------------------------------------------------

 Alpha MOs
 -- Occupied --
-19.198 -19.178 -19.136 -19.133 -10.312 -10.307 -10.250 -10.246
-10.242 -10.240 -10.240 -10.239 -10.238 -10.235 -10.232 -10.231
-10.230 -10.230 -10.229 -10.227 -10.227 -10.226 -10.226 -10.225
-10.225 -10.224 -10.224 -10.224 -10.223 -10.222 -10.221 -10.221
-10.221 -10.221 -10.220 -10.220 -10.220 -10.220 -10.220 -10.220
-10.219 -10.219 -10.219 -10.219 -10.219 -10.219 -10.218 -10.218
-10.218 -10.218 -10.218 -10.218 -10.217 -10.217 -10.217 -10.217
-10.217 -10.217 -10.216 -10.216 -10.216 -10.216 -10.216 -10.216
-10.216 -10.216 -10.216 -10.215 -10.215 -10.215 -10.215 -10.215
-10.215 -10.214 -10.214 -10.214 -10.214 -10.214 -10.214 -10.214
-10.214 -10.214 -10.214 -10.213 -10.213 -10.213 -10.213 -10.213
-10.213 -10.213 -10.213 -10.213 -10.213 -10.213 -10.213 -10.213
-10.212 -10.212 -10.212 -10.212 -10.212 -10.212 -10.212 -10.212
-10.212 -10.211 -10.211 -10.211 -10.210 -10.210 -10.210 -10.210
-10.209 -10.209 -10.209 -10.209 -10.209 -10.209 -10.209 -10.208
-10.207 -10.207 -10.207 -10.207 -10.207 -10.207 -10.207 -10.207
-10.207 -10.206 -10.206 -10.205 -10.205 -10.205 -10.205 -10.204
-10.203 -10.203 -10.203 -10.199 -10.199 -10.198 -10.198 -10.195
-10.193 -10.192 -10.191 -10.190  -1.117  -1.082  -1.020  -1.009
 -0.983  -0.980  -0.966  -0.965  -0.964  -0.959  -0.958  -0.955
 -0.935  -0.929  -0.928  -0.926  -0.926  -0.922  -0.921  -0.918
 -0.917  -0.915  -0.898  -0.893  -0.893  -0.888  -0.883  -0.879
 -0.873  -0.872  -0.859  -0.845  -0.841  -0.839  -0.838  -0.836
 -0.836  -0.833  -0.823  -0.821  -0.813  -0.801  -0.797  -0.796
 -0.795  -0.794  -0.793  -0.790  -0.790  -0.786  -0.783  -0.782
 -0.770  -0.769  -0.769  -0.768  -0.766  -0.766  -0.761  -0.760
 -0.759  -0.749  -0.747  -0.736  -0.735  -0.730  -0.715  -0.713
 -0.713  -0.713  -0.712  -0.711  -0.710  -0.710  -0.709  -0.708
 -0.708  -0.706  -0.704  -0.701  -0.701  -0.693  -0.669  -0.668
 -0.659  -0.657  -0.656  -0.655  -0.646  -0.645  -0.631  -0.630
 -0.628  -0.625  -0.624  -0.624  -0.622  -0.621  -0.617  -0.616
 -0.615  -0.615  -0.612  -0.611  -0.611  -0.609  -0.607  -0.607
 -0.605  -0.604  -0.603  -0.599  -0.568  -0.566  -0.566  -0.560
 -0.560  -0.560  -0.557  -0.556  -0.555  -0.555  -0.553  -0.550
 -0.537  -0.535  -0.534  -0.533  -0.529  -0.527  -0.524  -0.523
 -0.522  -0.520  -0.518  -0.516  -0.516  -0.516  -0.513  -0.511
 -0.508  -0.506  -0.499  -0.498  -0.493  -0.489  -0.489  -0.486
 -0.484  -0.483  -0.482  -0.480  -0.479  -0.478  -0.475  -0.474
 -0.473  -0.471  -0.470  -0.467  -0.467  -0.467  -0.465  -0.464
 -0.464  -0.463  -0.462  -0.461  -0.460  -0.459  -0.458  -0.456
 -0.456  -0.454  -0.451  -0.450  -0.449  -0.447  -0.445  -0.444
 -0.443  -0.441  -0.440  -0.439  -0.439  -0.434  -0.434  -0.433
 -0.430  -0.427  -0.427  -0.426  -0.425  -0.425  -0.424  -0.422
 -0.422  -0.421  -0.421  -0.420  -0.419  -0.418  -0.417  -0.417
 -0.416  -0.416  -0.415  -0.414  -0.413  -0.413  -0.412  -0.411
 -0.410  -0.409  -0.408  -0.406  -0.402  -0.398  -0.397  -0.396
 -0.392  -0.392  -0.391  -0.389  -0.389  -0.387  -0.386  -0.383
 -0.383  -0.381  -0.377  -0.373  -0.370  -0.367  -0.366  -0.365
 -0.363  -0.362  -0.361  -0.361  -0.360  -0.358  -0.358  -0.357
 -0.356  -0.356  -0.355  -0.353  -0.353  -0.351  -0.350  -0.349
 -0.349  -0.348  -0.347  -0.346  -0.346  -0.344  -0.343  -0.341
 -0.341  -0.340  -0.339  -0.338  -0.337  -0.334  -0.334  -0.333
 -0.332  -0.330  -0.329  -0.328  -0.327  -0.326  -0.325  -0.323
 -0.314  -0.306  -0.305  -0.292  -0.292  -0.287  -0.272  -0.270
 -0.269  -0.269  -0.268  -0.267  -0.267  -0.266  -0.265  -0.264
 -0.263  -0.261  -0.259  -0.258  -0.256  -0.256  -0.255  -0.254
 -0.249  -0.249  -0.245  -0.243  -0.222  -0.219  -0.213  -0.211
 -0.209  -0.207  -0.206  -0.204  -0.202  -0.198

          Ground-State Mulliken Net Atomic Charges

     Atom                 Charge (a.u.)
  ----------------------------------------
      1 O                    -0.500769
      2 C                    -0.088662
      3 H                     0.124090
      4 H                     0.126994
      5 H                     0.121516
      6 O                    -0.443194
      7 C                     0.590517
      8 C                    -0.250954
      9 H                     0.128199
     10 H                     0.129240
     11 C                    -0.181726
     12 H                     0.115939
     13 H                     0.124138
     14 C                    -0.196935
     15 H                     0.111349
     16 H                     0.119194
     17 C                     0.002604
     18 C                     0.095265
     19 C                    -0.109205
     20 H                     0.096857
     21 C                    -0.092555
     22 H                     0.092968
     23 C                    -0.086796
     24 H                     0.095521
     25 C                    -0.101182
     26 H                     0.097221
     27 C                    -0.106832
     28 H                     0.095446
     29 C                    -0.006650
     30 C                     0.008003
     31 C                     0.011179
     32 C                    -0.012496
     33 C                     0.006851
     34 C                     0.015688
     35 C                     0.021400
     36 C                     0.027458
     37 C                     0.024908
     38 C                    -0.025623
     39 C                    -0.086535
     40 C                     0.027261
     41 C                    -0.023260
     42 C                    -0.003183
     43 C                     0.000959
     44 C                    -0.000839
     45 C                    -0.095553
     46 C                     0.021348
     47 C                    -0.019521
     48 C                     0.026075
     49 C                    -0.009736
     50 C                     0.001822
     51 C                    -0.018910
     52 C                     0.011466
     53 C                     0.029188
     54 C                     0.000711
     55 C                     0.012368
     56 C                    -0.017345
     57 C                     0.015887
     58 C                    -0.018825
     59 C                    -0.009402
     60 C                     0.011669
     61 C                     0.031899
     62 C                    -0.004330
     63 C                    -0.015120
     64 C                    -0.015677
     65 C                     0.029995
     66 C                    -0.025928
     67 C                     0.012854
     68 C                     0.001850
     69 C                    -0.033667
     70 C                     0.013595
     71 C                     0.009086
     72 C                    -0.002292
     73 C                    -0.015746
     74 C                    -0.000757
     75 C                     0.012730
     76 C                    -0.017390
     77 C                    -0.009765
     78 C                     0.004199
     79 C                    -0.003339
     80 C                    -0.009107
     81 C                     0.031661
     82 C                     0.003557
     83 C                    -0.005869
     84 C                     0.019083
     85 C                    -0.012389
     86 C                    -0.022697
     87 C                    -0.008857
     88 C                    -0.021574
     89 O                    -0.423776
     90 C                    -0.092149
     91 H                     0.132979
     92 H                     0.124721
     93 H                     0.135036
     94 O                    -0.469816
     95 C                     0.564969
     96 C                    -0.255831
     97 H                     0.118275
     98 H                     0.127946
     99 C                    -0.186288
    100 H                     0.121269
    101 H                     0.116264
    102 C                    -0.184686
    103 H                     0.108584
    104 H                     0.109365
    105 C                     0.000262
    106 C                     0.063176
    107 C                    -0.098224
    108 H                     0.095641
    109 C                    -0.083001
    110 H                     0.093964
    111 C                    -0.077444
    112 H                     0.084184
    113 C                    -0.093828
    114 H                     0.087955
    115 C                    -0.093292
    116 H                     0.097726
    117 C                    -0.001073
    118 C                    -0.014103
    119 C                    -0.024449
    120 C                     0.003664
    121 C                     0.002460
    122 C                     0.023686
    123 C                    -0.008764
    124 C                     0.001722
    125 C                    -0.006522
    126 C                    -0.002687
    127 C                    -0.074304
    128 C                    -0.008304
    129 C                    -0.016731
    130 C                     0.017252
    131 C                     0.003876
    132 C                    -0.019886
    133 C                    -0.094257
    134 C                     0.021833
    135 C                     0.029653
    136 C                     0.012861
    137 C                     0.004969
    138 C                    -0.022193
    139 C                    -0.018276
    140 C                     0.001200
    141 C                     0.022785
    142 C                     0.027830
    143 C                     0.019510
    144 C                    -0.017044
    145 C                    -0.012406
    146 C                    -0.012655
    147 C                     0.008131
    148 C                     0.046902
    149 C                     0.019644
    150 C                    -0.008234
    151 C                    -0.016180
    152 C                    -0.009813
    153 C                     0.003706
    154 C                     0.002896
    155 C                    -0.007142
    156 C                    -0.002456
    157 C                    -0.014095
    158 C                     0.028495
    159 C                     0.000465
    160 C                     0.000023
    161 C                     0.023479
    162 C                     0.007939
    163 C                    -0.013870
    164 C                    -0.015451
    165 C                     0.052969
    166 C                     0.005180
    167 C                     0.008701
    168 C                     0.016913
    169 C                     0.010596
    170 C                     0.001565
    171 C                    -0.018333
    172 C                    -0.000335
    173 C                     0.006012
    174 C                    -0.028169
    175 C                    -0.024308
    176 C                    -0.029477
  ----------------------------------------
  Sum of atomic charges =     0.000000

                    Cartesian Multipole Moments
 -----------------------------------------------------------------
    Charge (ESU x 10^10)
                 0.0000
    Dipole Moment (Debye)
         X      -3.1875      Y       2.1567      Z      -1.6683
       Tot       4.1947
    Quadrupole Moments (Debye-Ang)
        XX    -728.7925     XY     -45.0631     YY    -819.9215
        XZ       7.2999     YZ       2.5246     ZZ    -800.9028

 Total job time:  863.78s(wall), 8242.38s(cpu)
        *  Thank you very much for using Q-Chem.  Have a nice day.  *
