 Q-Chem 4.4, Q-Chem, Inc., Pleasanton, CA (2016)
 Q-Chem 4.4.2 for Intel X86 Linux

User input:
--------------------------------------------------------------
$comment
SP
$end

$rem
MEM_STATIC 5000
MEM_TOTAL 20000
JOBTYPE SP
EXCHANGE B3LYP
BASIS 6-31g(d,p)
$end

$molecule
0 1
O         -11.400000    -12.884000    -10.418000
C         -10.943000    -13.055000     -9.148000
H         -11.262000    -12.220000     -8.514000
H          -9.846000    -13.026000     -9.122000
H         -11.284000    -14.011000     -8.730000
O         -10.903000    -10.697000    -10.744000
C         -11.487000    -11.661000    -11.063000
C         -12.383000    -11.749000    -12.362000
H         -12.168000    -12.722000    -12.820000
H         -12.061000    -10.956000    -13.048000
C         -13.881000    -11.654000    -12.032000
H         -14.515000    -11.951000    -12.878000
H         -14.025000    -12.064000    -11.025000
C         -14.191000    -10.135000    -11.864000
H         -13.436000     -9.560000    -11.312000
H         -14.035000     -9.679000    -12.850000
C         -15.686000     -9.989000    -11.487000
C         -16.766000    -10.369000    -12.480000
C         -17.390000     -9.304000    -13.147000
H         -17.151000     -8.286000    -12.857000
C         -18.425000     -9.595000    -14.084000
H         -19.026000     -8.827000    -14.562000
C         -18.752000    -10.902000    -14.430000
H         -19.530000    -11.097000    -15.161000
C         -18.163000    -11.960000    -13.704000
H         -18.463000    -12.992000    -13.860000
C         -17.203000    -11.707000    -12.760000
H         -16.686000    -12.508000    -12.239000
C         -19.130000     -6.724000     -8.595000
C         -20.069000     -8.917000     -8.306000
C         -18.877000     -9.215000     -3.949000
C         -14.258000     -6.599000     -7.338000
C         -16.028000    -11.231000     -4.570000
C         -19.395000     -8.025000     -9.129000
C         -13.872000     -8.378000     -5.233000
C         -19.830000     -7.331000     -5.115000
C         -17.166000    -11.722000     -8.476000
C         -13.788000     -7.905000     -7.563000
C         -16.034000    -10.292000    -10.032000
C         -15.858000    -11.599000     -8.084000
C         -13.792000    -10.040000     -6.976000
C         -14.564000     -9.278000     -4.400000
C         -18.471000    -10.051000     -9.602000
C         -16.736000     -9.213000     -3.383000
C         -15.963000     -8.881000    -10.447000
C         -15.021000     -8.052000     -9.661000
C         -16.994000    -10.548000     -3.803000
C         -16.814000     -5.520000     -5.111000
C         -17.840000     -7.006000     -3.773000
C         -18.811000     -6.501000     -4.657000
C         -20.203000     -7.268000     -6.456000
C         -15.667000     -6.892000     -9.289000
C         -17.359000    -10.899000     -9.588000
C         -20.435000     -8.561000     -6.991000
C         -13.525000     -8.786000     -6.531000
C         -19.503000    -10.132000     -8.559000
C         -15.461000    -11.663000     -6.709000
C         -16.190000     -5.442000     -7.407000
C         -19.887000     -8.715000     -4.759000
C         -15.102000    -10.779000     -8.918000
C         -18.503000     -5.561000     -6.813000
C         -14.545000    -10.862000     -6.174000
C         -18.171000    -11.859000     -7.479000
C         -15.462000     -7.260000     -4.056000
C         -14.494000     -7.126000     -5.011000
C         -17.808000    -12.008000     -6.097000
C         -15.253000     -6.129000     -8.185000
C         -14.086000     -8.614000     -8.737000
C         -15.823000     -5.453000     -6.102000
C         -17.279000     -8.120000    -10.268000
C         -19.664000    -10.714000     -6.171000
C         -14.079000     -9.962000     -8.396000
C         -16.418000    -11.933000     -5.734000
C         -17.534000     -5.413000     -7.768000
C         -18.333000    -10.521000     -4.193000
C         -19.526000     -6.346000     -7.285000
C         -17.925000     -8.409000     -3.391000
C         -19.295000    -11.032000     -7.466000
C         -18.727000    -11.254000     -5.348000
C         -18.524000     -8.683000     -9.938000
C         -16.996000     -6.898000     -9.643000
C         -16.614000     -6.446000     -4.090000
C         -20.213000     -9.420000     -5.927000
C         -14.823000    -10.591000     -4.834000
C         -14.666000     -6.182000     -6.063000
C         -15.528000     -8.602000     -3.688000
C         -17.908000     -6.159000     -8.889000
C         -18.162000     -5.571000     -5.483000
O         -17.394000    -12.805000     -1.380000
C         -18.712000    -13.379000     -1.811000
H         -18.690000    -13.599000     -2.886000
H         -19.573000    -12.743000     -1.571000
H         -18.849000    -14.312000     -1.251000
O         -16.179000    -14.449000     -2.348000
C         -16.236000    -13.415000     -1.743000
C         -14.968000    -12.604000     -1.386000
H         -15.148000    -11.589000     -1.759000
H         -14.149000    -13.184000     -1.828000
C         -14.650000    -12.445000      0.090000
H         -15.248000    -11.630000      0.516000
H         -14.802000    -13.334000      0.714000
C         -13.150000    -11.996000      0.264000
H         -12.973000    -10.967000     -0.074000
H         -12.940000    -11.958000      1.340000
C         -12.023000    -13.022000     -0.191000
C         -11.994000    -14.359000      0.374000
C         -11.339000    -14.537000      1.579000
H         -11.084000    -13.626000      2.114000
C         -11.239000    -15.757000      2.229000
H         -10.730000    -15.976000      3.163000
C         -11.884000    -16.886000      1.662000
H         -11.752000    -17.828000      2.186000
C         -12.561000    -16.769000      0.433000
H         -12.987000    -17.616000     -0.098000
C         -12.701000    -15.473000     -0.133000
H         -13.312000    -15.296000     -1.012000
C          -6.514000    -13.328000     -0.824000
C          -7.412000    -14.901000     -2.477000
C          -6.481000    -12.575000     -6.247000
C          -8.670000     -8.744000     -1.609000
C          -9.717000    -11.378000     -6.441000
C          -7.454000    -14.277000     -1.279000
C          -9.281000     -8.441000     -4.417000
C          -5.222000    -12.893000     -4.185000
C         -11.041000    -13.860000     -3.657000
C          -9.939000     -9.041000     -2.088000
C         -11.474000    -12.907000     -1.580000
C         -11.700000    -12.630000     -3.884000
C         -11.213000     -9.808000     -3.713000
C          -9.218000     -9.129000     -5.653000
C          -9.638000    -14.655000     -1.920000
C          -7.444000    -10.519000     -6.582000
C         -10.651000    -12.340000     -0.422000
C         -10.263000    -10.873000     -0.439000
C          -8.409000    -11.527000     -6.896000
C          -5.544000     -9.564000     -3.122000
C          -5.525000    -10.674000     -5.102000
C          -4.963000    -11.516000     -4.061000
C          -5.408000    -13.674000     -3.012000
C          -8.896000    -10.653000     -0.139000
C         -10.850000    -14.032000     -2.342000
C          -6.369000    -14.572000     -3.387000
C         -10.255000     -8.829000     -3.456000
C          -8.764000    -15.164000     -2.918000
C         -11.345000    -11.900000     -5.039000
C          -6.694000     -9.784000     -0.918000
C          -5.900000    -13.437000     -5.296000
C         -11.837000    -11.922000     -2.663000
C          -5.227000    -11.589000     -1.647000
C         -11.126000    -10.503000     -4.945000
C         -10.149000    -14.448000     -4.625000
C          -7.080000     -8.821000     -4.865000
C          -7.948000     -8.324000     -3.869000
C          -9.877000    -13.718000     -5.802000
C          -8.062000     -9.604000     -0.675000
C         -10.744000    -10.012000     -1.501000
C          -6.435000     -9.096000     -2.147000
C          -9.314000    -12.958000     -0.226000
C          -7.971000    -14.793000     -5.220000
C         -11.590000    -10.488000     -2.560000
C         -10.479000    -12.440000     -6.000000
C          -6.125000    -11.075000     -0.682000
C          -7.792000    -12.763000     -6.716000
C          -5.488000    -12.989000     -1.744000
C          -6.290000    -11.204000     -6.150000
C          -8.975000    -15.134000     -4.265000
C          -8.531000    -13.874000     -6.172000
C          -8.799000    -14.035000     -0.980000
C          -8.343000    -11.958000      0.041000
C          -5.902000     -9.519000     -4.456000
C          -6.667000    -14.484000     -4.786000
C         -10.158000    -10.187000     -5.900000
C          -7.674000     -8.471000     -2.491000
C          -7.850000     -9.313000     -5.925000
C          -6.953000    -12.162000     -0.269000
C          -4.961000    -10.868000     -2.831000
$end

--------------------------------------------------------------

             Standard Nuclear Orientation (Angstroms)
    I     Atom           X                Y                Z
 ----------------------------------------------------------------
    1      O       0.7641661327    -4.9686581811    -2.8444312193
    2      C      -0.3240274979    -4.1820341550    -2.6252343585
    3      H      -0.1567385867    -3.5361093785    -1.7559026593
    4      H      -1.1976334460    -4.7914659098    -2.3600333333
    5      H      -0.5642401557    -3.5824488356    -3.5127794694
    6      O       1.2029294031    -5.6632594423    -0.7322593796
    7      C       1.5443186127    -5.5258563834    -1.8443235895
    8      C       2.9174455042    -6.0675574079    -2.4091629827
    9      H       2.6973903476    -6.5010623280    -3.3922027643
   10      H       3.2659909376    -6.8644648795    -1.7408939033
   11      C       3.9567327475    -4.9456352099    -2.5611551123
   12      H       4.8187344844    -5.2537833231    -3.1676851991
   13      H       3.4121008629    -4.0136796469    -2.7553713290
   14      C       4.5706310405    -4.7303684460    -1.1439486679
   15      H       3.8528254442    -4.7499506922    -0.3134514304
   16      H       5.1084648630    -5.6550664662    -0.8987215266
   17      C       5.5979367933    -3.5751211657    -1.2362341582
   18      C       6.8661513985    -3.7422621542    -2.0489731110
   19      C       8.0355423094    -3.9992742609    -1.3175637355
   20      H       7.9989824047    -3.9661635507    -0.2335378805
   21      C       9.2651912005    -4.1523046240    -2.0235526252
   22      H      10.2264454334    -4.2486411931    -1.5273484684
   23      C       9.3140936727    -4.1617606228    -3.4136652582
   24      H      10.2597332648    -4.3001302519    -3.9277563082
   25      C       8.1431717094    -3.8369551244    -4.1325561707
   26      H       8.1526044991    -3.7247319840    -5.2126843988
   27      C       6.9577322008    -3.6327268052    -3.4769885044
   28      H       6.0301901921    -3.4509566657    -4.0126716555
   29      C       7.7717963934     0.5469116247     1.7916702514
   30      C       7.7008310563     1.4650253161    -0.4279067737
   31      C       4.3520966556     4.3601853540     0.5192696980
   32      C       3.2842136983    -1.2270405680     3.2223180671
   33      C       1.8189400469     2.3522293796    -0.9360407159
   34      C       7.8733176884     0.3479657650     0.3781300250
   35      C       1.3239851338     0.3877899987     2.0844743979
   36      C       6.2939179993     3.8304363686     1.8481477517
   37      C       4.6475161176    -0.1537469004    -2.5210332382
   38      C       2.6381116639    -1.5945442171     2.0287292648
   39      C       5.0090061100    -2.1673280605    -1.2711228825
   40      C       3.4406981454    -0.5913317564    -2.0396115147
   41      C       1.6860061637    -0.9727395198     0.1288176787
   42      C       1.1580252285     1.5238594307     1.2692710150
   43      C       6.7825869209    -0.4350962638    -1.4601575617
   44      C       2.3568458599     3.5952121875     1.1006743048
   45      C       5.5985008097    -2.6395531806    -0.0071266662
   46      C       4.6848400413    -2.5918463099     1.1570679287
   47      C       2.3820030248     3.4876004378    -0.3181194886
   48      C       4.4496544009     1.9862324980     4.2089943929
   49      C       4.1032053005     3.7646670438     2.8792351714
   50      C       5.4938856181     3.5660307721     2.9558764502
   51      C       7.3207892026     2.9447571044     1.5280121980
   52      C       5.3481795855    -1.9938172847     2.2076115661
   53      C       5.6392081218    -1.0054001391    -2.0287368541
   54      C       7.3991254468     2.7255550949     0.1288296110
   55      C       1.6160307215    -0.8445528832     1.4780773363
   56      C       7.0210230288     1.0136576506    -1.5209384641
   57      C       2.3764573748     0.3084284993    -1.7077183628
   58      C       5.1991509582    -0.2519314128     3.8992312271
   59      C       5.7328261952     4.2446744065     0.5995389918
   60      C       3.5324115974    -1.7596531908    -1.2872115754
   61      C       6.6789302828     1.5667981630     3.4307849860
   62      C       1.6083187787     0.1678557587    -0.6320397855
   63      C       4.8721437196     1.2456316433    -2.6397140364
   64      C       2.2943074012     2.1871756615     3.0764617637
   65      C       2.0757521710     0.8435070739     3.1939068064
   66      C       3.8054884727     2.1761729034    -2.3942887980
   67      C       4.6636879345    -1.3794030685     3.2689066950
   68      C       3.2842308623    -2.3361647182     1.0275849127
   69      C       4.2118291420     0.6043708395     4.2594770930
   70      C       6.7746213695    -1.7889721754     0.4789498531
   71      C       5.7041943274     3.0946506105    -1.5721192421
   72      C       2.6912870263    -1.9732230458    -0.1766264266
   73      C       2.5346941446     1.6710493416    -1.9477174564
   74      C       6.4638020524     0.2216380717     3.5617589271
   75      C       3.6575026047     3.9347478507    -0.6629528002
   76      C       7.5031290172     1.8191093413     2.3618726812
   77      C       3.5447408492     4.2174371217     1.6124776124
   78      C       6.0043481245     1.8462448515    -2.0875809370
   79      C       4.3622997942     3.2652452116    -1.7029418087
   80      C       7.4153202824    -0.7689000276    -0.2455166516
   81      C       6.5866882744    -1.5208318476     1.8415869714
   82      C       3.4697374162     2.7663003919     3.5997540593
   83      C       6.3991309789     3.5237411032    -0.4023682432
   84      C       1.1980427809     1.4039424482    -0.1319514915
   85      C       3.0553973300     0.0208886980     3.8192214234
   86      C       1.7466208940     2.6136189069     1.8686001622
   87      C       7.1307805441    -0.4307037556     2.5212672971
   88      C       5.6992104887     2.4583574031     3.7921051301
   89      O       0.7310589841     5.8440412501    -2.0052912265
   90      C       1.8306144108     6.2850857997    -2.9266047285
   91      H       2.3181279651     5.4088390151    -3.3727337533
   92      H       2.5764163123     6.9328995444    -2.4495996176
   93      H       1.3603644077     6.8822225951    -3.7172693743
   94      O      -0.2119248165     4.4648099005    -3.5299182090
   95      C      -0.1766933971     4.9238234893    -2.4224457388
   96      C      -1.1259235765     4.4354475471    -1.3028721568
   97      H      -0.4793518477     4.1673695322    -0.4591700901
   98      H      -1.7142604993     3.6430384551    -1.7808601232
   99      C      -2.1140879044     5.4483579568    -0.7528496452
  100      H      -1.6214071808     6.0856128590    -0.0082175922
  101      H      -2.5932109442     6.1034817725    -1.4904504172
  102      C      -3.2588427745     4.7012765289     0.0302739896
  103      H      -2.9092983834     4.2562470781     0.9705832508
  104      H      -3.9854128263     5.4573032439     0.3525154611
  105      C      -4.2185217507     3.7509683796    -0.8098216501
  106      C      -4.9445965081     4.2835436583    -1.9485990732
  107      C      -6.1571230225     4.9040468872    -1.7088300285
  108      H      -6.3687801699     5.1351234244    -0.6681687551
  109      C      -6.9493208584     5.4576811428    -2.7022139924
  110      H      -7.9146073979     5.9432016403    -2.5931738923
  111      C      -6.4775763017     5.4383024912    -4.0398374599
  112      H      -7.1443845918     5.8524420920    -4.7903167037
  113      C      -5.2532603636     4.8148069179    -4.3476730556
  114      H      -4.8890570578     4.6808114227    -5.3626839715
  115      C      -4.4511269328     4.3477260085    -3.2715739044
  116      H      -3.4469655263     3.9683481727    -3.4297615384
  117      C      -8.3360188378     0.0964129371    -0.0791724486
  118      C      -7.2206892581    -0.6358825293    -2.1365798653
  119      C      -5.2536026901    -4.4014418741    -0.5741873874
  120      C      -4.8305856632     0.3902826138     3.6495265030
  121      C      -2.2277728937    -2.7836449818    -0.1628137632
  122      C      -7.6359865480     0.3257944429    -1.2827358736
  123      C      -2.7634371475    -1.5729818566     3.1778447953
  124      C      -7.4419087836    -3.4179454176    -0.1474554330
  125      C      -3.4067840588     0.4120305123    -2.1781417288
  126      C      -3.6608485524     0.7458652126     2.9912810267
  127      C      -3.8804511729     2.2942095043    -0.8964753498
  128      C      -2.3937659239     0.5236513837    -1.1983228479
  129      C      -2.0198281445     0.1990820941     1.6274371053
  130      C      -2.3638596642    -2.5735359624     2.2590203746
  131      C      -5.6801413979     1.0788171637    -2.2477475476
  132      C      -3.6936048809    -4.2579745523     1.1028796843
  133      C      -4.9765172318     2.7311618540     0.0769176019
  134      C      -4.8326128334     2.3986581717     1.5505711655
  135      C      -3.0664818444    -3.8952238406    -0.1304141243
  136      C      -6.7486669145    -2.5834854822     3.1900565635
  137      C      -6.0460763484    -4.1388436814     1.6933640872
  138      C      -7.2979150767    -3.5554368540     1.2450056678
  139      C      -8.1532922501    -2.3019908440    -0.6661701460
  140      C      -6.0080268469     1.8457473048     2.1160625183
  141      C      -4.3085903321     1.3879394464    -2.0059871535
  142      C      -7.4637752130    -1.9985735512    -1.8076841415
  143      C      -2.6198596015    -0.2043121955     2.8188603289
  144      C      -5.9951851483    -0.2039184536    -2.7714819950
  145      C      -1.8411179667    -0.6711208685    -0.6883723593
  146      C      -7.0756165660    -0.1096663843     3.2329400837
  147      C      -6.4786874977    -3.9011260256    -1.0577752967
  148      C      -2.7207579500     1.5530559829    -0.2794777109
  149      C      -8.3936301661    -1.4275585077     1.6620946103
  150      C      -1.6434870658    -0.8115016725     0.7079231885
  151      C      -3.7758258558    -0.8513358931    -2.7664830226
  152      C      -4.3824906691    -3.1755305332     3.1807488612
  153      C      -4.0747506146    -1.8970804013     3.6938865808
  154      C      -3.1457740086    -2.0165048758    -2.2790110628
  155      C      -6.0674111943     0.8611059792     3.1697265820
  156      C      -3.6280200729     1.7504253803     2.0293994537
  157      C      -6.4202970107    -1.3071031538     3.6660306785
  158      C      -6.3254376997     2.1654669695    -0.1844477917
  159      C      -5.2880109019    -2.5630682164    -2.7681681006
  160      C      -2.5389283746     1.4015506846     1.1599520895
  161      C      -2.1788301449    -1.9170158012    -1.2349739521
  162      C      -8.0405428697    -0.1583494557     2.1781011448
  163      C      -4.0230807681    -4.0207679900    -1.1353729124
  164      C      -8.5573182542    -1.2653582385     0.2533975944
  165      C      -5.0432322226    -4.5216180428     0.7921335686
  166      C      -5.1033303015    -1.1851873083    -3.0901297113
  167      C      -4.0618448133    -3.0799763570    -2.2261462399
  168      C      -6.6570649294     1.3250582256    -1.2695314399
  169      C      -6.9347472950     1.7614120546     1.0319450078
  170      C      -5.7428153718    -3.4708639143     2.8575401095
  171      C      -6.4579307619    -2.9762552136    -2.1012220558
  172      C      -1.8071987937    -2.1671086104     0.9984972758
  173      C      -5.0682136230    -0.9189255134     3.9215118565
  174      C      -3.3578605704    -3.5677333614     2.3119139503
  175      C      -7.9320008703     0.7248781583     1.0619248074
  176      C      -7.7578203624    -2.5944157702     2.1381650067
 ----------------------------------------------------------------

    9   -5804.2308843307      7.98E-06 Convergence criterion met
 Total energy in the final basis set = -5804.2308843307

                    Orbital Energies (a.u.)
 --------------------------------------------------------------

 Alpha MOs
 -- Occupied --
-19.190 -19.180 -19.143 -19.133 -10.318 -10.313 -10.250 -10.246
-10.244 -10.242 -10.240 -10.239 -10.235 -10.235 -10.235 -10.231
-10.226 -10.225 -10.224 -10.224 -10.223 -10.223 -10.222 -10.221
-10.221 -10.221 -10.221 -10.221 -10.221 -10.220 -10.220 -10.220
-10.220 -10.220 -10.220 -10.220 -10.220 -10.219 -10.219 -10.219
-10.219 -10.219 -10.218 -10.218 -10.218 -10.218 -10.218 -10.218
-10.218 -10.217 -10.217 -10.217 -10.217 -10.217 -10.217 -10.217
-10.216 -10.216 -10.216 -10.216 -10.216 -10.216 -10.215 -10.215
-10.215 -10.215 -10.215 -10.215 -10.215 -10.214 -10.214 -10.214
-10.214 -10.214 -10.214 -10.213 -10.213 -10.213 -10.213 -10.213
-10.213 -10.213 -10.213 -10.213 -10.213 -10.213 -10.212 -10.212
-10.212 -10.212 -10.212 -10.211 -10.211 -10.211 -10.211 -10.211
-10.211 -10.211 -10.211 -10.211 -10.211 -10.211 -10.211 -10.210
-10.210 -10.210 -10.210 -10.210 -10.210 -10.210 -10.209 -10.209
-10.209 -10.209 -10.209 -10.209 -10.208 -10.208 -10.207 -10.207
-10.206 -10.206 -10.206 -10.205 -10.205 -10.205 -10.205 -10.205
-10.204 -10.204 -10.204 -10.203 -10.203 -10.203 -10.203 -10.203
-10.203 -10.202 -10.202 -10.202 -10.202 -10.201 -10.201 -10.201
-10.200 -10.200 -10.198 -10.196  -1.105  -1.088  -1.035  -1.008
 -0.987  -0.978  -0.969  -0.966  -0.965  -0.961  -0.959  -0.957
 -0.936  -0.932  -0.931  -0.930  -0.928  -0.924  -0.922  -0.921
 -0.918  -0.917  -0.899  -0.897  -0.895  -0.889  -0.886  -0.884
 -0.878  -0.873  -0.856  -0.851  -0.843  -0.842  -0.837  -0.837
 -0.835  -0.833  -0.823  -0.819  -0.807  -0.805  -0.801  -0.798
 -0.797  -0.794  -0.794  -0.792  -0.791  -0.789  -0.785  -0.780
 -0.773  -0.769  -0.768  -0.767  -0.764  -0.763  -0.762  -0.762
 -0.753  -0.749  -0.741  -0.739  -0.733  -0.730  -0.718  -0.717
 -0.714  -0.714  -0.713  -0.711  -0.710  -0.710  -0.708  -0.707
 -0.707  -0.706  -0.704  -0.702  -0.701  -0.698  -0.672  -0.671
 -0.661  -0.660  -0.654  -0.653  -0.647  -0.644  -0.634  -0.630
 -0.630  -0.627  -0.624  -0.622  -0.621  -0.620  -0.617  -0.616
 -0.615  -0.614  -0.613  -0.611  -0.610  -0.609  -0.609  -0.607
 -0.606  -0.605  -0.605  -0.599  -0.568  -0.566  -0.565  -0.564
 -0.559  -0.559  -0.558  -0.557  -0.556  -0.556  -0.554  -0.551
 -0.536  -0.535  -0.534  -0.532  -0.529  -0.526  -0.525  -0.525
 -0.523  -0.522  -0.521  -0.517  -0.516  -0.515  -0.514  -0.512
 -0.508  -0.506  -0.503  -0.500  -0.493  -0.489  -0.487  -0.486
 -0.486  -0.483  -0.482  -0.478  -0.476  -0.476  -0.475  -0.474
 -0.473  -0.473  -0.471  -0.470  -0.469  -0.468  -0.467  -0.466
 -0.464  -0.463  -0.463  -0.462  -0.461  -0.461  -0.459  -0.458
 -0.457  -0.455  -0.453  -0.451  -0.451  -0.445  -0.444  -0.443
 -0.441  -0.440  -0.439  -0.438  -0.437  -0.436  -0.436  -0.432
 -0.431  -0.430  -0.429  -0.427  -0.427  -0.426  -0.425  -0.424
 -0.423  -0.422  -0.420  -0.419  -0.419  -0.418  -0.418  -0.417
 -0.417  -0.417  -0.416  -0.415  -0.414  -0.413  -0.413  -0.412
 -0.410  -0.410  -0.410  -0.409  -0.404  -0.401  -0.401  -0.399
 -0.396  -0.393  -0.392  -0.390  -0.390  -0.388  -0.384  -0.384
 -0.378  -0.377  -0.375  -0.374  -0.373  -0.369  -0.368  -0.367
 -0.366  -0.364  -0.363  -0.362  -0.361  -0.359  -0.358  -0.358
 -0.357  -0.356  -0.355  -0.354  -0.352  -0.352  -0.352  -0.350
 -0.350  -0.349  -0.348  -0.348  -0.346  -0.346  -0.345  -0.343
 -0.341  -0.341  -0.340  -0.339  -0.339  -0.337  -0.337  -0.335
 -0.333  -0.330  -0.329  -0.328  -0.327  -0.326  -0.324  -0.323
 -0.311  -0.301  -0.300  -0.291  -0.289  -0.284  -0.273  -0.271
 -0.271  -0.268  -0.267  -0.266  -0.266  -0.265  -0.264  -0.262
 -0.262  -0.260  -0.260  -0.259  -0.257  -0.256  -0.254  -0.252
 -0.251  -0.249  -0.248  -0.242  -0.223  -0.218  -0.212  -0.211
 -0.208  -0.205  -0.205  -0.202  -0.199  -0.197

          Ground-State Mulliken Net Atomic Charges

     Atom                 Charge (a.u.)
  ----------------------------------------
      1 O                    -0.460972
      2 C                    -0.079990
      3 H                     0.112501
      4 H                     0.111695
      5 H                     0.118678
      6 O                    -0.420528
      7 C                     0.566182
      8 C                    -0.239858
      9 H                     0.120196
     10 H                     0.122014
     11 C                    -0.189362
     12 H                     0.118850
     13 H                     0.121092
     14 C                    -0.216978
     15 H                     0.136494
     16 H                     0.107590
     17 C                     0.017192
     18 C                     0.069909
     19 C                    -0.102193
     20 H                     0.099440
     21 C                    -0.097967
     22 H                     0.091664
     23 C                    -0.078086
     24 H                     0.093676
     25 C                    -0.094198
     26 H                     0.093662
     27 C                    -0.090475
     28 H                     0.094646
     29 C                    -0.020895
     30 C                     0.004717
     31 C                     0.027627
     32 C                    -0.024447
     33 C                    -0.005248
     34 C                     0.017982
     35 C                    -0.005774
     36 C                    -0.000899
     37 C                     0.013869
     38 C                     0.015531
     39 C                    -0.074118
     40 C                     0.021525
     41 C                    -0.022315
     42 C                    -0.008669
     43 C                     0.018910
     44 C                    -0.023243
     45 C                    -0.107690
     46 C                     0.032030
     47 C                     0.013053
     48 C                    -0.017446
     49 C                    -0.018539
     50 C                     0.015987
     51 C                    -0.024957
     52 C                     0.015143
     53 C                     0.019904
     54 C                     0.024194
     55 C                     0.012414
     56 C                    -0.026862
     57 C                     0.003710
     58 C                     0.012084
     59 C                    -0.028689
     60 C                     0.024314
     61 C                     0.026695
     62 C                     0.050774
     63 C                    -0.016561
     64 C                     0.013696
     65 C                    -0.008882
     66 C                    -0.023747
     67 C                    -0.008816
     68 C                     0.019977
     69 C                     0.023020
     70 C                     0.001051
     71 C                     0.002414
     72 C                    -0.043445
     73 C                    -0.021147
     74 C                    -0.015210
     75 C                    -0.013924
     76 C                     0.001708
     77 C                    -0.006421
     78 C                     0.000713
     79 C                     0.005219
     80 C                    -0.000884
     81 C                     0.023885
     82 C                     0.006936
     83 C                    -0.000687
     84 C                    -0.003937
     85 C                    -0.015844
     86 C                     0.010020
     87 C                    -0.012849
     88 C                    -0.008906
     89 O                    -0.483047
     90 C                    -0.091061
     91 H                     0.140923
     92 H                     0.131381
     93 H                     0.130635
     94 O                    -0.467663
     95 C                     0.594641
     96 C                    -0.240350
     97 H                     0.133358
     98 H                     0.132936
     99 C                    -0.195704
    100 H                     0.115900
    101 H                     0.116535
    102 C                    -0.189823
    103 H                     0.115773
    104 H                     0.109063
    105 C                     0.006916
    106 C                     0.101848
    107 C                    -0.113846
    108 H                     0.090858
    109 C                    -0.087702
    110 H                     0.094452
    111 C                    -0.087677
    112 H                     0.089985
    113 C                    -0.087637
    114 H                     0.101680
    115 C                    -0.125909
    116 H                     0.105465
    117 C                    -0.028993
    118 C                    -0.006899
    119 C                     0.003643
    120 C                    -0.030816
    121 C                     0.033588
    122 C                     0.028871
    123 C                    -0.029280
    124 C                    -0.005716
    125 C                     0.038907
    126 C                     0.029050
    127 C                    -0.095720
    128 C                    -0.013015
    129 C                     0.004547
    130 C                    -0.004396
    131 C                    -0.009581
    132 C                    -0.022212
    133 C                    -0.087350
    134 C                     0.010930
    135 C                    -0.002969
    136 C                    -0.024547
    137 C                    -0.006574
    138 C                    -0.003582
    139 C                    -0.006173
    140 C                     0.007645
    141 C                     0.044289
    142 C                     0.005721
    143 C                     0.012514
    144 C                    -0.010044
    145 C                    -0.024433
    146 C                    -0.006603
    147 C                     0.009177
    148 C                     0.047472
    149 C                     0.007726
    150 C                     0.006471
    151 C                    -0.000701
    152 C                     0.003283
    153 C                    -0.008694
    154 C                    -0.020618
    155 C                     0.000834
    156 C                    -0.013762
    157 C                     0.005981
    158 C                     0.047761
    159 C                    -0.013383
    160 C                    -0.041964
    161 C                    -0.005224
    162 C                    -0.023879
    163 C                    -0.003384
    164 C                    -0.016859
    165 C                     0.013711
    166 C                    -0.002675
    167 C                     0.001076
    168 C                     0.012990
    169 C                    -0.035209
    170 C                     0.018127
    171 C                     0.002901
    172 C                     0.005861
    173 C                     0.024046
    174 C                     0.002935
    175 C                     0.036511
    176 C                     0.003832
  ----------------------------------------
  Sum of atomic charges =     0.000000

                    Cartesian Multipole Moments
 -----------------------------------------------------------------
    Charge (ESU x 10^10)
                 0.0000
    Dipole Moment (Debye)
         X       2.5061      Y       2.2346      Z      -2.4396
       Tot       4.1504
    Quadrupole Moments (Debye-Ang)
        XX    -786.4298     XY     -29.2087     YY    -786.3480
        XZ      -6.4135     YZ       5.6085     ZZ    -804.7388

 Total job time:  887.03s(wall), 8552.93s(cpu)
        *  Thank you very much for using Q-Chem.  Have a nice day.  *
