 Q-Chem 4.4, Q-Chem, Inc., Pleasanton, CA (2016)
 Q-Chem 4.4.2 for Intel X86 Linux

User input:
--------------------------------------------------------------
$comment
SP
$end

$rem
MEM_STATIC 5000
MEM_TOTAL 20000
JOBTYPE SP
EXCHANGE B3LYP
BASIS 6-31g(d,p)
$end

$molecule
0 1
O          -9.263000     13.310000      9.667000
C         -10.546000     14.004000      9.905000
H         -11.129000     14.267000      9.014000
H         -10.347000     14.911000     10.490000
H         -11.184000     13.350000     10.512000
O          -8.610000     14.629000      7.890000
C          -8.356000     13.762000      8.755000
C          -7.077000     13.066000      8.885000
H          -7.489000     12.050000      8.866000
H          -6.658000     13.060000      9.899000
C          -6.070000     13.134000      7.709000
H          -6.153000     14.169000      7.354000
H          -5.053000     12.955000      8.080000
C          -6.330000     12.125000      6.473000
H          -5.324000     11.933000      6.080000
H          -6.624000     11.133000      6.837000
C          -7.231000     12.663000      5.267000
C          -6.665000     13.866000      4.591000
C          -7.219000     15.157000      4.740000
H          -7.973000     15.271000      5.512000
C          -6.674000     16.204000      4.016000
H          -7.008000     17.205000      4.274000
C          -5.678000     15.994000      3.076000
H          -5.252000     16.847000      2.556000
C          -5.080000     14.710000      3.001000
H          -4.212000     14.401000      2.428000
C          -5.545000     13.636000      3.774000
H          -5.071000     12.660000      3.713000
C         -12.319000     13.676000      3.634000
C         -11.189000     12.735000      1.668000
C         -13.325000      8.781000      1.528000
C         -11.827000     10.525000      7.593000
C         -10.764000      6.960000      3.078000
C         -11.192000     13.453000      2.866000
C         -11.759000      7.860000      6.516000
C         -14.201000     11.041000      2.036000
C          -8.303000     10.198000      2.714000
C         -10.611000      9.859000      7.321000
C          -8.011000     11.545000      4.589000
C          -8.202000      9.291000      3.773000
C          -9.427000      8.374000      6.012000
C         -11.785000      7.138000      5.299000
C          -9.248000     12.406000      2.641000
C         -13.202000      7.438000      3.316000
C          -8.776000     12.516000      5.457000
C          -9.553000     11.902000      6.637000
C         -12.034000      7.232000      2.490000
C         -14.724000     10.473000      5.499000
C         -14.774000      9.222000      3.569000
C         -14.825000     10.571000      3.223000
C         -13.595000     12.285000      2.065000
C         -10.819000     12.554000      6.677000
C          -8.294000     11.510000      3.197000
C         -12.422000     12.111000      1.286000
C         -10.598000      8.624000      6.748000
C          -9.967000     12.060000      1.510000
C          -8.857000      8.061000      3.743000
C         -13.259000     12.060000      6.641000
C         -13.487000     10.145000      1.214000
C          -7.997000     10.074000      4.943000
C         -14.144000     12.599000      4.398000
C          -9.474000      7.644000      4.830000
C          -9.197000      9.821000      1.668000
C         -13.761000      8.179000      5.595000
C         -12.955000      8.566000      6.680000
C          -9.758000      8.555000      1.597000
C         -11.963000     11.876000      7.220000
C          -9.497000     10.479000      6.871000
C         -13.885000     10.807000      6.602000
C          -9.795000     13.380000      4.841000
C         -11.156000     10.147000      0.643000
C          -8.733000      9.616000      6.051000
C          -9.657000      7.647000      2.626000
C         -13.375000     12.936000      5.521000
C         -12.140000      8.099000      1.444000
C         -13.490000     12.993000      3.247000
C         -14.035000      8.339000      2.728000
C          -9.962000     10.780000      0.996000
C         -11.006000      8.765000      0.927000
C          -9.934000     13.317000      3.457000
C         -10.967000     13.431000      5.598000
C         -14.632000      9.183000      4.985000
C         -12.369000     10.819000      0.725000
C         -10.656000      7.002000      4.443000
C         -13.051000      9.863000      7.179000
C         -13.082000      7.351000      4.734000
C         -12.227000     13.627000      5.043000
C         -14.790000     11.317000      4.392000
O           5.646000     10.643000      8.469000
C           7.089000     10.912000      8.307000
H           7.216000     11.907000      7.863000
H           7.536000     10.193000      7.609000
H           7.564000     10.864000      9.295000
O           5.433000     12.511000      9.932000
C           4.960000     11.606000      9.212000
C           3.518000     11.415000      9.078000
H           3.011000     12.294000      9.497000
H           3.310000     10.664000      9.849000
C           2.952000     11.049000      7.710000
H           3.231000     11.840000      7.003000
H           3.354000     10.075000      7.405000
C           1.483000     11.057000      7.837000
H           1.242000     10.440000      8.712000
H           1.153000     12.057000      8.142000
C           0.670000     10.692000      6.635000
C           0.757000     11.747000      5.600000
C           1.966000     11.675000      4.819000
H           2.634000     10.828000      4.945000
C           2.421000     12.843000      4.180000
H           3.368000     12.777000      3.651000
C           1.544000     13.895000      3.951000
H           1.884000     14.677000      3.279000
C           0.283000     13.935000      4.560000
H          -0.397000     14.781000      4.531000
C          -0.056000     12.942000      5.506000
H          -0.999000     13.004000      6.042000
C          -4.178000      8.886000      4.896000
C          -2.657000      7.868000      3.339000
C          -3.282000      3.645000      5.011000
C          -3.042000      8.063000      9.642000
C          -0.378000      3.896000      6.978000
C          -3.036000      8.950000      4.088000
C          -1.971000      5.501000      9.826000
C          -4.904000      5.411000      4.611000
C           0.813000      7.251000      5.155000
C          -1.640000      7.920000      9.776000
C           0.402000      9.252000      6.361000
C           1.124000      7.031000      6.476000
C           0.040000      6.669000      9.080000
C          -1.609000      4.406000      9.056000
C          -0.797000      8.696000      4.258000
C          -2.767000      3.348000      7.227000
C          -0.699000     10.120000      6.786000
C          -1.386000      9.753000      8.092000
C          -1.501000      3.318000      6.470000
C          -5.425000      6.192000      7.917000
C          -4.867000      4.401000      6.801000
C          -5.407000      5.282000      5.885000
C          -4.715000      6.668000      4.071000
C          -2.752000      9.891000      8.007000
C           0.343000      8.558000      5.016000
C          -3.486000      6.710000      3.351000
C          -1.109000      6.660000      9.880000
C          -1.287000      7.652000      3.427000
C           1.023000      5.705000      6.991000
C          -4.763000      8.511000      8.207000
C          -3.797000      4.619000      4.177000
C           0.793000      8.124000      7.253000
C          -5.616000      7.745000      6.108000
C           0.401000      5.568000      8.299000
C           0.410000      6.132000      4.308000
C          -3.814000      4.649000      8.929000
C          -3.406000      5.676000      9.788000
C           0.208000      4.891000      4.846000
C          -3.598000      9.028000      8.747000
C          -0.918000      8.684000      8.899000
C          -4.898000      7.226000      8.693000
C          -1.934000     10.299000      5.885000
C          -1.590000      5.321000      3.467000
C           0.171000      7.918000      8.507000
C           0.529000      4.653000      6.200000
C          -5.102000      8.757000      6.892000
C          -1.860000      3.507000      5.135000
C          -5.000000      7.830000      4.867000
C          -3.811000      3.583000      6.347000
C          -0.697000      6.390000      3.480000
C          -1.005000      4.349000      4.335000
C          -1.889000      9.500000      4.661000
C          -3.090000     10.179000      6.642000
C          -4.914000      4.919000      8.043000
C          -2.940000      5.470000      3.466000
C          -0.391000      4.408000      8.295000
C          -3.888000      6.977000      9.623000
C          -2.743000      3.848000      8.517000
C          -4.231000      9.499000      6.135000
C          -5.837000      6.427000      6.617000
$end

--------------------------------------------------------------

             Standard Nuclear Orientation (Angstroms)
    I     Atom           X                Y                Z
 ----------------------------------------------------------------
    1      O       3.0929342514    -3.2245817657     4.7520620181
    2      C       4.3985652355    -3.6760044565     5.2773374579
    3      H       5.2013031563    -3.8028281671     4.5408141542
    4      H       4.2482765718    -4.6195478435     5.8173506008
    5      H       4.7548551107    -2.9320495053     6.0003848666
    6      O       3.1025926247    -4.5931746762     2.8944401079
    7      C       2.5083584096    -3.8115283704     3.6692592806
    8      C       1.1254562678    -3.3672979931     3.5037357537
    9      H       1.3353143706    -2.2925743399     3.5610911902
   10      H       0.5005922333    -3.4660030184     4.4001705011
   11      C       0.4316217821    -3.5883407109     2.1357508037
   12      H       0.7814339839    -4.5803136965     1.8230848169
   13      H      -0.6570900456    -3.6101621035     2.2706633048
   14      C       0.7641824216    -2.5158233253     0.9727861102
   15      H      -0.1488079782    -2.5022987238     0.3648267242
   16      H       0.7814662898    -1.4967562059     1.3780014530
   17      C       1.9917226317    -2.8456588865     0.0032323286
   18      C       1.8216051008    -4.1138358468    -0.7631410942
   19      C       2.5595552388    -5.2839382429    -0.4766311005
   20      H       3.1335440469    -5.2775336199     0.4442336175
   21      C       2.3910752977    -6.3936860631    -1.2874851471
   22      H       2.8404860430    -7.3224129871    -0.9474597323
   23      C       1.6043143350    -6.3459228823    -2.4269770804
   24      H       1.4689842789    -7.2485971176    -3.0154921616
   25      C       0.8092904819    -5.1928084310    -2.6509171071
   26      H       0.0462045168    -5.0340265699    -3.4057165045
   27      C       0.8853800686    -4.0726173320    -1.8103147775
   28      H       0.2633142271    -3.1995883359    -1.9887173023
   29      C       7.4113935851    -2.8578971301    -0.4524199312
   30      C       6.5854561554    -2.0891043409    -2.6328607146
   31      C       7.9267678442     2.1935099628    -2.3566186484
   32      C       5.4857946570     0.0405455800     3.2537431283
   33      C       4.7953305030     3.4682009954    -1.4365507436
   34      C       6.4590163410    -2.8261653510    -1.4532459297
   35      C       5.1614258415     2.6751903250     2.1491119956
   36      C       9.0745288192     0.1211884314    -1.6346988365
   37      C       3.1201850219    -0.1574092181    -2.2865502711
   38      C       4.2569984460     0.4777398265     2.7104963496
   39      C       2.6796399183    -1.5850841896    -0.5024644584
   40      C       2.6224918188     0.6865572104    -1.2893776967
   41      C       3.1340649749     1.7533532996     1.1508833570
   42      C       5.3190650985     3.4220444811     0.9573033976
   43      C       4.4518203408    -2.1502851165    -2.1168121477
   44      C       7.1670125075     3.4421623046    -0.6597506047
   45      C       3.4024477930    -2.4211922145     0.5270801724
   46      C       3.7736011457    -1.7062885127     1.8401996970
   47      C       6.1912517672     3.4511847844    -1.7259333153
   48      C       8.7101289217     0.6826297916     1.8496258203
   49      C       8.9488113543     1.9728032050    -0.0400525280
   50      C       9.3243835404     0.6661921220    -0.3463710073
   51      C       8.7190641084    -1.2136091069    -1.7217239529
   52      C       5.0985774974    -2.1142616459     2.1680038916
   53      C       3.2495495212    -1.4610352939    -1.7981468716
   54      C       7.7341537292    -1.2382117523    -2.7427000814
   55      C       4.1406238371     1.7040767181     2.1306017224
   56      C       5.3242311451    -1.6472408736    -3.0663825127
   57      C       3.0277091758     2.0166710694    -1.1923157801
   58      C       7.3515580310    -1.1776199300     2.6636983651
   59      C       8.4044202995     0.8917885067    -2.6070290767
   60      C       2.3150661161    -0.1520001079    -0.1819820757
   61      C       8.7914528299    -1.4835061798     0.6792761394
   62      C       3.3026515704     2.5110018231    -0.0022776355
   63      C       4.1357929118     0.4061045418    -3.1150874498
   64      C       7.3402181246     2.7560559053     1.6970821902
   65      C       6.4021967412     2.1979107732     2.5832085332
   66      C       4.4532817221     1.7553399082    -3.0792715133
   67      C       5.9490714236    -1.2516162245     2.9398665466
   68      C       3.4040512882    -0.3248871380     2.0350949120
   69      C       7.7266983043     0.1699799070     2.7452486854
   70      C       4.6741857148    -3.0653933512     0.1637613678
   71      C       6.2975181500     0.4749531462    -3.6779247833
   72      C       2.6917517950     0.4040099114     1.0541751787
   73      C       3.9619838641     2.6010954858    -2.1113717677
   74      C       7.8712356636    -1.9867215613     1.6098854271
   75      C       6.6834445981     2.6470897039    -2.7099141681
   76      C       8.4908369495    -1.9603485432    -0.5816776476
   77      C       8.2613441036     2.7265281477    -1.0362344842
   78      C       5.1942084910    -0.3768036094    -3.5876351072
   79      C       5.8345933095     1.7973802355    -3.4543913734
   80      C       5.0992168281    -2.9406284968    -1.1562872237
   81      C       5.6400949576    -2.9195420863     1.1612485823
   82      C       8.4949218605     1.9468342883     1.3090401089
   83      C       7.5662380962     0.0364195688    -3.3205524288
   84      C       4.4002535060     3.3703001058    -0.1285054148
   85      C       6.6258270039     0.9279707265     3.1101504496
   86      C       6.7248302333     3.4673577726     0.6954368453
   87      C       7.0050683824    -2.8646249698     0.9007247638
   88      C       9.1731168603    -0.1046112680     0.7969935564
   89      O     -11.4193723350    -3.3238703657     0.2565672382
   90      C     -12.7158648268    -3.8501233246    -0.2156816812
   91      H     -12.5550949715    -4.8391639971    -0.6620465565
   92      H     -13.1245441630    -3.2074723543    -1.0055898598
   93      H     -13.3964687737    -3.9172019502     0.6424277089
   94      O     -11.1889953465    -5.1591181421     1.7578846739
   95      C     -10.7462929384    -4.1633382924     1.1466637083
   96      C      -9.3713202364    -3.7059417529     1.3311616067
   97      H      -8.8142203131    -4.4872087845     1.8645587390
   98      H      -9.4808800544    -2.9504625013     2.1178977421
   99      C      -8.5971732056    -3.2051142409     0.1164171159
  100      H      -8.5622170944    -4.0147167540    -0.6229696848
  101      H      -9.0963807707    -2.3142002225    -0.2840438920
  102      C      -7.2165976195    -2.9452606371     0.5643469718
  103      H      -7.2924515646    -2.3181358210     1.4617630649
  104      H      -6.7815145122    -3.8750072005     0.9493132269
  105      C      -6.2421144324    -2.4042913670    -0.4340180751
  106      C      -5.9022271092    -3.4290045722    -1.4470622275
  107      C      -6.9022130098    -3.5604079471    -2.4764248224
  108      H      -7.7271222705    -2.8549495910    -2.5133330791
  109      C      -6.9806437552    -4.7747071250    -3.1827506146
  110      H      -7.7838637724    -4.8704250359    -3.9084789972
  111      C      -5.8948509402    -5.6402240961    -3.1971844544
  112      H      -5.9276697106    -6.4531842454    -3.9160215179
  113      C      -4.8132787114    -5.4631597311    -2.3245724418
  114      H      -3.9983417300    -6.1680291572    -2.1904314395
  115      C      -4.8807583679    -4.4504545884    -1.3418411510
  116      H      -4.0836487488    -4.3517333645    -0.6102269255
  117      C      -1.5531944899     0.3115572193    -1.0875142335
  118      C      -2.8576574422     1.0728353357    -2.9564299714
  119      C      -3.4110453920     5.2921247198    -1.2501776836
  120      C      -3.8353895470     0.7828282415     3.2784713764
  121      C      -6.5772227493     4.4566555923     0.0314690223
  122      C      -2.4578005835     0.0596323440    -2.1264298569
  123      C      -5.3778732605     3.0972520208     3.1839855938
  124      C      -1.4414528781     3.8672371905    -1.2565697106
  125      C      -6.6941900287     0.9897303475    -1.9596570417
  126      C      -5.2341531811     0.6609533646     3.0978728988
  127      C      -6.1930680629    -0.9327286796    -0.6633599830
  128      C      -7.3227538936     1.1129480573    -0.7431510352
  129      C      -6.9231047394     1.5986445359     2.0301674615
  130      C      -5.7592584290     4.1269292089     2.3370621961
  131      C      -4.6867450063    -0.1086405751    -2.4581345218
  132      C      -4.4456504207     5.4292732064     0.7930728461
  133      C      -5.0704204389    -1.5937175566     0.0067191293
  134      C      -4.7671815897    -1.1414786389     1.4265149463
  135      C      -5.4976844931     5.2454411932    -0.2248343703
  136      C      -1.5225038944     3.1072032500     2.0940745770
  137      C      -2.1451146163     4.7937959646     0.8562289065
  138      C      -1.2631699322     4.0525527431     0.0949477096
  139      C      -1.2702898256     2.6119323735    -1.8063724259
  140      C      -3.4145763812    -1.0226535019     1.6468890298
  141      C      -5.9705365249    -0.2038505793    -1.9723131638
  142      C      -2.2816165906     2.3631978446    -2.7789742501
  143      C      -5.9998130567     1.7980416307     3.0636350551
  144      C      -4.2292545196     1.0298225266    -3.1759097099
  145      C      -7.5855447082     2.4204724618    -0.2381530952
  146      C      -1.7889832618     0.6989157144     2.2650859591
  147      C      -2.5537418382     4.4526943178    -1.9356295176
  148      C      -6.9729667685     0.0793259816     0.1037334739
  149      C      -0.6539682723     1.6653511795     0.3948160681
  150      C      -7.3022346059     2.6346967920     1.1726482098
  151      C      -6.3304595202     2.1862503067    -2.7133274634
  152      C      -3.5743562497     4.2985775731     2.7030434879
  153      C      -3.9626138190     3.1911976956     3.4659588612
  154      C      -6.4857580326     3.4282890349    -2.1623726833
  155      C      -2.9271093078    -0.0385525798     2.5424370337
  156      C      -5.5912108406    -0.1993146330     2.0945993568
  157      C      -2.0052251330     1.9732146521     2.7499031108
  158      C      -3.6566477877    -1.5174090118    -0.5970116854
  159      C      -4.3812360854     3.3747664342    -3.1044277268
  160      C      -6.6906396814     0.3627915614     1.4608534690
  161      C      -7.1344856759     3.5664578503    -0.9161532711
  162      C      -1.1300841490     0.5551607736     1.0609894197
  163      C      -4.8258407990     5.1619151508    -1.4448657023
  164      C      -0.9558984709     1.5015201343    -0.9500852457
  165      C      -3.2090045524     5.4147475377     0.1685274103
  166      C      -5.0406059053     2.1593576565    -3.2729268179
  167      C      -5.3126697286     4.1983980180    -2.4012240703
  168      C      -3.5797906024    -0.7078220386    -1.8124391436
  169      C      -2.7378570853    -1.2065115024     0.3944273616
  170      C      -2.2762519647     4.2601631463     2.0855116287
  171      C      -3.0603373535     3.4775727818    -2.8054973086
  172      C      -6.7584927097     3.9206254817     1.3263106814
  173      C      -3.2228790188     2.0064254172     3.4305036246
  174      C      -4.6586655223     4.8989295867     2.0532459340
  175      C      -1.6602636048    -0.3142204796     0.1415656973
  176      C      -0.7990242215     2.9873252907     0.9205433938
 ----------------------------------------------------------------

    9   -5804.1999460997      8.71E-06 Convergence criterion met
 Total energy in the final basis set = -5804.1999460997

                    Orbital Energies (a.u.)
 --------------------------------------------------------------

 Alpha MOs
 -- Occupied --
-19.198 -19.196 -19.140 -19.137 -10.323 -10.320 -10.251 -10.250
-10.240 -10.239 -10.236 -10.234 -10.234 -10.232 -10.231 -10.230
-10.229 -10.229 -10.227 -10.226 -10.225 -10.225 -10.225 -10.224
-10.224 -10.223 -10.223 -10.222 -10.222 -10.222 -10.221 -10.221
-10.221 -10.220 -10.220 -10.220 -10.219 -10.219 -10.219 -10.219
-10.218 -10.218 -10.218 -10.218 -10.218 -10.218 -10.218 -10.218
-10.218 -10.217 -10.217 -10.217 -10.217 -10.217 -10.217 -10.216
-10.216 -10.216 -10.216 -10.216 -10.215 -10.215 -10.215 -10.215
-10.215 -10.215 -10.215 -10.215 -10.215 -10.215 -10.215 -10.214
-10.214 -10.214 -10.214 -10.214 -10.213 -10.213 -10.213 -10.213
-10.213 -10.212 -10.212 -10.212 -10.212 -10.212 -10.212 -10.212
-10.212 -10.212 -10.211 -10.211 -10.211 -10.211 -10.211 -10.211
-10.210 -10.210 -10.210 -10.210 -10.210 -10.210 -10.210 -10.210
-10.210 -10.210 -10.209 -10.209 -10.209 -10.209 -10.209 -10.209
-10.208 -10.208 -10.208 -10.207 -10.207 -10.207 -10.207 -10.207
-10.206 -10.206 -10.206 -10.206 -10.205 -10.205 -10.204 -10.204
-10.204 -10.204 -10.203 -10.203 -10.203 -10.202 -10.202 -10.202
-10.201 -10.201 -10.201 -10.200 -10.200 -10.197 -10.197 -10.196
-10.195 -10.193 -10.192 -10.189  -1.086  -1.078  -1.002  -0.998
 -0.991  -0.981  -0.974  -0.970  -0.967  -0.963  -0.960  -0.959
 -0.945  -0.935  -0.931  -0.930  -0.929  -0.926  -0.926  -0.923
 -0.920  -0.919  -0.906  -0.896  -0.893  -0.891  -0.889  -0.884
 -0.883  -0.869  -0.855  -0.850  -0.848  -0.844  -0.841  -0.841
 -0.836  -0.832  -0.830  -0.820  -0.815  -0.806  -0.802  -0.801
 -0.799  -0.797  -0.795  -0.793  -0.791  -0.790  -0.789  -0.780
 -0.777  -0.775  -0.770  -0.770  -0.768  -0.764  -0.761  -0.761
 -0.754  -0.748  -0.746  -0.741  -0.737  -0.730  -0.721  -0.721
 -0.717  -0.715  -0.714  -0.714  -0.711  -0.711  -0.711  -0.710
 -0.706  -0.706  -0.705  -0.703  -0.702  -0.700  -0.677  -0.673
 -0.664  -0.662  -0.656  -0.656  -0.651  -0.645  -0.636  -0.634
 -0.632  -0.631  -0.628  -0.624  -0.622  -0.620  -0.619  -0.618
 -0.616  -0.616  -0.615  -0.614  -0.611  -0.611  -0.609  -0.609
 -0.608  -0.603  -0.601  -0.598  -0.571  -0.567  -0.565  -0.562
 -0.562  -0.562  -0.561  -0.560  -0.557  -0.554  -0.553  -0.548
 -0.542  -0.538  -0.534  -0.531  -0.530  -0.529  -0.527  -0.525
 -0.523  -0.522  -0.522  -0.521  -0.520  -0.517  -0.511  -0.511
 -0.510  -0.506  -0.505  -0.502  -0.499  -0.493  -0.490  -0.489
 -0.484  -0.482  -0.482  -0.480  -0.480  -0.478  -0.478  -0.476
 -0.475  -0.472  -0.472  -0.471  -0.470  -0.469  -0.468  -0.467
 -0.466  -0.465  -0.464  -0.461  -0.461  -0.460  -0.458  -0.458
 -0.457  -0.455  -0.454  -0.450  -0.447  -0.447  -0.447  -0.446
 -0.444  -0.444  -0.443  -0.439  -0.437  -0.436  -0.435  -0.434
 -0.432  -0.430  -0.430  -0.428  -0.427  -0.427  -0.426  -0.426
 -0.425  -0.424  -0.423  -0.422  -0.422  -0.420  -0.420  -0.419
 -0.417  -0.417  -0.416  -0.415  -0.415  -0.413  -0.412  -0.411
 -0.410  -0.409  -0.408  -0.407  -0.404  -0.403  -0.398  -0.397
 -0.395  -0.394  -0.393  -0.392  -0.390  -0.388  -0.383  -0.379
 -0.378  -0.377  -0.375  -0.371  -0.371  -0.370  -0.368  -0.368
 -0.366  -0.365  -0.363  -0.362  -0.362  -0.361  -0.361  -0.359
 -0.358  -0.357  -0.357  -0.356  -0.355  -0.354  -0.352  -0.350
 -0.350  -0.350  -0.348  -0.347  -0.346  -0.346  -0.345  -0.344
 -0.343  -0.341  -0.340  -0.339  -0.339  -0.338  -0.338  -0.335
 -0.334  -0.332  -0.330  -0.329  -0.328  -0.326  -0.324  -0.318
 -0.309  -0.302  -0.301  -0.301  -0.293  -0.283  -0.275  -0.272
 -0.271  -0.271  -0.270  -0.269  -0.266  -0.266  -0.265  -0.264
 -0.261  -0.261  -0.260  -0.258  -0.258  -0.257  -0.254  -0.253
 -0.250  -0.249  -0.246  -0.238  -0.223  -0.218  -0.214  -0.213
 -0.211  -0.209  -0.205  -0.203  -0.200  -0.197

          Ground-State Mulliken Net Atomic Charges

     Atom                 Charge (a.u.)
  ----------------------------------------
      1 O                    -0.481194
      2 C                    -0.087331
      3 H                     0.141401
      4 H                     0.126068
      5 H                     0.131021
      6 O                    -0.514011
      7 C                     0.637567
      8 C                    -0.271954
      9 H                     0.144097
     10 H                     0.140307
     11 C                    -0.189566
     12 H                     0.132433
     13 H                     0.096618
     14 C                    -0.196111
     15 H                     0.108160
     16 H                     0.105567
     17 C                     0.020713
     18 C                     0.066409
     19 C                    -0.101241
     20 H                     0.135495
     21 C                    -0.101720
     22 H                     0.093305
     23 C                    -0.082740
     24 H                     0.090418
     25 C                    -0.100646
     26 H                     0.086641
     27 C                    -0.095889
     28 H                     0.096276
     29 C                    -0.011414
     30 C                    -0.004688
     31 C                    -0.012338
     32 C                    -0.048804
     33 C                    -0.009878
     34 C                     0.003818
     35 C                    -0.031515
     36 C                     0.011274
     37 C                    -0.018175
     38 C                     0.050378
     39 C                    -0.078098
     40 C                     0.007243
     41 C                    -0.015845
     42 C                    -0.015830
     43 C                     0.008972
     44 C                     0.009662
     45 C                    -0.062645
     46 C                    -0.020953
     47 C                    -0.005857
     48 C                    -0.006312
     49 C                    -0.010865
     50 C                     0.009138
     51 C                     0.005668
     52 C                     0.025304
     53 C                     0.037153
     54 C                    -0.030951
     55 C                     0.006242
     56 C                    -0.008432
     57 C                     0.020477
     58 C                    -0.014144
     59 C                    -0.005000
     60 C                     0.006670
     61 C                    -0.010812
     62 C                     0.010588
     63 C                     0.005426
     64 C                    -0.012390
     65 C                     0.011757
     66 C                     0.008984
     67 C                    -0.019020
     68 C                    -0.010592
     69 C                     0.012762
     70 C                     0.019139
     71 C                     0.025244
     72 C                    -0.004103
     73 C                    -0.019722
     74 C                     0.000942
     75 C                     0.037225
     76 C                     0.015411
     77 C                    -0.019402
     78 C                    -0.007354
     79 C                    -0.043432
     80 C                     0.016744
     81 C                     0.041158
     82 C                    -0.011352
     83 C                     0.001323
     84 C                     0.014133
     85 C                     0.012434
     86 C                     0.008304
     87 C                    -0.014880
     88 C                    -0.002149
     89 O                    -0.484139
     90 C                    -0.087114
     91 H                     0.130858
     92 H                     0.124506
     93 H                     0.139165
     94 O                    -0.490794
     95 C                     0.607441
     96 C                    -0.261944
     97 H                     0.135431
     98 H                     0.138474
     99 C                    -0.173890
    100 H                     0.119663
    101 H                     0.118401
    102 C                    -0.170929
    103 H                     0.102180
    104 H                     0.108605
    105 C                     0.000044
    106 C                     0.076794
    107 C                    -0.110118
    108 H                     0.097840
    109 C                    -0.086675
    110 H                     0.090377
    111 C                    -0.084474
    112 H                     0.093627
    113 C                    -0.087507
    114 H                     0.097951
    115 C                    -0.105695
    116 H                     0.094298
    117 C                     0.020818
    118 C                    -0.003865
    119 C                    -0.024703
    120 C                    -0.011341
    121 C                     0.025980
    122 C                    -0.017710
    123 C                    -0.004318
    124 C                     0.009489
    125 C                     0.012309
    126 C                    -0.020920
    127 C                    -0.085220
    128 C                     0.006597
    129 C                    -0.007333
    130 C                     0.017235
    131 C                     0.015265
    132 C                    -0.016945
    133 C                    -0.102281
    134 C                     0.053494
    135 C                    -0.003473
    136 C                     0.023218
    137 C                     0.019602
    138 C                     0.013441
    139 C                    -0.022262
    140 C                    -0.027883
    141 C                    -0.000859
    142 C                    -0.015465
    143 C                    -0.008987
    144 C                     0.008827
    145 C                    -0.022958
    146 C                    -0.012826
    147 C                    -0.002864
    148 C                     0.041744
    149 C                    -0.014576
    150 C                    -0.013020
    151 C                     0.000839
    152 C                    -0.014722
    153 C                    -0.034192
    154 C                     0.005474
    155 C                     0.008295
    156 C                     0.032793
    157 C                     0.009086
    158 C                     0.002938
    159 C                    -0.008479
    160 C                    -0.007669
    161 C                    -0.000041
    162 C                     0.003355
    163 C                    -0.011243
    164 C                     0.012856
    165 C                     0.015468
    166 C                    -0.008227
    167 C                    -0.012824
    168 C                     0.014206
    169 C                    -0.003167
    170 C                    -0.002611
    171 C                     0.055689
    172 C                    -0.011076
    173 C                     0.018736
    174 C                     0.018746
    175 C                     0.005690
    176 C                    -0.037225
  ----------------------------------------
  Sum of atomic charges =     0.000000

                    Cartesian Multipole Moments
 -----------------------------------------------------------------
    Charge (ESU x 10^10)
                 0.0000
    Dipole Moment (Debye)
         X      -3.7726      Y      -2.0063      Z      -0.3088
       Tot       4.2840
    Quadrupole Moments (Debye-Ang)
        XX    -808.5902     XY      -5.4613     YY    -810.7560
        XZ      33.3097     YZ       8.4174     ZZ    -796.0780

 Total job time:  874.51s(wall), 8387.09s(cpu)
        *  Thank you very much for using Q-Chem.  Have a nice day.  *
