 Q-Chem 4.4, Q-Chem, Inc., Pleasanton, CA (2016)
 Q-Chem 4.4.2 for Intel X86 Linux

User input:
--------------------------------------------------------------
$comment
SP
$end

$rem
MEM_STATIC 5000
MEM_TOTAL 20000
JOBTYPE SP
EXCHANGE B3LYP
BASIS 6-31g(d,p)
$end

$molecule
0 1
O         -10.541000      6.292000     -2.164000
C         -11.230000      7.408000     -2.822000
H         -10.561000      8.094000     -3.355000
H         -11.643000      7.909000     -1.938000
H         -12.115000      7.107000     -3.397000
O         -12.585000      5.502000     -1.370000
C         -11.341000      5.422000     -1.367000
C         -10.561000      4.371000     -0.684000
H          -9.806000      5.035000     -0.244000
H         -10.166000      3.751000     -1.498000
C         -11.348000      3.570000      0.412000
H         -11.258000      4.111000      1.362000
H         -12.400000      3.584000      0.101000
C         -10.783000      2.145000      0.645000
H         -10.671000      1.615000     -0.310000
H          -9.748000      2.274000      0.984000
C         -11.516000      1.301000      1.793000
C         -12.654000      0.629000      1.145000
C         -12.306000     -0.502000      0.386000
H         -11.269000     -0.806000      0.273000
C         -13.244000     -1.344000     -0.159000
H         -12.924000     -2.238000     -0.686000
C         -14.597000     -1.111000      0.104000
H         -15.420000     -1.695000     -0.298000
C         -14.913000      0.081000      0.726000
H         -15.956000      0.339000      0.882000
C         -13.967000      0.978000      1.344000
H         -14.258000      1.761000      2.037000
C         -13.766000      1.222000      6.768000
C         -13.220000     -1.051000      6.400000
C          -9.790000     -1.292000      9.340000
C          -9.630000      4.108000      6.076000
C          -7.298000     -0.889000      6.833000
C         -13.652000      0.160000      5.870000
C          -7.358000      2.748000      6.753000
C         -11.912000     -0.233000      9.564000
C         -10.045000     -1.444000      3.888000
C          -8.846000      3.618000      5.068000
C         -10.829000      0.529000      2.918000
C          -8.920000     -0.629000      3.681000
C          -7.641000      1.735000      4.616000
C          -6.924000      1.509000      7.280000
C         -12.381000     -0.846000      4.255000
C          -7.913000      0.042000      9.019000
C         -11.521000      1.779000      3.226000
C         -10.831000      2.985000      3.819000
C          -7.883000     -1.062000      8.134000
C         -10.556000      3.088000      9.306000
C          -9.845000      1.032000     10.104000
C         -11.243000      0.962000      9.929000
C         -12.927000     -0.146000      8.649000
C         -11.663000      3.547000      4.878000
C         -11.223000     -0.770000      3.444000
C         -12.881000     -1.191000      7.734000
C          -7.737000      2.886000      5.457000
C         -12.366000     -1.620000      5.418000
C          -7.885000     -0.674000      4.608000
C         -11.568000      4.055000      7.266000
C         -11.188000     -1.401000      9.267000
C          -9.342000      0.586000      3.220000
C         -12.675000      2.274000      8.519000
C          -7.114000      0.483000      5.060000
C         -10.067000     -2.315000      4.992000
C          -8.271000      2.450000      8.863000
C          -8.180000      3.323000      7.760000
C          -9.038000     -2.361000      5.925000
C         -11.047000      4.125000      6.021000
C          -9.442000      2.916000      3.991000
C         -10.482000      3.979000      8.184000
C         -12.691000      1.637000      4.156000
C         -10.972000     -2.529000      7.147000
C          -8.722000      1.777000      3.730000
C          -7.946000     -1.548000      5.761000
C         -12.626000      3.117000      7.420000
C          -8.991000     -1.930000      8.359000
C         -13.366000      1.070000      8.118000
C          -9.112000     -0.133000      9.785000
C         -11.230000     -2.404000      5.761000
C          -9.578000     -2.571000      7.251000
C         -13.113000      0.307000      4.596000
C         -12.814000      2.723000      5.100000
C          -9.428000      2.306000      9.715000
C         -11.741000     -1.958000      8.123000
C          -6.798000      0.383000      6.436000
C          -9.339000      4.045000      7.399000
C          -7.578000      1.327000      8.540000
C         -13.335000      2.490000      6.391000
C         -11.651000      2.237000      9.467000
O           5.646000     10.643000      8.469000
C           7.089000     10.912000      8.307000
H           7.216000     11.907000      7.863000
H           7.536000     10.193000      7.609000
H           7.564000     10.864000      9.295000
O           5.433000     12.511000      9.932000
C           4.960000     11.606000      9.212000
C           3.518000     11.415000      9.078000
H           3.011000     12.294000      9.497000
H           3.310000     10.664000      9.849000
C           2.952000     11.049000      7.710000
H           3.231000     11.840000      7.003000
H           3.354000     10.075000      7.405000
C           1.483000     11.057000      7.837000
H           1.242000     10.440000      8.712000
H           1.153000     12.057000      8.142000
C           0.670000     10.692000      6.635000
C           0.757000     11.747000      5.600000
C           1.966000     11.675000      4.819000
H           2.634000     10.828000      4.945000
C           2.421000     12.843000      4.180000
H           3.368000     12.777000      3.651000
C           1.544000     13.895000      3.951000
H           1.884000     14.677000      3.279000
C           0.283000     13.935000      4.560000
H          -0.397000     14.781000      4.531000
C          -0.056000     12.942000      5.506000
H          -0.999000     13.004000      6.042000
C          -4.178000      8.886000      4.896000
C          -2.657000      7.868000      3.339000
C          -3.282000      3.645000      5.011000
C          -3.042000      8.063000      9.642000
C          -0.378000      3.896000      6.978000
C          -3.036000      8.950000      4.088000
C          -1.971000      5.501000      9.826000
C          -4.904000      5.411000      4.611000
C           0.813000      7.251000      5.155000
C          -1.640000      7.920000      9.776000
C           0.402000      9.252000      6.361000
C           1.124000      7.031000      6.476000
C           0.040000      6.669000      9.080000
C          -1.609000      4.406000      9.056000
C          -0.797000      8.696000      4.258000
C          -2.767000      3.348000      7.227000
C          -0.699000     10.120000      6.786000
C          -1.386000      9.753000      8.092000
C          -1.501000      3.318000      6.470000
C          -5.425000      6.192000      7.917000
C          -4.867000      4.401000      6.801000
C          -5.407000      5.282000      5.885000
C          -4.715000      6.668000      4.071000
C          -2.752000      9.891000      8.007000
C           0.343000      8.558000      5.016000
C          -3.486000      6.710000      3.351000
C          -1.109000      6.660000      9.880000
C          -1.287000      7.652000      3.427000
C           1.023000      5.705000      6.991000
C          -4.763000      8.511000      8.207000
C          -3.797000      4.619000      4.177000
C           0.793000      8.124000      7.253000
C          -5.616000      7.745000      6.108000
C           0.401000      5.568000      8.299000
C           0.410000      6.132000      4.308000
C          -3.814000      4.649000      8.929000
C          -3.406000      5.676000      9.788000
C           0.208000      4.891000      4.846000
C          -3.598000      9.028000      8.747000
C          -0.918000      8.684000      8.899000
C          -4.898000      7.226000      8.693000
C          -1.934000     10.299000      5.885000
C          -1.590000      5.321000      3.467000
C           0.171000      7.918000      8.507000
C           0.529000      4.653000      6.200000
C          -5.102000      8.757000      6.892000
C          -1.860000      3.507000      5.135000
C          -5.000000      7.830000      4.867000
C          -3.811000      3.583000      6.347000
C          -0.697000      6.390000      3.480000
C          -1.005000      4.349000      4.335000
C          -1.889000      9.500000      4.661000
C          -3.090000     10.179000      6.642000
C          -4.914000      4.919000      8.043000
C          -2.940000      5.470000      3.466000
C          -0.391000      4.408000      8.295000
C          -3.888000      6.977000      9.623000
C          -2.743000      3.848000      8.517000
C          -4.231000      9.499000      6.135000
C          -5.837000      6.427000      6.617000
$end

--------------------------------------------------------------

             Standard Nuclear Orientation (Angstroms)
    I     Atom           X                Y                Z
 ----------------------------------------------------------------
    1      O      -3.8294055121     8.6038184311     0.2490321418
    2      C      -3.8328378597     9.7875770488     1.1161219607
    3      H      -2.9744104019    10.4531655922     0.9666556080
    4      H      -3.7506725778     9.2941502049     2.0922391750
    5      H      -4.7998301825    10.3048808371     1.1582365468
    6      O      -5.8168158730     7.8828566852     1.2302998008
    7      C      -4.8619700788     7.6450332412     0.4650191210
    8      C      -4.7442937412     6.4532278297    -0.3982549611
    9      H      -3.6915250685     6.2360527690    -0.1768184807
   10      H      -4.8996869407     6.8352723244    -1.4145796915
   11      C      -5.6842207932     5.2587272569    -0.0085223368
   12      H      -5.1650451410     4.6438188301     0.7368804192
   13      H      -6.5663608950     5.7085933602     0.4637808814
   14      C      -6.0190499286     4.3339915959    -1.2072268072
   15      H      -6.3701122450     4.9257036718    -2.0628558561
   16      H      -5.0640987516     3.9251694643    -1.5589649405
   17      C      -6.9329883079     3.0659370743    -0.8546883425
   18      C      -8.3279024683     3.5248151477    -0.9555714371
   19      C      -8.8081758433     3.6405787486    -2.2717333853
   20      H      -8.1655199183     3.4397122312    -3.1244936120
   21      C     -10.1257278817     3.9014181671    -2.5578320117
   22      H     -10.4588909447     3.9212812656    -3.5912597212
   23      C     -11.0422682296     3.9893029318    -1.5060254427
   24      H     -12.0981834651     4.2191144055    -1.6165636805
   25      C     -10.5204681185     4.0162707581    -0.2275101396
   26      H     -11.1884014019     4.1598504942     0.6162901853
   27      C      -9.1544006740     3.7139258936     0.1244789515
   28      H      -8.8384435482     3.4938777719     1.1392542561
   29      C      -8.0834075687    -1.0006853992     2.6034156440
   30      C      -9.0080080133    -1.7654547528     0.5637316358
   31      C      -5.9716626164    -5.0191683914    -0.2490015235
   32      C      -3.1894052670     0.2180002141     1.9121104677
   33      C      -4.0899436575    -3.0280690895    -2.5188427800
   34      C      -8.7317725317    -0.6941519941     1.4063759011
   35      C      -2.0508281115    -1.3444837723    -0.0197795015
   36      C      -7.0356185842    -4.4091416552     1.7931556887
   37      C      -7.0369686699    -0.2305966417    -2.6463201528
   38      C      -2.9843868087     0.7661603731     0.6758629715
   39      C      -6.6664923143     1.6217426985    -1.2752361880
   40      C      -5.6911380251     0.1306938413    -2.8221270426
   41      C      -3.1657895897     0.1415941970    -1.5102358649
   42      C      -2.3420372481    -2.4258018819    -0.8841604272
   43      C      -8.5188067194     0.0843153587    -0.7347303885
   44      C      -3.7376437486    -4.4492599594    -0.5491516150
   45      C      -6.4581415605     2.0119908001     0.1177908694
   46      C      -5.1232176609     1.9090780137     0.8174851889
   47      C      -4.4759661794    -4.1592229416    -1.7212008957
   48      C      -4.0651410826    -2.9352164332     3.1853298346
   49      C      -4.5665986885    -4.6605224174     1.7220046723
   50      C      -5.7562382903    -4.3121846774     2.3953154748
   51      C      -7.9314548125    -3.3996552096     2.0243127095
   52      C      -5.3180705086     1.3553335267     2.1535048036
   53      C      -7.6584495493     0.6479155393    -1.7076648037
   54      C      -8.6271130614    -3.0596877589     0.8702556341
   55      C      -2.4596660758    -0.0782618933    -0.2877994115
   56      C      -8.7885891580    -1.2863292534    -0.7552433912
   57      C      -4.7532790940    -0.8740887888    -3.0304812879
   58      C      -4.6101660565    -0.5448073940     3.5165780841
   59      C      -7.1693546112    -4.7780980498     0.4431205581
   60      C      -5.3947745027     1.1412198169    -1.9515893265
   61      C      -6.3507363573    -2.2585424329     3.4858170017
   62      C      -3.4014580166    -0.8871032050    -2.4738805337
   63      C      -7.4008442419    -1.5859536526    -2.7387481850
   64      C      -2.6581739546    -3.1924512838     1.2414183828
   65      C      -2.2375039587    -1.8481838382     1.2961978432
   66      C      -6.4675381868    -2.5955114590    -2.9416738935
   67      C      -4.3271214934     0.5017727113     2.7097807995
   68      C      -4.0214512503     1.5035605383     0.0524150263
   69      C      -3.6504499693    -1.5635035134     3.2537107253
   70      C      -7.3493745373     1.3161366911     1.1054420426
   71      C      -7.9469077003    -3.4379160735    -1.4042460715
   72      C      -4.1365694780     1.1162397901    -1.2592908979
   73      C      -5.1433118091    -2.2677724301    -3.0807444857
   74      C      -5.9805927186    -0.9242829233     3.5457857243
   75      C      -5.8361561843    -4.5625048375    -1.5835060778
   76      C      -7.6581060960    -2.3241403321     2.8739515900
   77      C      -4.6944817995    -5.0101746497     0.3590431078
   78      C      -8.2786755925    -2.1173913988    -1.7906780178
   79      C      -6.8351743422    -3.7722846087    -2.1840297744
   80      C      -8.3939266419     0.4090889884     0.6292494704
   81      C      -6.6878817420     0.9810073860     2.3447065950
   82      C      -3.5511565413    -3.8223951972     2.1853684693
   83      C      -8.0976547077    -3.9245206787    -0.1352034016
   84      C      -3.0100298754    -2.1970967198    -2.1079119537
   85      C      -2.8042442368    -1.0248614700     2.2941115344
   86      C      -2.7945610879    -3.5136284238    -0.0715746845
   87      C      -7.0584668179    -0.1780499869     3.0600133179
   88      C      -5.4141332000    -3.2765756184     3.2986487379
   89      O      13.2075604442    -1.4692280844    -1.2630471871
   90      C      14.5004772559    -1.4394712634    -1.9760230980
   91      H      15.1138759176    -0.6291632436    -1.5631877859
   92      H      14.3462177210    -1.2118634467    -3.0382719755
   93      H      14.9948243289    -2.4094541331    -1.8388108398
   94      O      14.3214493005    -1.9034891163     0.7974942398
   95      C      13.3167604001    -1.5906058037     0.1238042177
   96      C      12.0277172609    -1.3247443597     0.7574338239
   97      H      12.1865128104    -1.2257958589     1.8392120672
   98      H      11.5362993380    -2.3032435352     0.7049572699
   99      C      11.1674379070    -0.1870676309     0.2176680470
  100      H      11.7481130404     0.7411375076     0.2856578283
  101      H      10.8855212937    -0.4116937896    -0.8183682033
  102      C      10.0084907196    -0.0596284764     1.1203056701
  103      H       9.5825896298    -1.0655947283     1.2253540483
  104      H      10.3633221169     0.1648890175     2.1330304967
  105      C       8.9736398169     0.9715886578     0.7967738614
  106      C       9.5057494686     2.3366798006     1.0093873382
  107      C      10.3259754962     2.8003489958    -0.0810557557
  108      H      10.3923630303     2.2083513445    -0.9891529290
  109      C      11.2753930146     3.8064139852     0.1758676043
  110      H      11.9240530966     4.0922925633    -0.6478553689
  111      C      11.1446009579     4.6133255972     1.2983920309
  112      H      11.7741058473     5.4968526106     1.3409550535
  113      C      10.2397138354     4.2957974053     2.3196447629
  114      H      10.1768412084     4.8036229889     3.2773071301
  115      C       9.5280798566     3.0771283804     2.2540026420
  116      H       8.8813207370     2.7826620731     3.0758184577
  117      C       3.7857163871     2.4902042223     1.5505100579
  118      C       4.2010577117     3.1719880717    -0.7159136374
  119      C       1.4983991652    -0.0657226887    -2.5139135855
  120      C       4.8969844650    -2.2462900789     2.4577288812
  121      C       4.2577097991    -2.1587759776    -3.1227146660
  122      C       4.6267048422     3.0484363461     0.5798199353
  123      C       4.3061031488    -3.7102903577     0.1659384340
  124      C       1.1561633698     1.3266689810    -0.5508139704
  125      C       6.8933484565     0.7386864580    -2.3128039912
  126      C       5.9611216540    -2.6529606225     1.6173479485
  127      C       7.8883130090     0.6218276687    -0.1625138800
  128      C       7.2037167041    -0.5748332093    -2.0510796432
  129      C       6.4918945544    -2.8597803554    -0.5150972973
  130      C       3.8563053808    -3.5711926903    -1.1384015550
  131      C       6.3051136302     2.4265386476    -0.7995727547
  132      C       2.0552301263    -2.2363329695    -2.0214907087
  133      C       7.5638402595     0.8060828956     1.2541785518
  134      C       6.9845381002    -0.3986161385     1.9790256015
  135      C       2.9489392751    -1.7845028356    -3.1049289799
  136      C       1.6562058077    -1.1648112789     1.7629538820
  137      C       0.9134088822    -1.0584788627    -0.2867893079
  138      C       0.8576600939     0.2255778128     0.2180943684
  139      C       1.9570138067     2.3272875605    -0.0362549007
  140      C       5.9534142941    -0.0432062049     2.8172931456
  141      C       7.2498163548     1.5131276387    -1.2075250694
  142      C       2.8677525220     2.7841289354    -1.0324757349
  143      C       5.6758797260    -3.3855772714     0.4938325332
  144      C       5.1908144379     2.7789013918    -1.6087543204
  145      C       6.4302888468    -1.5979331851    -2.6746001234
  146      C       3.5679269668    -0.5050055672     3.1083473682
  147      C       1.5280422550     1.1829003981    -1.9227125415
  148      C       7.6782863846    -0.7259757827    -0.7627169067
  149      C       2.1424125826     1.1479975185     2.1307710084
  150      C       6.0362716064    -2.7134529901    -1.8279107005
  151      C       5.8034804555     1.0581357287    -3.2304743589
  152      C       2.2049889155    -2.9975806502     0.2332128802
  153      C       3.2474907497    -3.3689867746     1.0901384408
  154      C       5.0011230830     0.0684256653    -3.7274910964
  155      C       4.8798136347    -0.9411774399     3.0389105757
  156      C       6.8584467504    -1.6577218295     1.3373186355
  157      C       2.7867017724    -1.4789582466     2.5194930790
  158      C       6.5461235651     1.8791158738     1.6806993107
  159      C       3.6076801316     1.7646959943    -3.0201519186
  160      C       7.2368018445    -1.8242260201     0.0123790983
  161      C       5.3138235700    -1.2837778356    -3.4691016666
  162      C       3.2508908211     0.8191766639     2.8831996366
  163      C       2.5800912441    -0.4645721501    -3.3667707561
  164      C       2.5110907484     2.1823914359     1.2817317668
  165      C       1.2264300838    -1.1878516554    -1.6563353670
  166      C       4.9446476158     2.0809594520    -2.7902076391
  167      C       3.6403115502     0.4756807155    -3.6348126393
  168      C       5.9478318234     2.6005624700     0.5581291345
  169      C       5.6543338612     1.3434845995     2.5980843236
  170      C       1.3504929097    -1.9193727098     0.6517821261
  171      C       2.6076749900     2.0482044331    -2.1459009925
  172      C       4.7293054379    -3.0940101767    -2.1741702304
  173      C       3.5871605141    -2.5723018909     2.1865268971
  174      C       2.5458357570    -3.1589595359    -1.1144392581
  175      C       4.2723685926     1.6748026157     2.5564866236
  176      C       1.2762315593     0.1530064236     1.5787119936
 ----------------------------------------------------------------

    9   -5804.2109330830      9.81E-06 Convergence criterion met
 Total energy in the final basis set = -5804.2109330830

                    Orbital Energies (a.u.)
 --------------------------------------------------------------

 Alpha MOs
 -- Occupied --
-19.197 -19.186 -19.139 -19.138 -10.321 -10.318 -10.249 -10.242
-10.239 -10.237 -10.236 -10.235 -10.234 -10.234 -10.230 -10.230
-10.229 -10.229 -10.228 -10.227 -10.227 -10.226 -10.225 -10.224
-10.223 -10.223 -10.222 -10.222 -10.222 -10.222 -10.222 -10.221
-10.221 -10.221 -10.221 -10.221 -10.220 -10.220 -10.220 -10.220
-10.220 -10.219 -10.219 -10.219 -10.219 -10.219 -10.218 -10.218
-10.218 -10.218 -10.217 -10.217 -10.217 -10.217 -10.217 -10.217
-10.217 -10.217 -10.216 -10.216 -10.216 -10.216 -10.216 -10.216
-10.216 -10.216 -10.216 -10.216 -10.216 -10.215 -10.215 -10.215
-10.215 -10.215 -10.215 -10.215 -10.215 -10.215 -10.215 -10.214
-10.214 -10.214 -10.214 -10.214 -10.214 -10.214 -10.214 -10.214
-10.214 -10.213 -10.213 -10.213 -10.213 -10.213 -10.213 -10.212
-10.212 -10.212 -10.212 -10.212 -10.212 -10.211 -10.211 -10.211
-10.211 -10.211 -10.211 -10.211 -10.211 -10.210 -10.210 -10.210
-10.210 -10.210 -10.210 -10.209 -10.209 -10.209 -10.209 -10.208
-10.208 -10.208 -10.208 -10.208 -10.207 -10.207 -10.207 -10.207
-10.207 -10.206 -10.206 -10.206 -10.205 -10.204 -10.202 -10.202
-10.201 -10.201 -10.199 -10.198 -10.198 -10.196 -10.195 -10.194
-10.193 -10.193 -10.192 -10.190  -1.077  -1.069  -1.000  -0.994
 -0.988  -0.982  -0.971  -0.967  -0.966  -0.964  -0.964  -0.958
 -0.942  -0.935  -0.932  -0.929  -0.928  -0.927  -0.926  -0.923
 -0.920  -0.916  -0.903  -0.898  -0.892  -0.890  -0.888  -0.880
 -0.880  -0.872  -0.854  -0.853  -0.845  -0.842  -0.842  -0.841
 -0.838  -0.836  -0.829  -0.818  -0.818  -0.806  -0.803  -0.801
 -0.798  -0.796  -0.796  -0.792  -0.792  -0.788  -0.787  -0.786
 -0.774  -0.772  -0.771  -0.769  -0.768  -0.768  -0.765  -0.764
 -0.752  -0.748  -0.744  -0.741  -0.734  -0.734  -0.718  -0.718
 -0.717  -0.714  -0.713  -0.713  -0.712  -0.711  -0.710  -0.708
 -0.708  -0.707  -0.706  -0.705  -0.701  -0.697  -0.675  -0.674
 -0.661  -0.659  -0.658  -0.658  -0.653  -0.648  -0.633  -0.631
 -0.631  -0.631  -0.628  -0.625  -0.625  -0.621  -0.619  -0.618
 -0.615  -0.615  -0.614  -0.613  -0.613  -0.609  -0.608  -0.608
 -0.606  -0.606  -0.604  -0.602  -0.569  -0.564  -0.563  -0.563
 -0.563  -0.559  -0.559  -0.558  -0.557  -0.556  -0.553  -0.546
 -0.539  -0.538  -0.535  -0.532  -0.530  -0.528  -0.527  -0.526
 -0.524  -0.521  -0.521  -0.520  -0.518  -0.517  -0.515  -0.511
 -0.509  -0.504  -0.502  -0.496  -0.495  -0.492  -0.490  -0.487
 -0.486  -0.484  -0.482  -0.481  -0.479  -0.478  -0.477  -0.475
 -0.474  -0.473  -0.471  -0.469  -0.469  -0.468  -0.468  -0.467
 -0.467  -0.465  -0.465  -0.463  -0.462  -0.461  -0.458  -0.455
 -0.455  -0.454  -0.452  -0.452  -0.451  -0.448  -0.447  -0.445
 -0.445  -0.444  -0.443  -0.440  -0.439  -0.436  -0.434  -0.434
 -0.432  -0.431  -0.430  -0.429  -0.428  -0.427  -0.426  -0.426
 -0.424  -0.424  -0.423  -0.422  -0.421  -0.420  -0.419  -0.418
 -0.417  -0.416  -0.416  -0.415  -0.415  -0.413  -0.413  -0.412
 -0.411  -0.410  -0.408  -0.408  -0.405  -0.402  -0.400  -0.399
 -0.395  -0.394  -0.392  -0.391  -0.390  -0.387  -0.386  -0.380
 -0.377  -0.375  -0.375  -0.370  -0.369  -0.368  -0.368  -0.366
 -0.365  -0.363  -0.363  -0.362  -0.361  -0.360  -0.360  -0.359
 -0.359  -0.358  -0.356  -0.355  -0.354  -0.354  -0.351  -0.351
 -0.350  -0.349  -0.347  -0.347  -0.347  -0.346  -0.344  -0.344
 -0.343  -0.342  -0.341  -0.340  -0.340  -0.338  -0.336  -0.336
 -0.333  -0.332  -0.332  -0.331  -0.329  -0.326  -0.325  -0.322
 -0.307  -0.305  -0.301  -0.291  -0.290  -0.290  -0.273  -0.273
 -0.269  -0.269  -0.268  -0.268  -0.267  -0.266  -0.266  -0.265
 -0.262  -0.262  -0.261  -0.260  -0.257  -0.257  -0.255  -0.253
 -0.249  -0.247  -0.246  -0.240  -0.225  -0.220  -0.212  -0.211
 -0.210  -0.209  -0.207  -0.207  -0.200  -0.198

          Ground-State Mulliken Net Atomic Charges

     Atom                 Charge (a.u.)
  ----------------------------------------
      1 O                    -0.502549
      2 C                    -0.078434
      3 H                     0.126557
      4 H                     0.125284
      5 H                     0.135507
      6 O                    -0.477879
      7 C                     0.590149
      8 C                    -0.258860
      9 H                     0.140622
     10 H                     0.146037
     11 C                    -0.181004
     12 H                     0.111146
     13 H                     0.141642
     14 C                    -0.194105
     15 H                     0.111074
     16 H                     0.101798
     17 C                     0.004416
     18 C                     0.094635
     19 C                    -0.085406
     20 H                     0.085537
     21 C                    -0.094730
     22 H                     0.087903
     23 C                    -0.071478
     24 H                     0.091753
     25 C                    -0.107003
     26 H                     0.081593
     27 C                    -0.106533
     28 H                     0.101961
     29 C                     0.003552
     30 C                     0.011391
     31 C                     0.027310
     32 C                     0.046093
     33 C                    -0.001530
     34 C                    -0.000413
     35 C                    -0.003071
     36 C                     0.005377
     37 C                    -0.003068
     38 C                    -0.019518
     39 C                    -0.073483
     40 C                     0.009153
     41 C                    -0.020105
     42 C                    -0.001814
     43 C                    -0.004516
     44 C                    -0.011545
     45 C                    -0.076334
     46 C                     0.009838
     47 C                    -0.010500
     48 C                     0.000308
     49 C                     0.006119
     50 C                     0.013347
     51 C                     0.006877
     52 C                    -0.009531
     53 C                     0.040336
     54 C                    -0.004960
     55 C                     0.020695
     56 C                    -0.014244
     57 C                    -0.003984
     58 C                    -0.026752
     59 C                    -0.028581
     60 C                     0.026971
     61 C                    -0.011640
     62 C                    -0.032828
     63 C                     0.005094
     64 C                     0.021240
     65 C                    -0.035898
     66 C                     0.002091
     67 C                     0.002332
     68 C                    -0.013985
     69 C                    -0.003448
     70 C                    -0.001218
     71 C                     0.014789
     72 C                     0.034318
     73 C                     0.008671
     74 C                     0.027298
     75 C                     0.000360
     76 C                    -0.016465
     77 C                    -0.019346
     78 C                    -0.009675
     79 C                    -0.027552
     80 C                     0.012732
     81 C                    -0.008593
     82 C                    -0.027320
     83 C                     0.024154
     84 C                    -0.004428
     85 C                     0.010224
     86 C                     0.023771
     87 C                    -0.004915
     88 C                    -0.004190
     89 O                    -0.484164
     90 C                    -0.086866
     91 H                     0.130592
     92 H                     0.124261
     93 H                     0.138947
     94 O                    -0.490911
     95 C                     0.607274
     96 C                    -0.262045
     97 H                     0.135437
     98 H                     0.138591
     99 C                    -0.173582
    100 H                     0.119135
    101 H                     0.118248
    102 C                    -0.171424
    103 H                     0.102467
    104 H                     0.108474
    105 C                     0.001301
    106 C                     0.074441
    107 C                    -0.108726
    108 H                     0.097466
    109 C                    -0.087661
    110 H                     0.089575
    111 C                    -0.083881
    112 H                     0.092684
    113 C                    -0.086546
    114 H                     0.095743
    115 C                    -0.104071
    116 H                     0.094939
    117 C                     0.022492
    118 C                    -0.003549
    119 C                    -0.025756
    120 C                    -0.011042
    121 C                     0.025925
    122 C                    -0.014216
    123 C                    -0.003725
    124 C                     0.003018
    125 C                     0.013146
    126 C                    -0.019734
    127 C                    -0.084220
    128 C                     0.004827
    129 C                    -0.008331
    130 C                     0.016674
    131 C                     0.013261
    132 C                    -0.016560
    133 C                    -0.101507
    134 C                     0.054161
    135 C                    -0.004917
    136 C                     0.022184
    137 C                     0.010827
    138 C                     0.022701
    139 C                    -0.024937
    140 C                    -0.022374
    141 C                    -0.000227
    142 C                    -0.018046
    143 C                    -0.010253
    144 C                     0.008773
    145 C                    -0.024039
    146 C                    -0.005835
    147 C                    -0.004987
    148 C                     0.041230
    149 C                    -0.021850
    150 C                    -0.011585
    151 C                     0.000597
    152 C                    -0.017062
    153 C                    -0.034235
    154 C                     0.005410
    155 C                     0.008667
    156 C                     0.031069
    157 C                     0.008206
    158 C                     0.004654
    159 C                    -0.010307
    160 C                    -0.007986
    161 C                    -0.000439
    162 C                     0.001394
    163 C                    -0.011027
    164 C                     0.010608
    165 C                     0.016177
    166 C                    -0.009547
    167 C                    -0.013735
    168 C                     0.013509
    169 C                    -0.007197
    170 C                     0.002884
    171 C                     0.056361
    172 C                    -0.011517
    173 C                     0.018785
    174 C                     0.019044
    175 C                     0.012431
    176 C                    -0.036597
  ----------------------------------------
  Sum of atomic charges =     0.000000

                    Cartesian Multipole Moments
 -----------------------------------------------------------------
    Charge (ESU x 10^10)
                 0.0000
    Dipole Moment (Debye)
         X       1.6235      Y       3.3580      Z      -1.8307
       Tot       4.1549
    Quadrupole Moments (Debye-Ang)
        XX    -796.5344     XY      21.9193     YY    -798.6540
        XZ      -9.8340     YZ      -0.7100     ZZ    -802.6620

 Total job time:  854.25s(wall), 8177.42s(cpu)
        *  Thank you very much for using Q-Chem.  Have a nice day.  *
