 Q-Chem 4.4, Q-Chem, Inc., Pleasanton, CA (2016)
 Q-Chem 4.4.2 for Intel X86 Linux

User input:
--------------------------------------------------------------
$comment
SP
$end

$rem
MEM_STATIC 5000
MEM_TOTAL 20000
JOBTYPE SP
EXCHANGE B3LYP
BASIS 6-31g(d,p)
$end

$molecule
0 1
O          10.530000    -22.956000     10.665000
C           9.839000    -24.173000     10.330000
H           9.015000    -23.967000      9.637000
H           9.362000    -24.519000     11.257000
H          10.433000    -25.020000      9.967000
O          11.435000    -22.878000      8.604000
C          11.146000    -22.352000      9.700000
C          11.533000    -20.934000      9.967000
H          11.460000    -20.478000      8.972000
H          12.595000    -20.779000     10.196000
C          10.524000    -20.187000     10.932000
H           9.518000    -20.398000     10.549000
H          10.533000    -20.616000     11.941000
C          10.669000    -18.634000     11.094000
H           9.978000    -18.266000     11.863000
H          11.669000    -18.449000     11.503000
C          10.312000    -17.779000      9.760000
C           9.034000    -18.176000      9.026000
C           9.074000    -19.173000      8.057000
H           9.983000    -19.638000      7.688000
C           7.890000    -19.550000      7.385000
H           7.879000    -20.331000      6.631000
C           6.658000    -18.919000      7.630000
H           5.743000    -19.146000      7.091000
C           6.659000    -17.937000      8.644000
H           5.777000    -17.391000      8.965000
C           7.824000    -17.520000      9.304000
H           7.772000    -16.775000     10.092000
C          12.415000    -15.892000      5.070000
C          10.892000    -14.147000      5.710000
C          14.018000    -11.020000      6.791000
C          15.633000    -16.794000      8.842000
C          13.883000    -11.640000     10.316000
C          11.169000    -15.522000      5.662000
C          16.052000    -14.441000     10.222000
C          13.915000    -12.597000      4.887000
C          10.547000    -13.897000      9.762000
C          14.921000    -16.508000     10.009000
C          10.755000    -16.288000      9.781000
C          11.394000    -14.165000     10.825000
C          13.965000    -14.983000     11.351000
C          15.783000    -13.078000     10.307000
C          10.146000    -15.082000      7.688000
C          15.442000    -11.498000      8.465000
C          11.497000    -17.335000      8.910000
C          12.950000    -17.557000      9.101000
C          14.273000    -11.012000      9.047000
C          16.402000    -14.657000      6.188000
C          15.898000    -12.496000      6.280000
C          15.176000    -13.064000      5.216000
C          12.944000    -13.556000      4.580000
C          13.641000    -17.754000      7.905000
C          10.237000    -15.100000      9.064000
C          11.764000    -13.184000      5.157000
C          15.151000    -15.362000     10.701000
C          10.249000    -13.860000      6.995000
C          12.399000    -13.215000     11.179000
C          15.560000    -16.880000      6.563000
C          13.311000    -11.660000      5.712000
C          11.637000    -15.582000     10.828000
C          14.616000    -15.382000      4.824000
C          13.723000    -13.638000     11.441000
C          10.615000    -12.642000      9.062000
C          16.802000    -13.468000      8.278000
C          16.714000    -14.686000      9.003000
C          11.643000    -11.716000      9.373000
C          15.028000    -17.423000      7.736000
C          13.594000    -16.893000     10.198000
C          16.414000    -15.840000      6.923000
C          11.485000    -17.139000      7.466000
C          11.357000    -11.754000      7.133000
C          12.977000    -15.950000     11.009000
C          12.527000    -12.026000     10.446000
C          14.567000    -16.586000      5.549000
C          13.386000    -10.804000      8.031000
C          13.316000    -14.919000      4.510000
C          15.265000    -11.503000      7.062000
C          10.502000    -12.681000      7.686000
C          12.078000    -11.158000      8.226000
C          10.702000    -16.081000      6.903000
C          12.716000    -17.519000      6.867000
C          16.690000    -13.444000      6.878000
C          11.976000    -12.002000      5.905000
C          14.588000    -12.698000     10.917000
C          16.508000    -15.880000      8.314000
C          16.194000    -12.509000      9.104000
C          13.170000    -16.940000      5.677000
C          15.548000    -14.438000      5.141000
O           8.597000    -14.764000     -2.045000
C           7.200000    -14.446000     -2.345000
H           6.477000    -14.968000     -1.706000
H           6.965000    -14.788000     -3.361000
H           6.946000    -13.392000     -2.179000
O           8.713000    -13.464000     -0.188000
C           9.210000    -14.203000     -0.987000
C          10.660000    -14.656000     -0.994000
H          10.822000    -15.522000     -1.650000
H          10.826000    -15.026000      0.024000
C          11.586000    -13.489000     -1.486000
H          11.432000    -13.301000     -2.556000
H          11.625000    -12.563000     -0.898000
C          12.975000    -14.113000     -1.511000
H          13.156000    -14.634000     -0.563000
H          12.876000    -14.892000     -2.278000
C          14.059000    -13.117000     -1.938000
C          13.633000    -12.082000     -3.039000
C          13.828000    -10.705000     -2.813000
H          13.954000    -10.263000     -1.828000
C          13.756000     -9.812000     -3.887000
H          13.898000     -8.742000     -3.768000
C          13.474000    -10.262000     -5.175000
H          13.645000     -9.552000     -5.979000
C          13.246000    -11.625000     -5.425000
H          13.111000    -11.931000     -6.459000
C          13.276000    -12.473000     -4.323000
H          13.266000    -13.534000     -4.553000
C          19.135000    -13.227000     -3.986000
C          19.080000    -11.092000     -2.700000
C          21.847000    -12.428000      0.609000
C          17.828000    -17.053000     -0.963000
C          19.236000    -13.160000      2.902000
C          18.411000    -12.093000     -3.480000
C          18.635000    -16.403000      1.628000
C          22.027000    -12.825000     -1.800000
C          16.553000    -11.363000      0.339000
C          16.869000    -16.560000     -0.039000
C          15.221000    -12.825000     -0.991000
C          16.157000    -12.481000      1.162000
C          16.455000    -15.145000      1.694000
C          19.305000    -15.488000      2.437000
C          16.917000    -11.248000     -1.994000
C          21.258000    -14.120000      1.888000
C          15.441000    -13.767000     -2.084000
C          15.849000    -15.173000     -1.793000
C          20.567000    -13.058000      2.391000
C          21.158000    -16.249000     -1.512000
C          22.192000    -14.738000     -0.254000
C          22.245000    -14.260000     -1.570000
C          21.164000    -12.368000     -2.872000
C          16.812000    -15.602000     -2.667000
C          16.094000    -11.591000     -0.955000
C          20.472000    -11.219000     -2.428000
C          17.264000    -16.257000      1.281000
C          18.143000    -10.580000     -1.779000
C          17.026000    -12.909000      2.182000
C          19.064000    -16.523000     -2.752000
C          21.820000    -11.975000     -0.702000
C          15.426000    -13.372000      0.405000
C          20.700000    -14.755000     -3.386000
C          17.242000    -14.232000      2.410000
C          17.790000    -10.738000      0.569000
C          20.805000    -16.259000      0.916000
C          19.597000    -16.944000      0.714000
C          18.594000    -11.177000      1.552000
C          17.756000    -16.618000     -2.286000
C          15.935000    -15.603000     -0.504000
C          19.954000    -16.857000     -1.727000
C          16.417000    -13.443000     -3.177000
C          19.944000    -10.535000     -0.157000
C          15.717000    -14.736000      0.606000
C          18.235000    -12.226000      2.461000
C          19.472000    -15.436000     -3.601000
C          20.919000    -12.013000      1.516000
C          20.497000    -13.415000     -3.602000
C          22.063000    -13.764000      0.822000
C          18.583000    -10.302000     -0.491000
C          19.931000    -11.086000      1.138000
C          17.152000    -12.219000     -2.984000
C          17.169000    -14.558000     -3.504000
C          21.592000    -15.938000     -0.203000
C          20.861000    -11.051000     -1.105000
C          18.576000    -14.404000      2.835000
C          19.131000    -17.276000     -0.615000
C          20.580000    -15.351000      1.958000
C          18.499000    -14.472000     -3.980000
C          21.540000    -15.174000     -2.344000
$end

--------------------------------------------------------------

             Standard Nuclear Orientation (Angstroms)
    I     Atom           X                Y                Z
 ----------------------------------------------------------------
    1      O      10.1834400478     0.5545544750     5.8660147943
    2      C      10.5759496806     1.4107377701     6.9539860041
    3      H      10.3681582170     2.4591025148     6.7102339377
    4      H      11.6698555047     1.3374257657     7.0215833260
    5      H      10.1995311210     1.1758817911     7.9565655456
    6      O       8.0111152354     0.9025470061     6.3484421029
    7      C       8.9204537213     0.5114871750     5.5858224554
    8      C       8.5728432128    -0.0691168880     4.2539636580
    9      H       7.6719189985     0.4931311895     3.9791861855
   10      H       8.1842359582    -1.0950048350     4.2830896251
   11      C       9.6801015857     0.1964586004     3.1536166419
   12      H       9.9284689242     1.2629788755     3.2176023274
   13      H      10.6177790692    -0.3218473269     3.3866893828
   14      C       9.3329572520    -0.1353317785     1.6608058850
   15      H      10.2178112636    -0.0004750518     1.0258940475
   16      H       9.1158172612    -1.2088031811     1.6159129882
   17      C       8.1920663304     0.8163702473     1.0045580971
   18      C       8.3379057981     2.3150311177     1.2543488997
   19      C       7.7822263663     2.8834558008     2.3957006197
   20      H       7.1416573217     2.3576426136     3.0970270711
   21      C       7.9263401049     4.2682887227     2.6345269349
   22      H       7.5165926764     4.7463072895     3.5189495119
   23      C       8.5845269946     5.1186027152     1.7291175622
   24      H       8.6628487428     6.1943398380     1.8553330390
   25      C       9.1604405184     4.4927118385     0.6025718581
   26      H       9.7266667548     5.0154037255    -0.1624523511
   27      C       9.0055665792     3.1271164043     0.3235070395
   28      H       9.4845257669     2.6863876925    -0.5454171799
   29      C       2.7785526049     1.4365343779     0.4672094256
   30      C       3.6164657635     2.2293849566    -1.6407382726
   31      C       2.1070649657    -1.2212166998    -4.1968336230
   32      C       4.4919080515    -3.2252209231     1.3213538086
   33      C       5.2365713505    -2.9619575953    -4.2621093633
   34      C       3.7975906288     2.1319004761    -0.2524484760
   35      C       4.7982912851    -4.5074217926    -1.1032410534
   36      C       1.0067546402     0.0176624842    -2.3591041665
   37      C       7.0573137969     0.3113377081    -2.6808769956
   38      C       5.7361603947    -3.2811335956     0.6894211544
   39      C       7.5947401556     0.3158610546    -0.3417193591
   40      C       7.5740152407    -0.9511369851    -2.4392589762
   41      C       6.9227167206    -3.3250204912    -1.2160139733
   42      C       4.6466995840    -4.4356664874    -2.4849885456
   43      C       5.8649191726     1.8607253769    -1.2511585228
   44      C       2.8899040634    -3.2804754269    -3.7438960532
   45      C       6.7782625747     0.2470260962     0.9751102079
   46      C       6.2597946233    -1.0562099407     1.4544230656
   47      C       3.8314237969    -2.6534147267    -4.5574170853
   48      C       1.3608070548    -2.6059706993    -0.0980058038
   49      C       1.1244343472    -2.4041632680    -2.2970516659
   50      C       0.7629582659    -1.1797890572    -1.7086242407
   51      C       1.4960462132     1.0729799910    -1.5821423165
   52      C       4.9789659447    -0.9740817326     2.0016331290
   53      C       6.9552413793     1.0430764943    -1.4624137953
   54      C       2.4688958524     1.7209741834    -2.2873941198
   55      C       5.8886406462    -3.9380815789    -0.4896671036
   56      C       4.9226497770     2.0518675507    -2.2805928604
   57      C       7.1085643405    -2.0596085243    -3.2089909466
   58      C       2.6771774204    -1.9269629396     1.7986848729
   59      C       1.7445548003     0.0043784535    -3.5333632769
   60      C       7.8252603844    -1.0443376711    -1.0267659639
   61      C       1.3310855207    -0.3155461409     0.4755697992
   62      C       6.7663212623    -3.2771681243    -2.5757711618
   63      C       6.1183108223     0.5329805886    -3.7480212441
   64      C       2.5658156325    -4.1634739882    -1.5346542761
   65      C       3.5257769134    -4.3847778894    -0.5117212761
   66      C       5.6121761814    -0.5696552020    -4.4821895072
   67      C       4.0528024560    -2.0714012143     2.0001677415
   68      C       6.6626289817    -2.2406230663     0.7516207980
   69      C       2.2693179244    -2.9192458233     0.9101235017
   70      C       5.5454614279     1.0211004630     1.0437120081
   71      C       3.9244943734     0.8822575914    -4.1020324925
   72      C       7.3939079769    -2.2359293171    -0.4285774905
   73      C       6.1294277876    -1.8652144252    -4.1943317734
   74      C       2.2676822099    -0.5706411510     1.4930938420
   75      C       3.3893020911    -1.3780450685    -4.7580401956
   76      C       1.6079601132     0.9068081581    -0.1818154972
   77      C       1.8268365559    -2.3743598784    -3.5234304390
   78      C       5.0540416416     1.3735744419    -3.4864890568
   79      C       4.3029830129    -0.3591481273    -4.7228095793
   80      C       5.2005064676     1.8975457652    -0.0343750513
   81      C       4.5308633152     0.3428747867     1.7711476423
   82      C       1.4647885906    -3.3157446062    -1.3291929713
   83      C       2.6670795289     1.0460333497    -3.5148916153
   84      C       5.6521642401    -3.7935487322    -3.2069654247
   85      C       3.3762281108    -3.7457664557     0.7179504457
   86      C       3.3006904286    -4.1756855455    -2.7310784952
   87      C       3.1712088824     0.5590109409     1.5219850725
   88      C       0.8736442262    -1.3423917813    -0.2968190231
   89      O      -1.4401865967     8.3879067662    -0.1272604799
   90      C      -1.0648018769     9.6954616000    -0.6677414406
   91      H      -0.0373669108     9.9977005925    -0.4299117078
   92      H      -1.6919804032    10.4679206185    -0.2047088707
   93      H      -1.0763486254     9.7353572491    -1.7637628865
   94      O      -0.3124717258     7.1854118787    -1.6874432305
   95      C      -1.0267664981     7.2586724822    -0.7303921022
   96      C      -1.6459849886     6.0831063314     0.0060661017
   97      H      -2.0402196178     6.3699611231     0.9903574131
   98      H      -0.7956561805     5.4237021667     0.2132063094
   99      C      -2.8241421841     5.4803775960    -0.8366038778
  100      H      -3.6755789521     6.1721901115    -0.8568738866
  101      H      -2.6030586911     5.0570384582    -1.8248584318
  102      C      -3.3825288415     4.3791731037     0.0549537518
  103      H      -2.5577524075     3.7569284719     0.4230046343
  104      H      -3.7590528166     4.9377996275     0.9216123369
  105      C      -4.5421899011     3.6224671955    -0.6023006856
  106      C      -5.5038188567     4.4919780857    -1.4878076385
  107      C      -5.7774405890     4.0976550759    -2.8125228954
  108      H      -5.1469285610     3.4253696158    -3.3886755163
  109      C      -6.8584019424     4.6671513690    -3.4931883966
  110      H      -7.1127665196     4.3992864286    -4.5143504971
  111      C      -7.6572122455     5.6343744911    -2.8870947307
  112      H      -8.5908727076     5.8689427557    -3.3900985782
  113      C      -7.3903328960     6.0682018997    -1.5783464003
  114      H      -8.0922498589     6.7637259291    -1.1260457239
  115      C      -6.2769339137     5.5152294760    -0.9546700382
  116      H      -6.1828674563     5.7316816352     0.1050567966
  117      C      -8.7608143867     0.4828081432     0.9201737754
  118      C      -8.2352189885    -0.3341725463    -1.3757656904
  119      C      -6.5610861300    -4.3337019258    -0.1141358261
  120      C      -4.6117878758     0.2488059551     3.7865087152
  121      C      -3.1650211135    -3.3255021102    -0.3616626639
  122      C      -8.2763934007     0.7267167346    -0.4109959761
  123      C      -3.0590010812    -1.8776121909     2.8622635968
  124      C      -8.5289493478    -3.1526963333     0.7379382003
  125      C      -4.3889560304     0.1644572781    -2.1834293305
  126      C      -3.4969049636     0.5146999589     2.9481517084
  127      C      -4.4267631423     2.1143396195    -0.8133572606
  128      C      -3.2190865265     0.1404602279    -1.3379126331
  129      C      -2.2336706578    -0.1857846240     1.1901783190
  130      C      -2.9719372024    -2.9481932872     1.9751999028
  131      C      -6.5214658162     1.1097426097    -1.7994401962
  132      C      -4.7682796282    -4.3967240185     1.1615988889
  133      C      -5.1897299929     2.5945050512     0.3345694545
  134      C      -4.7878531852     2.2066844981     1.7187917091
  135      C      -4.2841141658    -4.1731573584    -0.0929670733
  136      C      -6.9556283113    -2.3091136555     3.7997857115
  137      C      -6.8393922103    -3.9742646731     2.3339745854
  138      C      -8.0736867558    -3.3460643048     2.1217712105
  139      C      -9.0945215448    -1.8869015938     0.3128573053
  140      C      -5.8804170107     1.9053851608     2.4874327154
  141      C      -5.1615194894     1.2656969846    -1.8263329704
  142      C      -8.6811782784    -1.6375272192    -1.0149833348
  143      C      -2.6903039554    -0.5528717137     2.5010280816
  144      C      -7.1388938684    -0.0865987512    -2.2273127807
  145      C      -2.7069093292    -1.1045849881    -0.9301358207
  146      C      -6.8460805702     0.1368229565     3.8536873108
  147      C      -7.7443162653    -3.6391796638    -0.3197185942
  148      C      -3.2388762026     1.2321929377    -0.4958799384
  149      C      -8.6571100415    -1.0317948390     2.6051759163
  150      C      -2.2816440187    -1.3040548146     0.3459246027
  151      C      -4.9883304778    -1.0457994202    -2.5703698892
  152      C      -4.7780772495    -3.3232056615     3.3000039824
  153      C      -4.1545914705    -2.1476225475     3.7456078707
  154      C      -4.4708726983    -2.2155276991    -2.1587885485
  155      C      -5.7774430945     0.9889419568     3.5910998873
  156      C      -3.6585385061     1.4727746990     1.9183957226
  157      C      -6.3650397818    -1.1359545229     4.1744960509
  158      C      -6.6663643420     2.3409828016     0.4210475897
  159      C      -6.7263076405    -2.4750925159    -2.1901625393
  160      C      -2.8629392168     0.9876874523     0.8399592924
  161      C      -3.2670546444    -2.3224151075    -1.3874519325
  162      C      -8.0352638745     0.1672507361     3.0451384755
  163      C      -5.4553887152    -4.0784415806    -0.8680147178
  164      C      -9.0835286986    -0.8510421020     1.3132933454
  165      C      -6.1447479495    -4.5240461434     1.1771242554
  166      C      -6.3747781526    -1.1726308259    -2.6353440363
  167      C      -5.5103436612    -3.1197050809    -1.8957117928
  168      C      -7.1997023175     1.5240280167    -0.6390398989
  169      C      -7.0227049206     1.9754761323     1.7075483735
  170      C      -6.1798647750    -3.4040637605     3.3550012654
  171      C      -7.8336879782    -2.6910135032    -1.3340457746
  172      C      -2.5606970628    -2.6378382113     0.7105014112
  173      C      -4.9251371687    -1.0133974180     4.2075750586
  174      C      -4.0456118225    -3.7689604543     2.1929131718
  175      C      -8.1083160183     1.1110301578     1.9851338589
  176      C      -8.1145561268    -2.2651247326     2.9943514852
 ----------------------------------------------------------------

    9   -5804.2494784668      8.75E-06 Convergence criterion met
 Total energy in the final basis set = -5804.2494784668

                    Orbital Energies (a.u.)
 --------------------------------------------------------------

 Alpha MOs
 -- Occupied --
-19.210 -19.192 -19.131 -19.123 -10.315 -10.309 -10.253 -10.250
-10.246 -10.245 -10.242 -10.240 -10.234 -10.232 -10.230 -10.225
-10.224 -10.224 -10.223 -10.223 -10.222 -10.222 -10.222 -10.222
-10.221 -10.221 -10.220 -10.220 -10.219 -10.219 -10.219 -10.218
-10.217 -10.217 -10.217 -10.217 -10.217 -10.217 -10.216 -10.216
-10.216 -10.216 -10.216 -10.216 -10.215 -10.215 -10.215 -10.214
-10.214 -10.214 -10.214 -10.214 -10.214 -10.214 -10.214 -10.213
-10.213 -10.213 -10.213 -10.213 -10.212 -10.212 -10.212 -10.212
-10.212 -10.212 -10.212 -10.212 -10.212 -10.212 -10.212 -10.212
-10.211 -10.211 -10.211 -10.211 -10.211 -10.211 -10.211 -10.211
-10.211 -10.211 -10.211 -10.210 -10.210 -10.210 -10.210 -10.210
-10.209 -10.209 -10.209 -10.209 -10.209 -10.209 -10.209 -10.209
-10.209 -10.209 -10.208 -10.208 -10.208 -10.208 -10.208 -10.208
-10.208 -10.208 -10.208 -10.207 -10.207 -10.207 -10.207 -10.207
-10.207 -10.207 -10.207 -10.206 -10.206 -10.206 -10.206 -10.206
-10.206 -10.205 -10.205 -10.205 -10.205 -10.205 -10.204 -10.204
-10.204 -10.203 -10.203 -10.203 -10.203 -10.203 -10.202 -10.202
-10.202 -10.202 -10.201 -10.201 -10.201 -10.201 -10.201 -10.200
-10.198 -10.197 -10.196 -10.196  -1.122  -1.096  -1.015  -0.995
 -0.983  -0.981  -0.968  -0.964  -0.961  -0.960  -0.959  -0.958
 -0.935  -0.929  -0.927  -0.927  -0.924  -0.923  -0.922  -0.918
 -0.918  -0.917  -0.897  -0.894  -0.891  -0.888  -0.886  -0.881
 -0.873  -0.871  -0.857  -0.853  -0.842  -0.838  -0.838  -0.837
 -0.833  -0.832  -0.821  -0.818  -0.807  -0.801  -0.798  -0.796
 -0.795  -0.795  -0.793  -0.791  -0.791  -0.789  -0.779  -0.776
 -0.772  -0.770  -0.767  -0.766  -0.764  -0.763  -0.761  -0.761
 -0.754  -0.752  -0.749  -0.746  -0.733  -0.732  -0.716  -0.715
 -0.714  -0.711  -0.711  -0.710  -0.709  -0.709  -0.707  -0.707
 -0.706  -0.706  -0.705  -0.701  -0.700  -0.699  -0.673  -0.669
 -0.659  -0.656  -0.655  -0.654  -0.646  -0.644  -0.631  -0.630
 -0.625  -0.623  -0.622  -0.621  -0.619  -0.618  -0.615  -0.614
 -0.613  -0.613  -0.613  -0.612  -0.610  -0.610  -0.608  -0.607
 -0.606  -0.605  -0.600  -0.599  -0.581  -0.569  -0.565  -0.564
 -0.561  -0.561  -0.557  -0.555  -0.555  -0.553  -0.552  -0.550
 -0.535  -0.535  -0.533  -0.531  -0.529  -0.525  -0.525  -0.522
 -0.521  -0.520  -0.518  -0.517  -0.514  -0.512  -0.511  -0.509
 -0.509  -0.507  -0.504  -0.499  -0.497  -0.489  -0.489  -0.485
 -0.483  -0.482  -0.479  -0.479  -0.479  -0.477  -0.473  -0.472
 -0.471  -0.471  -0.469  -0.468  -0.468  -0.466  -0.465  -0.463
 -0.462  -0.462  -0.462  -0.461  -0.461  -0.460  -0.459  -0.457
 -0.456  -0.454  -0.454  -0.451  -0.450  -0.444  -0.442  -0.441
 -0.440  -0.439  -0.438  -0.436  -0.436  -0.435  -0.432  -0.431
 -0.429  -0.428  -0.427  -0.426  -0.425  -0.425  -0.424  -0.421
 -0.421  -0.421  -0.419  -0.419  -0.419  -0.418  -0.417  -0.417
 -0.415  -0.414  -0.413  -0.413  -0.413  -0.412  -0.411  -0.409
 -0.408  -0.408  -0.407  -0.405  -0.398  -0.398  -0.396  -0.396
 -0.392  -0.392  -0.390  -0.389  -0.387  -0.386  -0.382  -0.381
 -0.380  -0.377  -0.374  -0.373  -0.370  -0.369  -0.367  -0.364
 -0.364  -0.364  -0.362  -0.361  -0.360  -0.358  -0.358  -0.357
 -0.356  -0.355  -0.354  -0.353  -0.352  -0.352  -0.351  -0.350
 -0.349  -0.348  -0.347  -0.346  -0.345  -0.344  -0.343  -0.342
 -0.341  -0.341  -0.338  -0.338  -0.336  -0.334  -0.332  -0.332
 -0.329  -0.329  -0.327  -0.326  -0.326  -0.326  -0.324  -0.323
 -0.318  -0.305  -0.299  -0.299  -0.286  -0.283  -0.270  -0.269
 -0.268  -0.267  -0.265  -0.265  -0.263  -0.263  -0.261  -0.261
 -0.260  -0.260  -0.259  -0.257  -0.256  -0.256  -0.253  -0.252
 -0.251  -0.250  -0.245  -0.244  -0.219  -0.217  -0.211  -0.209
 -0.207  -0.205  -0.204  -0.202  -0.198  -0.195

          Ground-State Mulliken Net Atomic Charges

     Atom                 Charge (a.u.)
  ----------------------------------------
      1 O                    -0.417250
      2 C                    -0.096000
      3 H                     0.131393
      4 H                     0.120260
      5 H                     0.143758
      6 O                    -0.510556
      7 C                     0.604213
      8 C                    -0.274548
      9 H                     0.141150
     10 H                     0.140165
     11 C                    -0.195542
     12 H                     0.112877
     13 H                     0.113636
     14 C                    -0.192195
     15 H                     0.112424
     16 H                     0.114659
     17 C                     0.011556
     18 C                     0.074961
     19 C                    -0.106343
     20 H                     0.109923
     21 C                    -0.105835
     22 H                     0.095193
     23 C                    -0.072586
     24 H                     0.098518
     25 C                    -0.097897
     26 H                     0.087512
     27 C                    -0.095562
     28 H                     0.095593
     29 C                    -0.014520
     30 C                    -0.015454
     31 C                    -0.016554
     32 C                     0.009082
     33 C                    -0.020973
     34 C                    -0.011128
     35 C                    -0.000998
     36 C                    -0.016136
     37 C                     0.007977
     38 C                     0.008684
     39 C                    -0.085516
     40 C                     0.006423
     41 C                    -0.016793
     42 C                    -0.012776
     43 C                     0.013729
     44 C                    -0.012351
     45 C                    -0.069167
     46 C                     0.020423
     47 C                    -0.012443
     48 C                     0.007604
     49 C                     0.008508
     50 C                     0.006879
     51 C                     0.003851
     52 C                     0.026328
     53 C                     0.038941
     54 C                     0.009382
     55 C                     0.015343
     56 C                    -0.005970
     57 C                    -0.012970
     58 C                    -0.041066
     59 C                    -0.008383
     60 C                     0.003611
     61 C                     0.002408
     62 C                     0.003568
     63 C                    -0.031436
     64 C                     0.008375
     65 C                    -0.021965
     66 C                     0.007826
     67 C                    -0.008533
     68 C                    -0.025675
     69 C                     0.019472
     70 C                     0.022151
     71 C                    -0.011399
     72 C                     0.008121
     73 C                    -0.004541
     74 C                     0.008593
     75 C                     0.013185
     76 C                     0.000830
     77 C                     0.017230
     78 C                     0.019249
     79 C                     0.009373
     80 C                    -0.004129
     81 C                     0.001344
     82 C                    -0.021373
     83 C                     0.007862
     84 C                     0.020611
     85 C                    -0.003822
     86 C                     0.010186
     87 C                    -0.017766
     88 C                     0.010385
     89 O                    -0.453017
     90 C                    -0.097839
     91 H                     0.124252
     92 H                     0.124546
     93 H                     0.136698
     94 O                    -0.462960
     95 C                     0.578319
     96 C                    -0.250923
     97 H                     0.120678
     98 H                     0.130753
     99 C                    -0.180391
    100 H                     0.121529
    101 H                     0.123532
    102 C                    -0.196193
    103 H                     0.114604
    104 H                     0.105358
    105 C                     0.020724
    106 C                     0.078303
    107 C                    -0.122216
    108 H                     0.099177
    109 C                    -0.082863
    110 H                     0.092097
    111 C                    -0.085392
    112 H                     0.088488
    113 C                    -0.082193
    114 H                     0.099760
    115 C                    -0.116021
    116 H                     0.087279
    117 C                    -0.030531
    118 C                    -0.001678
    119 C                     0.007924
    120 C                     0.016954
    121 C                    -0.018322
    122 C                    -0.000601
    123 C                     0.017847
    124 C                    -0.022002
    125 C                    -0.011644
    126 C                    -0.017874
    127 C                    -0.079998
    128 C                     0.005813
    129 C                    -0.049996
    130 C                    -0.005613
    131 C                     0.013239
    132 C                    -0.001487
    133 C                    -0.080113
    134 C                     0.041233
    135 C                    -0.001815
    136 C                     0.006330
    137 C                     0.009771
    138 C                    -0.025873
    139 C                    -0.015957
    140 C                     0.007913
    141 C                     0.016467
    142 C                    -0.012410
    143 C                    -0.007890
    144 C                    -0.012446
    145 C                     0.006205
    146 C                    -0.007465
    147 C                     0.025402
    148 C                     0.019074
    149 C                     0.020254
    150 C                     0.035124
    151 C                     0.026722
    152 C                    -0.011017
    153 C                    -0.027630
    154 C                     0.019668
    155 C                    -0.004045
    156 C                     0.018548
    157 C                     0.003165
    158 C                     0.008446
    159 C                    -0.014572
    160 C                     0.015883
    161 C                    -0.032894
    162 C                    -0.023817
    163 C                     0.006057
    164 C                     0.019672
    165 C                     0.001594
    166 C                    -0.024926
    167 C                    -0.010695
    168 C                     0.034595
    169 C                     0.021051
    170 C                     0.019413
    171 C                     0.010576
    172 C                     0.005467
    173 C                    -0.020121
    174 C                     0.017091
    175 C                    -0.010778
    176 C                    -0.006551
  ----------------------------------------
  Sum of atomic charges =     0.000000

                    Cartesian Multipole Moments
 -----------------------------------------------------------------
    Charge (ESU x 10^10)
                 0.0000
    Dipole Moment (Debye)
         X       3.1999      Y       5.0126      Z       0.7482
       Tot       5.9938
    Quadrupole Moments (Debye-Ang)
        XX    -738.8802     XY      -5.6471     YY    -771.2374
        XZ      29.8272     YZ       8.1910     ZZ    -815.2781

 Total job time:  850.22s(wall), 8093.64s(cpu)
        *  Thank you very much for using Q-Chem.  Have a nice day.  *
