 Q-Chem 4.4, Q-Chem, Inc., Pleasanton, CA (2016)
 Q-Chem 4.4.2 for Intel X86 Linux

User input:
--------------------------------------------------------------
$comment
SP
$end

$rem
MEM_STATIC 5000
MEM_TOTAL 20000
JOBTYPE SP
EXCHANGE B3LYP
BASIS 6-31g(d,p)
$end

$molecule
0 1
O          20.152000      8.682000     -1.185000
C          20.461000     10.071000     -0.668000
H          21.319000     10.531000     -1.174000
H          20.662000     10.194000      0.403000
H          19.558000     10.676000     -0.820000
O          22.127000      7.964000     -0.141000
C          21.126000      7.762000     -0.795000
C          20.832000      6.454000     -1.452000
H          21.733000      6.101000     -1.966000
H          20.128000      6.604000     -2.279000
C          20.255000      5.382000     -0.538000
H          20.953000      5.381000      0.309000
H          19.304000      5.751000     -0.133000
C          20.099000      4.028000     -1.244000
H          19.323000      4.265000     -1.981000
H          20.909000      3.670000     -1.893000
C          19.700000      2.868000     -0.320000
C          20.347000      2.936000      1.045000
C          21.664000      2.375000      1.214000
H          22.292000      2.174000      0.353000
C          22.160000      2.250000      2.524000
H          23.170000      1.875000      2.659000
C          21.428000      2.675000      3.651000
H          21.973000      2.692000      4.589000
C          20.099000      3.102000      3.502000
H          19.507000      3.352000      4.378000
C          19.584000      3.304000      2.211000
H          18.539000      3.581000      2.106000
C          19.488000     -2.535000      0.381000
C          17.681000     -1.727000      1.805000
C          14.296000     -3.214000     -1.059000
C          19.059000     -0.724000     -4.421000
C          13.868000     -0.117000     -2.483000
C          18.965000     -1.559000      1.218000
C          16.360000     -0.392000     -5.032000
C          16.420000     -4.206000     -0.355000
C          16.201000      1.671000      0.293000
C          18.470000      0.567000     -4.420000
C          18.400000      2.152000     -0.508000
C          16.146000      2.172000     -1.001000
C          16.649000      1.570000     -3.720000
C          15.057000     -0.579000     -4.543000
C          18.004000      0.476000      1.277000
C          14.163000     -2.367000     -3.175000
C          19.637000      1.439000     -0.924000
C          19.775000      1.019000     -2.420000
C          13.570000     -1.480000     -2.265000
C          17.847000     -3.924000     -3.570000
C          15.758000     -4.135000     -2.768000
C          16.621000     -4.498000     -1.727000
C          17.443000     -3.771000      0.489000
C          20.338000     -0.272000     -2.450000
C          17.542000      1.572000      0.607000
C          16.912000     -2.893000      1.415000
C          17.147000      0.678000     -4.689000
C          17.077000     -0.468000      1.839000
C          15.108000      1.696000     -1.866000
C          19.759000     -2.484000     -3.222000
C          15.269000     -3.529000     -0.004000
C          17.386000      2.406000     -1.570000
C          18.965000     -3.923000     -1.432000
C          15.350000      1.444000     -3.233000
C          15.288000      0.692000      0.763000
C          16.049000     -2.638000     -4.653000
C          16.942000     -1.663000     -5.112000
C          14.244000      0.291000     -0.126000
C          20.026000     -1.156000     -3.536000
C          18.819000      1.439000     -3.380000
C          18.705000     -2.953000     -4.060000
C          19.897000      0.148000     -0.234000
C          14.967000     -1.469000      1.089000
C          17.660000      2.059000     -2.924000
C          14.205000      0.767000     -1.418000
C          19.863000     -2.992000     -1.893000
C          13.688000     -1.966000     -0.938000
C          18.704000     -3.621000     -0.080000
C          14.645000     -3.374000     -2.391000
C          15.738000     -0.348000      1.516000
C          14.044000     -1.114000      0.148000
C          19.141000     -0.235000      0.918000
C          20.352000     -0.797000     -1.163000
C          16.481000     -3.796000     -3.918000
C          15.584000     -2.719000      1.075000
C          14.541000      0.356000     -3.629000
C          18.298000     -1.827000     -4.754000
C          14.859000     -1.982000     -4.306000
C          20.136000     -2.152000     -0.820000
C          17.920000     -4.380000     -2.224000
O           1.362000      0.201000     -0.810000
C           0.617000      1.432000     -1.137000
H          -0.082000      1.199000     -1.950000
H           1.297000      2.222000     -1.480000
H           0.070000      1.858000     -0.288000
O          -0.292000     -1.297000     -1.362000
C           0.838000     -1.048000     -0.983000
C           1.887000     -2.125000     -0.612000
H           1.430000     -3.106000     -0.792000
H           1.868000     -2.049000      0.482000
C           3.287000     -1.719000     -1.160000
H           3.227000     -1.652000     -2.254000
H           3.639000     -0.739000     -0.816000
C           4.295000     -2.806000     -0.817000
H           4.692000     -2.571000      0.179000
H           3.785000     -3.772000     -0.723000
C           5.587000     -2.827000     -1.706000
C           5.891000     -1.619000     -2.465000
C           6.212000     -0.421000     -1.790000
H           6.358000     -0.429000     -0.713000
C           6.300000      0.758000     -2.493000
H           6.491000      1.708000     -2.001000
C           6.101000      0.777000     -3.886000
H           6.124000      1.746000     -4.376000
C           5.786000     -0.415000     -4.591000
H           5.727000     -0.352000     -5.674000
C           5.627000     -1.621000     -3.851000
H           5.483000     -2.596000     -4.309000
C           8.040000     -6.256000     -5.174000
C           9.872000     -4.937000     -4.404000
C          11.878000     -8.121000     -1.856000
C           5.701000     -8.319000     -1.318000
C          10.512000     -7.023000      1.183000
C           8.538000     -4.994000     -4.778000
C           7.485000     -8.840000      0.749000
C          10.969000     -8.232000     -4.077000
C           9.205000     -3.646000     -0.622000
C           5.708000     -7.428000     -0.216000
C           6.823000     -3.632000     -1.178000
C           8.488000     -4.260000      0.430000
C           7.022000     -6.473000      1.249000
C           8.818000     -8.718000      1.184000
C           8.635000     -3.619000     -2.959000
C          10.779000     -9.046000     -0.163000
C           5.888000     -4.219000     -2.129000
C           5.312000     -5.548000     -1.762000
C          11.306000     -7.821000      0.342000
C           8.153000    -10.075000     -3.025000
C          10.291000     -9.871000     -2.390000
C          10.155000     -9.342000     -3.706000
C          10.345000     -7.256000     -4.866000
C           5.329000     -6.486000     -2.813000
C           8.234000     -3.338000     -1.613000
C          10.803000     -6.022000     -4.467000
C           6.592000     -7.710000      0.801000
C           9.922000     -4.048000     -3.311000
C           9.122000     -5.239000      1.222000
C           6.216000     -8.715000     -3.479000
C          11.734000     -7.578000     -3.139000
C           7.090000     -4.280000      0.166000
C           8.161000     -8.519000     -4.894000
C           8.418000     -6.378000      1.621000
C          10.476000     -4.092000     -0.911000
C           8.672000    -10.109000     -0.643000
C           7.356000     -9.722000     -0.316000
C          11.114000     -5.056000     -0.092000
C           5.498000     -7.876000     -2.626000
C           5.589000     -6.042000     -0.484000
C           6.853000     -9.654000     -2.684000
C           6.472000     -4.643000     -3.456000
C          11.734000     -5.389000     -2.296000
C           6.411000     -5.466000      0.467000
C          10.447000     -5.607000      0.992000
C           6.862000     -8.086000     -4.557000
C          12.027000     -7.217000     -0.758000
C           8.933000     -7.391000     -5.230000
C          11.191000     -9.245000     -1.477000
C          10.835000     -4.311000     -2.234000
C          11.918000     -5.849000     -0.983000
C           7.750000     -4.284000     -3.851000
C           6.045000     -5.903000     -3.876000
C           9.061000    -10.321000     -1.994000
C          11.655000     -6.241000     -3.372000
C           9.256000     -7.478000      1.638000
C           6.485000     -9.469000     -1.376000
C           9.557000     -9.439000      0.231000
C           6.845000     -6.747000     -4.720000
C           8.814000     -9.494000     -4.108000
$end

--------------------------------------------------------------

             Standard Nuclear Orientation (Angstroms)
    I     Atom           X                Y                Z
 ----------------------------------------------------------------
    1      O      12.2612180698     5.6858991729    -0.7959911170
    2      C      13.2866388291     6.7250229366    -0.3949611051
    3      H      14.2199865007     6.6425603917    -0.9658043870
    4      H      13.5978797100     6.7694786481     0.6556214969
    5      H      12.8250205561     7.7075189858    -0.5566647948
    6      O      13.6378723467     4.0814377099     0.2221500401
    7      C      12.6354040501     4.4086916635    -0.3765845957
    8      C      11.6551117076     3.4244826337    -0.9236755469
    9      H      12.1993938628     2.6285945203    -1.4441801545
   10      H      11.0766554542     3.8869968838    -1.7320776321
   11      C      10.6695513064     2.8567575919     0.0881880668
   12      H      11.3222284289     2.5247964941     0.9057627749
   13      H      10.0834049490     3.6878874690     0.5007926899
   14      C       9.7789547202     1.7587688231    -0.5095964966
   15      H       9.1912200310     2.3369038894    -1.2319826676
   16      H      10.2337154255     1.0007520886    -1.1608017877
   17      C       8.8993099645     1.0230668900     0.5119438939
   18      C       9.5815856181     0.7986788301     1.8425858184
   19      C      10.4191050093    -0.3635811699     2.0022227873
   20      H      10.7862540742    -0.9015486485     1.1351019444
   21      C      10.8682972936    -0.6747681475     3.2980352570
   22      H      11.5398423403    -1.5189650951     3.4217638470
   23      C      10.5488282721     0.1195303823     4.4176813572
   24      H      11.0874171542    -0.1127423021     5.3304405895
   25      C       9.6324845466     1.1751576992     4.2883131049
   26      H       9.3226007287     1.7364361742     5.1653983305
   27      C       9.2087580650     1.5625486688     3.0064807815
   28      H       8.4583820662     2.3432171966     2.9212076313
   29      C       5.9444775215    -3.4240186318     1.6170002705
   30      C       4.9331611907    -1.7260634172     3.0453126903
   31      C       1.0765088907    -1.3300342309     0.4297278761
   32      C       6.1851973715    -1.8654455943    -3.2856388188
   33      C       2.2306901614     1.4645259197    -1.2014275913
   34      C       6.0699762952    -2.2841469805     2.3990595243
   35      C       4.0225201068    -0.1893097020    -3.8162436809
   36      C       2.4123066026    -3.2601327182     1.1235724567
   37      C       5.3447762510     1.8739577835     1.3443222737
   38      C       6.3598343438    -0.4590481313    -3.3574100102
   39      C       7.4072833494     1.0910522369     0.4268876035
   40      C       5.4679149381     2.2730873249     0.0199377099
   41      C       5.3870631366     1.3809428724    -2.6644458808
   42      C       2.8526600635     0.3584482086    -3.2655280098
   43      C       6.3216811096    -0.0476579530     2.3443922006
   44      C       1.2557941892    -0.6311385321    -1.7363643620
   45      C       8.0557633700    -0.1831974529     0.0177966711
   46      C       7.8469982352    -0.6764389732    -1.4473278701
   47      C       1.2804939091     0.4731036236    -0.8723289544
   48      C       3.5432412573    -3.9089532425    -2.1554665388
   49      C       1.7154013344    -2.9545873076    -1.2611327765
   50      C       2.3327972388    -3.6725211888    -0.2298169959
   51      C       3.5687892324    -3.3929646167     1.8936332425
   52      C       7.6482114506    -2.0703937817    -1.4034666576
   53      C       6.4545255187     1.0976270464     1.6134786400
   54      C       3.6425905483    -2.3283082685     2.7719163553
   55      C       5.2748506218     0.3199247368    -3.5832918240
   56      C       5.0806742800    -0.3375389565     3.0093584049
   57      C       4.2757618125     2.3780951998    -0.7674562648
   58      C       5.9450351950    -3.6772816627    -1.9876506871
   59      C       1.8134384355    -2.0644899675     1.4672675703
   60      C       6.6031367969     1.7949787507    -0.6115688401
   61      C       4.6455914511    -4.4050627494    -0.0674846405
   62      C       4.2523486844     1.9783158308    -2.1203735873
   63      C       4.0908199512     1.5430537050     1.9196535599
   64      C       2.6111144895    -1.9169157376    -3.2610954403
   65      C       3.8467723690    -1.5784141161    -3.8244081928
   66      C       2.9310714302     1.7138885417     1.1030405385
   67      C       6.8437703326    -2.7033731286    -2.4086570048
   68      C       7.1861607699     0.1423038283    -2.3985849697
   69      C       4.7448704866    -3.5567554610    -2.7480447345
   70      C       7.6508014691    -1.3869372991     0.7907114409
   71      C       2.7115857773    -0.1093670309     2.4160977212
   72      C       6.5581675804     1.2982350484    -1.9457444147
   73      C       3.0548746152     2.0834521751    -0.2181167164
   74      C       5.8623519490    -4.1066455806    -0.6297364384
   75      C       1.2210625328     0.0549709752     0.4814369041
   76      C       4.6779364269    -3.9534625906     1.2675210145
   77      C       1.1945774206    -1.7064915253    -0.8991681799
   78      C       3.9829622292     0.4551893801     2.7296084490
   79      C       2.0461521138     0.6376196872     1.4873114797
   80      C       6.8903125855    -1.2651505374     1.9957648184
   81      C       7.4771988144    -2.4686295832    -0.0827271206
   82      C       2.4249967453    -3.0962909365    -2.4596920926
   83      C       2.5812439308    -1.4962343623     2.4708243891
   84      C       2.9681488307     1.4631066899    -2.4039776721
   85      C       4.9384130971    -2.4159605058    -3.5071818290
   86      C       1.9678531301    -0.7187556946    -2.9183530664
   87      C       6.6097355539    -3.4910667342     0.3672281704
   88      C       3.4626180110    -4.2771156342    -0.7832648971
   89      O      -8.1077791714     8.3870898573     0.9185368864
   90      C      -8.1203637099     9.8106061639     0.5302612700
   91      H      -8.8938033487     9.9458174137    -0.2361381318
   92      H      -7.1541104548    10.1090365320     0.1043000483
   93      H      -8.3019309900    10.4965219842     1.3657484394
   94      O     -10.3352385378     7.9616763237     0.5418777618
   95      C      -9.2181784380     7.5947029974     0.8581834860
   96      C      -8.8637096056     6.1438812042     1.2673765591
   97      H      -9.7775844892     5.5435421186     1.1777346073
   98      H      -8.7622913973     6.2651742182     2.3527222882
   99      C      -7.5011562035     5.7285479118     0.6380225389
  100      H      -7.5949258769     5.7702723902    -0.4548595757
  101      H      -6.6653337254     6.3902998960     0.8951705440
  102      C      -7.1887362591     4.2896122291     1.0216107023
  103      H      -6.6577787007     4.3228404735     1.9817304631
  104      H      -8.1203000928     3.7416111727     1.2059355947
  105      C      -6.1654158557     3.5539014985     0.0880309934
  106      C      -5.3296409749     4.3874109805    -0.7690006817
  107      C      -4.3826382565     5.2647614430    -0.1968887892
  108      H      -4.1861774138     5.2271618037     0.8714268965
  109      C      -3.7415303381     6.1897003622    -0.9877507447
  110      H      -3.0476307607     6.9170214543    -0.5747708355
  111      C      -3.9997437028     6.2510283100    -2.3697694642
  112      H      -3.5084848539     7.0409276754    -2.9304063661
  113      C      -4.9406469556     5.3743340981    -2.9724487552
  114      H      -5.0348757428     5.4126053379    -4.0541119412
  115      C      -5.6535517557     4.4654082068    -2.1400200976
  116      H      -6.3181761499     3.6935756136    -2.5190634495
  117      C      -6.1209584921    -0.7972783982    -3.2085628622
  118      C      -3.8203598883    -0.6082367338    -2.6082343579
  119      C      -3.5995659826    -4.2590383850     0.0893744638
  120      C      -8.9121089288    -1.1536947363     0.8753167434
  121      C      -3.9697584830    -2.4778472258     3.0889405269
  122      C      -5.0099856203     0.0293604066    -2.9259472850
  123      C      -7.5219427498    -2.4466245053     2.9056754819
  124      C      -4.5877835877    -3.9698769481    -2.0811680094
  125      C      -3.4430039445     1.0007810744     1.0909220573
  126      C      -8.3619647688    -0.3535873260     1.9075490502
  127      C      -5.4987256910     2.2423854938     0.6265056853
  128      C      -4.2982400782     0.9015904269     2.2118686979
  129      C      -6.6422541672    -0.1713940899     3.2470441310
  130      C      -6.2948459372    -3.0258861850     3.2794231496
  131      C      -4.0793519980     1.2237934202    -1.2183039274
  132      C      -4.8962932912    -4.3939407538     1.8865874835
  133      C      -6.6675284562     2.1952479649    -0.2423286772
  134      C      -7.8255086285     1.3853593828     0.2433341741
  135      C      -3.7722740164    -3.6093275857     2.2794511320
  136      C      -7.8686041045    -4.0082675961    -0.7896758900
  137      C      -5.9005708636    -4.9329558291    -0.2533160906
  138      C      -5.8331680139    -4.4683624377    -1.5986052181
  139      C      -4.6637565563    -2.8463406363    -2.9156542371
  140      C      -8.3762077965     0.5348862505    -0.7355222391
  141      C      -4.1773410638     1.7309744016     0.1176016064
  142      C      -3.6011878872    -2.0223040633    -2.6264613087
  143      C      -7.6860912962    -1.0148067775     2.9081752971
  144      C      -3.2353734524     0.1671597475    -1.5864608182
  145      C      -4.2151271387    -0.2296277697     3.0491850247
  146      C      -8.8353770959    -1.8533592746    -1.2686384239
  147      C      -3.5292924536    -3.7769352037    -1.2237562051
  148      C      -5.5150647939     1.6089897647     2.0034849459
  149      C      -7.1813142709    -2.7708829702    -2.7672686115
  150      C      -5.3802364417    -0.8094305818     3.5576012038
  151      C      -2.6170228008    -0.0591783351     0.7874106072
  152      C      -7.2760382918    -4.2084642162     1.5668529282
  153      C      -8.1683875486    -3.1733075819     1.9142972351
  154      C      -2.5207493455    -1.1786086046     1.6503754348
  155      C      -8.9460123859    -0.7265393799    -0.4531074573
  156      C      -7.7575390980     0.8746684459     1.5428048009
  157      C      -8.7285908502    -2.9520571838    -0.4313961639
  158      C      -6.4874892287     1.4711337438    -1.5557233138
  159      C      -2.3249445091    -1.8818606185    -0.5450748769
  160      C      -6.6904794312     0.9719277421     2.4167529096
  161      C      -3.2982989908    -1.2492392077     2.7966624263
  162      C      -8.0344626603    -1.7051784876    -2.4138980108
  163      C      -2.9222824794    -3.5227857397     1.1112551313
  164      C      -5.9597084314    -2.2335134055    -3.2146801935
  165      C      -4.7438149559    -4.8359026948     0.5761062741
  166      C      -2.5206634422    -0.4906201934    -0.5285467618
  167      C      -2.3157130297    -2.3132415598     0.7903090617
  168      C      -5.2422602392     1.0866227685    -2.0244941251
  169      C      -7.5388100368     0.6078057123    -1.8651070053
  170      C      -7.1525266238    -4.6509445526     0.2213336902
  171      C      -2.9140137442    -2.6098470681    -1.5515311181
  172      C      -5.2422176876    -2.1838791113     3.6237454637
  173      C      -8.8514374241    -2.5453954307     0.8724627003
  174      C      -6.1117966386    -4.0678164175     2.3547365298
  175      C      -7.3604901714    -0.5660265997    -2.6744225981
  176      C      -7.0803967033    -3.9089588156    -1.9369499892
 ----------------------------------------------------------------

    9   -5804.2365507927      9.07E-06 Convergence criterion met
 Total energy in the final basis set = -5804.2365507927

                    Orbital Energies (a.u.)
 --------------------------------------------------------------

 Alpha MOs
 -- Occupied --
-19.201 -19.192 -19.144 -19.133 -10.319 -10.317 -10.251 -10.248
-10.238 -10.238 -10.237 -10.236 -10.236 -10.234 -10.232 -10.228
-10.226 -10.225 -10.225 -10.224 -10.224 -10.221 -10.221 -10.220
-10.220 -10.219 -10.219 -10.219 -10.218 -10.217 -10.217 -10.217
-10.217 -10.217 -10.217 -10.217 -10.216 -10.216 -10.216 -10.216
-10.216 -10.216 -10.216 -10.215 -10.215 -10.215 -10.215 -10.215
-10.215 -10.215 -10.214 -10.214 -10.214 -10.214 -10.214 -10.214
-10.214 -10.214 -10.214 -10.214 -10.214 -10.213 -10.213 -10.213
-10.213 -10.213 -10.213 -10.213 -10.212 -10.212 -10.212 -10.212
-10.212 -10.212 -10.212 -10.212 -10.212 -10.211 -10.211 -10.211
-10.211 -10.211 -10.211 -10.211 -10.211 -10.211 -10.211 -10.211
-10.211 -10.210 -10.210 -10.210 -10.210 -10.210 -10.210 -10.210
-10.210 -10.209 -10.209 -10.209 -10.209 -10.209 -10.209 -10.209
-10.209 -10.209 -10.209 -10.209 -10.209 -10.209 -10.209 -10.208
-10.208 -10.208 -10.208 -10.208 -10.208 -10.208 -10.208 -10.207
-10.207 -10.207 -10.207 -10.207 -10.207 -10.207 -10.207 -10.207
-10.206 -10.206 -10.205 -10.205 -10.205 -10.205 -10.204 -10.203
-10.203 -10.203 -10.202 -10.202 -10.201 -10.200 -10.200 -10.199
-10.199 -10.198 -10.197 -10.196  -1.084  -1.083  -1.012  -1.006
 -0.984  -0.983  -0.967  -0.966  -0.964  -0.962  -0.962  -0.961
 -0.935  -0.935  -0.929  -0.929  -0.926  -0.924  -0.924  -0.922
 -0.921  -0.919  -0.901  -0.900  -0.891  -0.889  -0.886  -0.884
 -0.875  -0.873  -0.855  -0.847  -0.841  -0.841  -0.840  -0.838
 -0.836  -0.835  -0.821  -0.821  -0.809  -0.805  -0.799  -0.798
 -0.797  -0.795  -0.793  -0.793  -0.793  -0.791  -0.785  -0.784
 -0.772  -0.770  -0.768  -0.768  -0.766  -0.765  -0.762  -0.760
 -0.754  -0.748  -0.742  -0.739  -0.733  -0.731  -0.718  -0.715
 -0.714  -0.714  -0.713  -0.712  -0.710  -0.710  -0.709  -0.709
 -0.707  -0.706  -0.703  -0.702  -0.702  -0.701  -0.673  -0.672
 -0.660  -0.658  -0.658  -0.655  -0.648  -0.645  -0.634  -0.631
 -0.626  -0.625  -0.623  -0.623  -0.621  -0.619  -0.619  -0.617
 -0.615  -0.615  -0.614  -0.613  -0.612  -0.611  -0.609  -0.608
 -0.606  -0.605  -0.604  -0.601  -0.567  -0.564  -0.564  -0.563
 -0.562  -0.560  -0.559  -0.558  -0.557  -0.554  -0.553  -0.552
 -0.538  -0.535  -0.534  -0.530  -0.526  -0.526  -0.525  -0.523
 -0.523  -0.521  -0.519  -0.519  -0.517  -0.513  -0.513  -0.513
 -0.506  -0.506  -0.501  -0.494  -0.490  -0.490  -0.487  -0.486
 -0.484  -0.483  -0.481  -0.479  -0.479  -0.477  -0.476  -0.473
 -0.471  -0.470  -0.469  -0.469  -0.467  -0.466  -0.466  -0.465
 -0.465  -0.465  -0.463  -0.462  -0.461  -0.460  -0.460  -0.459
 -0.455  -0.454  -0.453  -0.451  -0.450  -0.446  -0.445  -0.442
 -0.442  -0.440  -0.440  -0.437  -0.437  -0.436  -0.434  -0.432
 -0.432  -0.431  -0.429  -0.429  -0.427  -0.426  -0.426  -0.423
 -0.423  -0.422  -0.420  -0.420  -0.419  -0.419  -0.418  -0.417
 -0.417  -0.416  -0.415  -0.415  -0.414  -0.412  -0.412  -0.411
 -0.410  -0.410  -0.409  -0.407  -0.403  -0.402  -0.400  -0.394
 -0.393  -0.393  -0.392  -0.390  -0.389  -0.388  -0.384  -0.384
 -0.379  -0.378  -0.374  -0.373  -0.371  -0.369  -0.367  -0.366
 -0.365  -0.364  -0.363  -0.362  -0.360  -0.360  -0.359  -0.357
 -0.356  -0.355  -0.355  -0.355  -0.354  -0.353  -0.353  -0.352
 -0.351  -0.350  -0.350  -0.346  -0.345  -0.344  -0.342  -0.341
 -0.341  -0.341  -0.339  -0.337  -0.337  -0.336  -0.335  -0.333
 -0.332  -0.331  -0.330  -0.329  -0.327  -0.326  -0.325  -0.324
 -0.307  -0.304  -0.300  -0.298  -0.288  -0.286  -0.275  -0.271
 -0.270  -0.268  -0.268  -0.267  -0.266  -0.264  -0.264  -0.263
 -0.263  -0.261  -0.259  -0.258  -0.257  -0.256  -0.254  -0.253
 -0.251  -0.245  -0.244  -0.242  -0.221  -0.220  -0.211  -0.209
 -0.208  -0.206  -0.205  -0.203  -0.199  -0.196

          Ground-State Mulliken Net Atomic Charges

     Atom                 Charge (a.u.)
  ----------------------------------------
      1 O                    -0.477046
      2 C                    -0.105673
      3 H                     0.134644
      4 H                     0.137765
      5 H                     0.122849
      6 O                    -0.462422
      7 C                     0.605392
      8 C                    -0.245840
      9 H                     0.129071
     10 H                     0.117864
     11 C                    -0.197397
     12 H                     0.133144
     13 H                     0.111343
     14 C                    -0.183907
     15 H                     0.111839
     16 H                     0.111219
     17 C                     0.018457
     18 C                     0.053316
     19 C                    -0.096370
     20 H                     0.096378
     21 C                    -0.089378
     22 H                     0.089173
     23 C                    -0.078172
     24 H                     0.093210
     25 C                    -0.089330
     26 H                     0.093489
     27 C                    -0.103116
     28 H                     0.092205
     29 C                    -0.011357
     30 C                    -0.020250
     31 C                    -0.014006
     32 C                     0.031965
     33 C                     0.006490
     34 C                    -0.003729
     35 C                     0.014148
     36 C                    -0.009066
     37 C                     0.004615
     38 C                    -0.004662
     39 C                    -0.093331
     40 C                    -0.001501
     41 C                    -0.010308
     42 C                    -0.013752
     43 C                     0.021815
     44 C                     0.027804
     45 C                    -0.093334
     46 C                     0.022254
     47 C                    -0.023135
     48 C                    -0.014339
     49 C                    -0.003535
     50 C                     0.008145
     51 C                     0.013404
     52 C                    -0.004045
     53 C                     0.012099
     54 C                    -0.004765
     55 C                     0.015364
     56 C                    -0.016210
     57 C                    -0.017257
     58 C                    -0.003897
     59 C                    -0.018994
     60 C                     0.036817
     61 C                     0.009827
     62 C                    -0.011234
     63 C                    -0.006532
     64 C                     0.016919
     65 C                    -0.024636
     66 C                    -0.040375
     67 C                    -0.047296
     68 C                    -0.028136
     69 C                     0.012517
     70 C                     0.032576
     71 C                     0.004798
     72 C                     0.029246
     73 C                     0.029446
     74 C                     0.014059
     75 C                    -0.006634
     76 C                    -0.009639
     77 C                     0.030636
     78 C                     0.016472
     79 C                     0.014816
     80 C                     0.035863
     81 C                     0.021324
     82 C                    -0.022127
     83 C                     0.004810
     84 C                    -0.013285
     85 C                     0.005733
     86 C                    -0.012961
     87 C                    -0.014599
     88 C                     0.002449
     89 O                    -0.470802
     90 C                    -0.090192
     91 H                     0.140725
     92 H                     0.126581
     93 H                     0.127977
     94 O                    -0.472341
     95 C                     0.581457
     96 C                    -0.258756
     97 H                     0.135968
     98 H                     0.132382
     99 C                    -0.184636
    100 H                     0.116880
    101 H                     0.131613
    102 C                    -0.183456
    103 H                     0.111321
    104 H                     0.113373
    105 C                    -0.005427
    106 C                     0.079420
    107 C                    -0.092892
    108 H                     0.092133
    109 C                    -0.085695
    110 H                     0.091001
    111 C                    -0.082636
    112 H                     0.089871
    113 C                    -0.099616
    114 H                     0.097435
    115 C                    -0.103867
    116 H                     0.099243
    117 C                    -0.028235
    118 C                     0.022749
    119 C                     0.009761
    120 C                    -0.012675
    121 C                     0.000399
    122 C                    -0.025247
    123 C                     0.017453
    124 C                    -0.032119
    125 C                    -0.002129
    126 C                    -0.014851
    127 C                    -0.059253
    128 C                     0.006336
    129 C                    -0.023788
    130 C                    -0.016880
    131 C                    -0.005633
    132 C                    -0.001391
    133 C                    -0.065174
    134 C                     0.018453
    135 C                    -0.012197
    136 C                    -0.007428
    137 C                    -0.001432
    138 C                    -0.002643
    139 C                    -0.005376
    140 C                    -0.011114
    141 C                     0.028403
    142 C                    -0.001728
    143 C                     0.006134
    144 C                    -0.014232
    145 C                     0.010377
    146 C                    -0.014634
    147 C                     0.030093
    148 C                    -0.005625
    149 C                    -0.032965
    150 C                     0.002136
    151 C                     0.015386
    152 C                    -0.007527
    153 C                    -0.024003
    154 C                     0.006707
    155 C                    -0.000609
    156 C                     0.030457
    157 C                     0.022478
    158 C                     0.000996
    159 C                    -0.001779
    160 C                    -0.000418
    161 C                    -0.019670
    162 C                     0.003969
    163 C                    -0.031966
    164 C                     0.001936
    165 C                     0.008004
    166 C                    -0.014150
    167 C                     0.004827
    168 C                     0.023251
    169 C                    -0.027252
    170 C                    -0.005866
    171 C                     0.011232
    172 C                     0.003283
    173 C                     0.011137
    174 C                     0.029686
    175 C                     0.051500
    176 C                     0.015589
  ----------------------------------------
  Sum of atomic charges =     0.000000

                    Cartesian Multipole Moments
 -----------------------------------------------------------------
    Charge (ESU x 10^10)
                 0.0000
    Dipole Moment (Debye)
         X       3.7045      Y       4.8925      Z       0.3745
       Tot       6.1482
    Quadrupole Moments (Debye-Ang)
        XX    -836.9197     XY      18.3639     YY    -766.7029
        XZ      -0.1408     YZ      -1.2376     ZZ    -799.9250

 Total job time:  842.47s(wall), 8030.12s(cpu)
        *  Thank you very much for using Q-Chem.  Have a nice day.  *
