 Q-Chem 4.4, Q-Chem, Inc., Pleasanton, CA (2016)
 Q-Chem 4.4.2 for Intel X86 Linux

User input:
--------------------------------------------------------------
$comment
SP
$end

$rem
MEM_STATIC 5000
MEM_TOTAL 20000
JOBTYPE SP
EXCHANGE B3LYP
BASIS 6-31g(d,p)
$end

$molecule
0 1
O          16.379000     -9.341000     -7.064000
C          17.234000     -9.915000     -6.075000
H          17.965000    -10.588000     -6.540000
H          16.679000    -10.401000     -5.264000
H          17.880000     -9.127000     -5.670000
O          18.186000     -8.837000     -8.421000
C          16.979000     -8.908000     -8.244000
C          15.881000     -8.556000     -9.286000
H          15.163000     -7.800000     -8.946000
H          15.342000     -9.499000     -9.438000
C          16.343000     -8.159000    -10.709000
H          16.743000     -7.139000    -10.747000
H          17.119000     -8.881000    -10.992000
C          15.393000     -8.362000    -11.879000
H          15.962000     -8.355000    -12.817000
H          15.150000     -9.431000    -11.888000
C          14.205000     -7.400000    -11.895000
C          14.657000     -5.957000    -12.122000
C          14.747000     -5.367000    -13.367000
H          14.601000     -5.862000    -14.324000
C          15.297000     -4.065000    -13.485000
H          15.577000     -3.711000    -14.473000
C          15.364000     -3.250000    -12.338000
H          15.719000     -2.232000    -12.468000
C          15.243000     -3.835000    -11.091000
H          15.330000     -3.166000    -10.241000
C          14.824000     -5.180000    -10.930000
H          14.687000     -5.585000     -9.931000
C           9.738000     -5.758000     -9.390000
C           9.315000     -5.162000    -11.711000
C           6.173000     -8.164000    -12.570000
C          10.873000    -10.859000     -9.063000
C           8.288000    -10.435000    -14.246000
C          10.211000     -5.354000    -10.631000
C           9.372000    -12.033000    -11.122000
C           6.475000     -6.876000    -10.555000
C          11.231000     -7.664000    -14.178000
C          11.527000    -11.206000    -10.249000
C          12.921000     -7.869000    -12.563000
C          11.603000     -9.008000    -14.197000
C          11.273000    -11.218000    -12.518000
C           8.529000    -11.804000    -12.204000
C          11.295000     -5.905000    -12.562000
C           6.688000    -10.345000    -12.458000
C          12.997000     -7.770000    -11.081000
C          12.714000     -9.048000    -10.301000
C           7.083000     -9.909000    -13.699000
C           7.579000     -9.535000     -8.584000
C           6.133000     -9.253000    -10.327000
C           6.339000     -7.978000     -9.727000
C           7.500000     -5.967000    -10.315000
C          11.971000     -8.654000     -9.198000
C          11.946000     -6.969000    -13.237000
C           7.962000     -5.424000    -11.537000
C          10.773000    -11.760000    -11.310000
C           9.961000     -5.578000    -12.886000
C          10.567000     -9.965000    -14.435000
C           9.905000     -9.075000     -8.018000
C           6.412000     -6.939000    -11.952000
C          12.496000     -9.180000    -13.150000
C           8.318000     -7.282000     -8.435000
C          10.385000    -11.075000    -13.619000
C           9.911000     -7.253000    -14.583000
C           7.508000    -11.230000    -10.315000
C           8.786000    -11.664000     -9.931000
C           8.952000     -8.171000    -14.872000
C          11.104000     -9.598000     -8.525000
C          12.396000    -10.273000    -10.864000
C           8.907000     -9.971000     -8.251000
C          12.200000     -6.750000    -10.442000
C           7.952000     -6.466000    -13.824000
C          12.315000    -10.321000    -12.296000
C           9.265000     -9.526000    -14.787000
C           9.609000     -7.683000     -8.174000
C           6.785000     -8.523000    -13.772000
C           8.371000     -6.093000     -9.247000
C           6.112000     -9.303000    -11.742000
C           9.356000     -6.205000    -13.954000
C           7.698000     -7.697000    -14.399000
C          11.448000     -5.763000    -11.145000
C          11.719000     -7.278000     -9.241000
C           6.858000    -10.199000     -9.650000
C           7.289000     -6.088000    -12.574000
C           9.075000    -11.310000    -13.433000
C           9.499000    -11.063000     -8.852000
C           7.367000    -11.303000    -11.709000
C          10.478000     -6.763000     -8.720000
C           7.258000     -8.173000     -8.665000
O           1.362000      0.201000     -0.810000
C           0.617000      1.432000     -1.137000
H          -0.082000      1.199000     -1.950000
H           1.297000      2.222000     -1.480000
H           0.070000      1.858000     -0.288000
O          -0.292000     -1.297000     -1.362000
C           0.838000     -1.048000     -0.983000
C           1.887000     -2.125000     -0.612000
H           1.430000     -3.106000     -0.792000
H           1.868000     -2.049000      0.482000
C           3.287000     -1.719000     -1.160000
H           3.227000     -1.652000     -2.254000
H           3.639000     -0.739000     -0.816000
C           4.295000     -2.806000     -0.817000
H           4.692000     -2.571000      0.179000
H           3.785000     -3.772000     -0.723000
C           5.587000     -2.827000     -1.706000
C           5.891000     -1.619000     -2.465000
C           6.212000     -0.421000     -1.790000
H           6.358000     -0.429000     -0.713000
C           6.300000      0.758000     -2.493000
H           6.491000      1.708000     -2.001000
C           6.101000      0.777000     -3.886000
H           6.124000      1.746000     -4.376000
C           5.786000     -0.415000     -4.591000
H           5.727000     -0.352000     -5.674000
C           5.627000     -1.621000     -3.851000
H           5.483000     -2.596000     -4.309000
C           8.040000     -6.256000     -5.174000
C           9.872000     -4.937000     -4.404000
C          11.878000     -8.121000     -1.856000
C           5.701000     -8.319000     -1.318000
C          10.512000     -7.023000      1.183000
C           8.538000     -4.994000     -4.778000
C           7.485000     -8.840000      0.749000
C          10.969000     -8.232000     -4.077000
C           9.205000     -3.646000     -0.622000
C           5.708000     -7.428000     -0.216000
C           6.823000     -3.632000     -1.178000
C           8.488000     -4.260000      0.430000
C           7.022000     -6.473000      1.249000
C           8.818000     -8.718000      1.184000
C           8.635000     -3.619000     -2.959000
C          10.779000     -9.046000     -0.163000
C           5.888000     -4.219000     -2.129000
C           5.312000     -5.548000     -1.762000
C          11.306000     -7.821000      0.342000
C           8.153000    -10.075000     -3.025000
C          10.291000     -9.871000     -2.390000
C          10.155000     -9.342000     -3.706000
C          10.345000     -7.256000     -4.866000
C           5.329000     -6.486000     -2.813000
C           8.234000     -3.338000     -1.613000
C          10.803000     -6.022000     -4.467000
C           6.592000     -7.710000      0.801000
C           9.922000     -4.048000     -3.311000
C           9.122000     -5.239000      1.222000
C           6.216000     -8.715000     -3.479000
C          11.734000     -7.578000     -3.139000
C           7.090000     -4.280000      0.166000
C           8.161000     -8.519000     -4.894000
C           8.418000     -6.378000      1.621000
C          10.476000     -4.092000     -0.911000
C           8.672000    -10.109000     -0.643000
C           7.356000     -9.722000     -0.316000
C          11.114000     -5.056000     -0.092000
C           5.498000     -7.876000     -2.626000
C           5.589000     -6.042000     -0.484000
C           6.853000     -9.654000     -2.684000
C           6.472000     -4.643000     -3.456000
C          11.734000     -5.389000     -2.296000
C           6.411000     -5.466000      0.467000
C          10.447000     -5.607000      0.992000
C           6.862000     -8.086000     -4.557000
C          12.027000     -7.217000     -0.758000
C           8.933000     -7.391000     -5.230000
C          11.191000     -9.245000     -1.477000
C          10.835000     -4.311000     -2.234000
C          11.918000     -5.849000     -0.983000
C           7.750000     -4.284000     -3.851000
C           6.045000     -5.903000     -3.876000
C           9.061000    -10.321000     -1.994000
C          11.655000     -6.241000     -3.372000
C           9.256000     -7.478000      1.638000
C           6.485000     -9.469000     -1.376000
C           9.557000     -9.439000      0.231000
C           6.845000     -6.747000     -4.720000
C           8.814000     -9.494000     -4.108000
$end

--------------------------------------------------------------

             Standard Nuclear Orientation (Angstroms)
    I     Atom           X                Y                Z
 ----------------------------------------------------------------
    1      O       4.0411990703    -6.2961084359     1.3947446002
    2      C       3.6939063243    -7.6698482377     1.2191066046
    3      H       4.5900128839    -8.2734948772     1.0290572203
    4      H       2.9228581627    -7.8186154637     0.4540608250
    5      H       3.3527032401    -8.0709346826     2.1808732703
    6      O       5.7697543121    -6.8538035368     2.8306369883
    7      C       5.1662621526    -6.0224967862     2.1688626311
    8      C       5.5328295393    -4.5178689583     2.0384960305
    9      H       4.7247222579    -3.8313779835     2.3184116663
   10      H       5.7440331690    -4.3838574805     0.9706440039
   11      C       6.8258400560    -4.0311975609     2.7365338194
   12      H       6.7014607014    -3.9338594737     3.8213836122
   13      H       7.5967105518    -4.7779141574     2.5091090997
   14      C       7.5319866173    -2.7931490182     2.2062491411
   15      H       8.5659977632    -2.7773144336     2.5726153730
   16      H       7.7735757696    -3.0092731106     1.1589592776
   17      C       6.7856689646    -1.4853655521     2.4703634479
   18      C       6.7154920541    -1.1737656564     3.9657104665
   19      C       7.6493222933    -0.4086752015     4.6356527626
   20      H       8.5747356027    -0.0165786620     4.2208509901
   21      C       7.5662500021    -0.2813034057     6.0457958121
   22      H       8.4239629392     0.1186347176     6.5789355827
   23      C       6.3467108469    -0.5814794927     6.6837155294
   24      H       6.2851724935    -0.4046823775     7.7533906254
   25      C       5.3974910677    -1.3213518009     6.0029470090
   26      H       4.4883328350    -1.5480558390     6.5503651190
   27      C       5.5076858649    -1.5888564470     4.6148528583
   28      H       4.7120077512    -2.1257496969     4.1055032949
   29      C       2.3614888537     1.4185502598     1.5116240129
   30      C       4.0264467405     3.1138426562     2.0361094045
   31      C       4.4668201630     4.8406310722    -2.0192971121
   32      C       4.0901922945    -1.5904008984    -2.4092371605
   33      C       7.4459347146     3.1313433926    -2.8210789508
   34      C       3.4987517184     1.8102959397     2.2045846892
   35      C       5.6508486530     0.1407054076    -3.9707686804
   36      C       2.4406324183     4.1137350769    -0.9346043283
   37      C       7.6850546781     1.8584287229     1.0086500065
   38      C       5.4814488179    -1.6558877006    -2.2874267961
   39      C       7.0075624390    -0.3334873709     1.5014563617
   40      C       8.2602733571     1.0599352346     0.0204128788
   41      C       7.3543343821    -0.3520103258    -2.2151464042
   42      C       6.1896154886     1.4179470009    -4.0812141845
   43      C       5.7671431295     1.6940215396     2.4243542729
   44      C       5.2416943022     3.5444464052    -3.6788167346
   45      C       5.7211102982    -1.0796864867     1.4901087148
   46      C       5.3268428546    -1.7306442869     0.1700404873
   47      C       6.3386286038     4.0095677831    -2.9957360351
   48      C       1.9799508047     1.2635456789    -2.8937191402
   49      C       2.8401794367     3.3565815081    -3.1898554570
   50      C       2.0080521605     3.3918303122    -2.0347006111
   51      C       2.3534997744     3.5430584981     0.3307976413
   52      C       3.9583519409    -1.5368149052     0.0536068586
   53      C       6.9344148121     1.1054560800     1.8742728982
   54      C       3.4272315513     3.9875429144     1.1377119334
   55      C       6.2775880126    -0.7595080065    -3.0383054993
   56      C       5.4262535911     3.0227249199     2.0929894438
   57      C       8.3561333539     1.6198013788    -1.2922751121
   58      C       2.2565940733    -0.6578550745    -1.4192973393
   59      C       3.6473524445     4.8220220333    -0.8933324759
   60      C       7.7538841348    -0.2174387276     0.2078367736
   61      C       1.4466443037     1.4778122842    -0.5885065691
   62      C       7.9184443656     0.9367111256    -2.4205020643
   63      C       7.3940754781     3.2480606722     0.7645185860
   64      C       3.9752121379     1.5142665448    -4.2466782156
   65      C       4.2750671266     0.1589537119    -4.0409839986
   66      C       7.5522829242     3.7875590504    -0.4723475765
   67      C       3.3259303322    -1.5497891650    -1.2485561793
   68      C       6.0677171152    -1.6770700827    -0.9991272230
   69      C       2.3442091166    -0.1067483721    -2.6609551049
   70      C       4.5415363341    -0.3760988801     1.9345181464
   71      C       5.7278701483     4.7133365469     0.4330711389
   72      C       7.2931528101    -0.9318079465    -0.9503347446
   73      C       8.0175983200     2.9801802837    -1.5081275288
   74      C       1.8481404910     0.1851511534    -0.3366514273
   75      C       5.8592317730     4.8112454821    -1.9268017314
   76      C       1.8061461382     2.2903197087     0.5457174459
   77      C       4.0749335835     4.0457783185    -3.1153171889
   78      C       6.3091545993     3.7777991430     1.3512841605
   79      C       6.5060154630     4.7203576949    -0.7092696915
   80      C       4.5539539959     0.9358381436     2.4935790085
   81      C       3.4739836437    -0.7896713793     1.1333720666
   82      C       2.8271556671     2.0942575483    -3.7239327940
   83      C       4.2680388190     4.7664864392     0.3280921932
   84      C       7.3173220510     1.7812475832    -3.2756810716
   85      C       3.4328322459    -0.6960613868    -3.2706590109
   86      C       5.1519176462     2.2783218770    -4.2521184275
   87      C       2.3785457676     0.1252304071     0.9340793651
   88      C       1.5058855207     2.0779228441    -1.8560785766
   89      O     -10.1885993894     6.0716058247     1.8691376506
   90      C     -10.5746848913     7.2879560825     2.6099109193
   91      H     -10.0709215007     8.1433477065     2.1425923813
   92      H     -10.2542852853     7.2268033541     3.6576482128
   93      H     -11.6560500104     7.4648156243     2.6391714999
   94      O      -9.8955018331     7.0610518390    -0.1850080130
   95      C      -9.8592068619     6.0865476649     0.5440779145
   96      C      -9.4398326792     4.6698123355     0.0804430351
   97      H      -9.1606003546     4.7387027788    -0.9782795044
   98      H     -10.4197333746     4.1789056577     0.0382736036
   99      C      -8.5420685590     3.9975409789     1.1608183438
  100      H      -7.6370242809     4.6052627954     1.2892475005
  101      H      -9.0043123267     3.9302873808     2.1530116983
  102      C      -8.1113528915     2.6227606624     0.6711806258
  103      H      -8.8925337188     1.9151293424     0.9775536501
  104      H      -8.0951584660     2.6049252059    -0.4249542369
  105      C      -6.8286471055     2.0377235315     1.3585112756
  106      C      -6.4228622982     2.6350672563     2.6259023615
  107      C      -7.2514261361     2.5139974564     3.7628694103
  108      H      -8.1262527602     1.8699194314     3.7289448539
  109      C      -6.9697318153     3.2419515238     4.8954439930
  110      H      -7.6140758252     3.2168658058     5.7702219668
  111      C      -5.8448576011     4.0862899181     4.9419378439
  112      H      -5.7087742884     4.6802795012     5.8409638208
  113      C      -4.9897672894     4.2196378162     3.8158148946
  114      H      -4.0926450524     4.8196601593     3.9402491330
  115      C      -5.3230086510     3.5188109992     2.6220356154
  116      H      -4.6821023436     3.4808590207     1.7451526401
  117      C      -1.8066370871     0.4950819078    -0.1253843391
  118      C      -2.1642375961    -0.8091432490     1.8393048516
  119      C      -2.6114797272    -4.8495683987    -0.1927224824
  120      C      -5.4316865039    -0.3518159972    -3.4021825728
  121      C      -6.1195659270    -4.8441018716    -0.1731691752
  122      C      -2.3436540261     0.3964432360     1.1782057880
  123      C      -6.3673881232    -2.9598138355    -3.1799310141
  124      C      -1.0058050058    -3.0943073729    -0.5278499512
  125      C      -6.1030569698    -1.6402084220     2.2977005538
  126      C      -6.6590106661    -0.5537965309    -2.7230557329
  127      C      -6.5560382278     0.5023075269     1.2078889241
  128      C      -7.1071395511    -1.8291644218     1.3210210772
  129      C      -7.7100814015    -1.9321517470    -1.3888019310
  130      C      -6.2612733214    -4.1694686896    -2.4682620021
  131      C      -4.3066845113    -0.0406444494     2.2572149026
  132      C      -4.2253271153    -5.1723753701    -1.6830134832
  133      C      -5.9159269491     1.4739462096     0.3307510665
  134      C      -6.0507337873     1.2347913198    -1.1380368879
  135      C      -4.8341931500    -5.3612449408    -0.4074785221
  136      C      -2.4523405643    -2.1119235623    -3.5898208731
  137      C      -2.2303101174    -4.0182310632    -2.4354469334
  138      C      -1.3044586660    -3.0648911504    -1.9215061775
  139      C      -0.8653645892    -1.8447727579     0.0913533556
  140      C      -4.8438196468     1.3749766375    -1.8510869101
  141      C      -5.7175633976    -0.2768776947     2.1858522922
  142      C      -1.4120075460    -1.9243164303     1.3509466558
  143      C      -7.1090616570    -1.8517243997    -2.6330204442
  144      C      -3.3663316310    -1.0411625659     2.5383091205
  145      C      -7.2453513763    -3.0891495396     0.7037723476
  146      C      -3.2338277560     0.1495088813    -3.3019214596
  147      C      -1.7216899379    -3.9007217055     0.3265443888
  148      C      -7.4183808270    -0.6130360679     0.6511996866
  149      C      -1.3062930566    -0.6062464763    -2.0621191278
  150      C      -7.5163829367    -3.1707065668    -0.6644485208
  151      C      -5.2183854386    -2.6655390382     2.5505471662
  152      C      -4.3055340358    -3.6962477500    -3.5841794673
  153      C      -5.2226164415    -2.6769356963    -3.9135983470
  154      C      -5.3830708090    -3.9360956183     1.9458441766
  155      C      -4.5125147655     0.6170273891    -2.9962419269
  156      C      -6.8992706013     0.2030735990    -1.5498533761
  157      C      -3.3857712668    -1.0989208025    -3.8831714009
  158      C      -4.4060254313     1.5026350677     0.3644461070
  159      C      -3.1262418466    -3.4717532517     2.1556397940
  160      C      -7.5801663877    -0.6843069739    -0.7369587662
  161      C      -6.4147469637    -4.1556427622     1.0452946980
  162      C      -2.2395531767     0.4125408198    -2.3441776211
  163      C      -3.7838292471    -5.1557909892     0.5667808609
  164      C      -1.0599556453    -0.6129728957    -0.6762848537
  165      C      -2.8631287054    -4.9288925448    -1.5378494175
  166      C      -3.8629439648    -2.3838388793     2.6534764213
  167      C      -4.0519495400    -4.4346966493     1.7252559195
  168      C      -3.6742274884     0.8330143367     1.3310224607
  169      C      -3.8210511081     1.5581818993    -0.9008793810
  170      C      -2.9162280335    -3.4216565888    -3.4581059718
  171      C      -1.9616101928    -3.2111199054     1.4732730527
  172      C      -6.8652940964    -4.2579417457    -1.2181054432
  173      C      -4.7212608555    -1.3793040362    -4.0186918817
  174      C      -4.9239128358    -4.5591826675    -2.6520035248
  175      C      -2.5165836410     1.0201301422    -1.1720563232
  176      C      -1.4331033494    -1.8766383530    -2.6661502771
 ----------------------------------------------------------------

    9   -5804.2415652891      8.47E-06 Convergence criterion met
 Total energy in the final basis set = -5804.2415652891

                    Orbital Energies (a.u.)
 --------------------------------------------------------------

 Alpha MOs
 -- Occupied --
-19.192 -19.191 -19.145 -19.133 -10.326 -10.317 -10.251 -10.241
-10.240 -10.238 -10.238 -10.237 -10.237 -10.237 -10.234 -10.229
-10.226 -10.225 -10.225 -10.223 -10.222 -10.222 -10.221 -10.221
-10.220 -10.220 -10.220 -10.219 -10.219 -10.219 -10.219 -10.218
-10.218 -10.218 -10.218 -10.218 -10.218 -10.218 -10.217 -10.217
-10.217 -10.217 -10.217 -10.216 -10.216 -10.216 -10.216 -10.216
-10.215 -10.215 -10.215 -10.215 -10.215 -10.215 -10.215 -10.214
-10.214 -10.214 -10.214 -10.214 -10.214 -10.214 -10.214 -10.214
-10.214 -10.214 -10.214 -10.213 -10.213 -10.213 -10.213 -10.213
-10.213 -10.213 -10.213 -10.213 -10.213 -10.213 -10.212 -10.212
-10.212 -10.212 -10.212 -10.212 -10.212 -10.212 -10.212 -10.212
-10.212 -10.211 -10.211 -10.211 -10.211 -10.211 -10.211 -10.211
-10.210 -10.210 -10.210 -10.210 -10.210 -10.210 -10.210 -10.209
-10.209 -10.209 -10.209 -10.209 -10.209 -10.209 -10.208 -10.208
-10.208 -10.208 -10.208 -10.208 -10.208 -10.208 -10.208 -10.208
-10.208 -10.208 -10.207 -10.207 -10.207 -10.207 -10.207 -10.206
-10.205 -10.205 -10.205 -10.205 -10.205 -10.204 -10.204 -10.204
-10.204 -10.203 -10.203 -10.203 -10.202 -10.202 -10.201 -10.201
-10.201 -10.199 -10.197 -10.191  -1.088  -1.084  -1.013  -1.006
 -0.984  -0.983  -0.968  -0.966  -0.964  -0.963  -0.962  -0.961
 -0.938  -0.936  -0.930  -0.927  -0.925  -0.925  -0.923  -0.922
 -0.922  -0.920  -0.901  -0.896  -0.894  -0.890  -0.887  -0.885
 -0.876  -0.876  -0.856  -0.855  -0.841  -0.840  -0.838  -0.838
 -0.837  -0.836  -0.822  -0.821  -0.806  -0.805  -0.799  -0.798
 -0.795  -0.794  -0.793  -0.793  -0.792  -0.792  -0.785  -0.782
 -0.771  -0.769  -0.769  -0.768  -0.767  -0.766  -0.764  -0.763
 -0.754  -0.752  -0.745  -0.743  -0.733  -0.733  -0.717  -0.715
 -0.715  -0.714  -0.712  -0.711  -0.711  -0.710  -0.710  -0.709
 -0.707  -0.707  -0.704  -0.703  -0.702  -0.701  -0.673  -0.671
 -0.659  -0.659  -0.657  -0.656  -0.649  -0.648  -0.633  -0.631
 -0.627  -0.626  -0.624  -0.623  -0.622  -0.621  -0.618  -0.616
 -0.615  -0.614  -0.614  -0.613  -0.612  -0.611  -0.609  -0.608
 -0.606  -0.605  -0.604  -0.602  -0.569  -0.568  -0.564  -0.563
 -0.562  -0.561  -0.558  -0.556  -0.556  -0.555  -0.553  -0.552
 -0.538  -0.538  -0.535  -0.533  -0.527  -0.527  -0.526  -0.524
 -0.523  -0.520  -0.519  -0.518  -0.515  -0.514  -0.514  -0.513
 -0.507  -0.507  -0.502  -0.496  -0.494  -0.490  -0.487  -0.486
 -0.486  -0.484  -0.481  -0.479  -0.478  -0.478  -0.474  -0.473
 -0.473  -0.472  -0.470  -0.470  -0.468  -0.467  -0.467  -0.466
 -0.466  -0.465  -0.464  -0.462  -0.461  -0.461  -0.460  -0.460
 -0.458  -0.455  -0.454  -0.453  -0.452  -0.446  -0.444  -0.443
 -0.441  -0.441  -0.440  -0.438  -0.437  -0.437  -0.435  -0.434
 -0.433  -0.431  -0.430  -0.428  -0.427  -0.426  -0.424  -0.424
 -0.423  -0.422  -0.421  -0.421  -0.420  -0.419  -0.418  -0.417
 -0.416  -0.416  -0.416  -0.415  -0.415  -0.413  -0.412  -0.412
 -0.411  -0.409  -0.408  -0.407  -0.404  -0.403  -0.401  -0.396
 -0.395  -0.394  -0.390  -0.390  -0.388  -0.387  -0.385  -0.385
 -0.379  -0.376  -0.375  -0.375  -0.371  -0.370  -0.369  -0.366
 -0.365  -0.364  -0.361  -0.361  -0.360  -0.360  -0.358  -0.357
 -0.357  -0.356  -0.356  -0.355  -0.354  -0.354  -0.352  -0.352
 -0.351  -0.350  -0.348  -0.347  -0.345  -0.345  -0.344  -0.343
 -0.342  -0.342  -0.341  -0.339  -0.338  -0.338  -0.336  -0.332
 -0.332  -0.331  -0.331  -0.329  -0.326  -0.326  -0.324  -0.322
 -0.310  -0.300  -0.299  -0.296  -0.289  -0.287  -0.276  -0.273
 -0.269  -0.269  -0.267  -0.266  -0.265  -0.265  -0.264  -0.264
 -0.263  -0.261  -0.260  -0.258  -0.257  -0.256  -0.255  -0.253
 -0.252  -0.250  -0.246  -0.245  -0.221  -0.218  -0.212  -0.209
 -0.208  -0.207  -0.206  -0.204  -0.200  -0.194

          Ground-State Mulliken Net Atomic Charges

     Atom                 Charge (a.u.)
  ----------------------------------------
      1 O                    -0.468737
      2 C                    -0.084312
      3 H                     0.126412
      4 H                     0.125959
      5 H                     0.123626
      6 O                    -0.461664
      7 C                     0.598755
      8 C                    -0.263780
      9 H                     0.131372
     10 H                     0.137112
     11 C                    -0.178889
     12 H                     0.118532
     13 H                     0.111481
     14 C                    -0.202432
     15 H                     0.113244
     16 H                     0.102283
     17 C                     0.021719
     18 C                     0.067997
     19 C                    -0.100651
     20 H                     0.095652
     21 C                    -0.095223
     22 H                     0.093423
     23 C                    -0.076087
     24 H                     0.092092
     25 C                    -0.093485
     26 H                     0.090637
     27 C                    -0.092077
     28 H                     0.099754
     29 C                    -0.017135
     30 C                     0.004569
     31 C                    -0.009999
     32 C                    -0.001086
     33 C                    -0.040835
     34 C                     0.010277
     35 C                    -0.016282
     36 C                     0.022059
     37 C                     0.000213
     38 C                     0.001307
     39 C                    -0.094799
     40 C                    -0.009585
     41 C                    -0.014197
     42 C                    -0.002081
     43 C                    -0.033814
     44 C                     0.027741
     45 C                    -0.086321
     46 C                     0.042174
     47 C                    -0.006603
     48 C                    -0.008442
     49 C                     0.009054
     50 C                    -0.016701
     51 C                     0.020387
     52 C                     0.011944
     53 C                     0.054767
     54 C                    -0.031608
     55 C                    -0.008513
     56 C                     0.027942
     57 C                    -0.007991
     58 C                    -0.005652
     59 C                    -0.006964
     60 C                     0.022511
     61 C                    -0.003143
     62 C                     0.006589
     63 C                     0.028126
     64 C                     0.007348
     65 C                     0.014822
     66 C                     0.007871
     67 C                    -0.015322
     68 C                    -0.020097
     69 C                     0.034138
     70 C                     0.045849
     71 C                    -0.024397
     72 C                     0.006144
     73 C                    -0.008926
     74 C                     0.045396
     75 C                     0.005082
     76 C                    -0.027362
     77 C                    -0.000720
     78 C                    -0.017413
     79 C                     0.001535
     80 C                     0.000450
     81 C                    -0.018319
     82 C                    -0.020779
     83 C                     0.015874
     84 C                     0.025373
     85 C                    -0.014329
     86 C                    -0.006008
     87 C                    -0.031227
     88 C                    -0.003813
     89 O                    -0.470616
     90 C                    -0.090203
     91 H                     0.140787
     92 H                     0.126584
     93 H                     0.128014
     94 O                    -0.472161
     95 C                     0.581183
     96 C                    -0.258988
     97 H                     0.136036
     98 H                     0.132473
     99 C                    -0.184000
    100 H                     0.116892
    101 H                     0.131473
    102 C                    -0.183820
    103 H                     0.111346
    104 H                     0.113512
    105 C                    -0.005227
    106 C                     0.078641
    107 C                    -0.092770
    108 H                     0.092088
    109 C                    -0.086171
    110 H                     0.091037
    111 C                    -0.082845
    112 H                     0.090062
    113 C                    -0.100258
    114 H                     0.097942
    115 C                    -0.103007
    116 H                     0.099570
    117 C                    -0.020384
    118 C                     0.021787
    119 C                     0.008100
    120 C                    -0.012750
    121 C                     0.000985
    122 C                    -0.027710
    123 C                     0.018033
    124 C                    -0.032807
    125 C                    -0.000234
    126 C                    -0.014906
    127 C                    -0.059553
    128 C                     0.006808
    129 C                    -0.024044
    130 C                    -0.017167
    131 C                    -0.006514
    132 C                    -0.001605
    133 C                    -0.065131
    134 C                     0.019839
    135 C                    -0.012583
    136 C                    -0.006764
    137 C                    -0.001000
    138 C                    -0.003260
    139 C                    -0.000494
    140 C                    -0.012345
    141 C                     0.028152
    142 C                    -0.004204
    143 C                     0.005665
    144 C                    -0.014382
    145 C                     0.009007
    146 C                    -0.014638
    147 C                     0.030156
    148 C                    -0.005319
    149 C                    -0.025374
    150 C                     0.003428
    151 C                     0.012524
    152 C                    -0.008204
    153 C                    -0.023361
    154 C                     0.003616
    155 C                     0.000690
    156 C                     0.030100
    157 C                     0.021893
    158 C                     0.000635
    159 C                    -0.004611
    160 C                    -0.000234
    161 C                    -0.018394
    162 C                     0.002353
    163 C                    -0.029293
    164 C                    -0.003974
    165 C                     0.006264
    166 C                    -0.013271
    167 C                    -0.002758
    168 C                     0.024744
    169 C                    -0.025874
    170 C                    -0.006526
    171 C                     0.013293
    172 C                     0.002678
    173 C                     0.011863
    174 C                     0.030720
    175 C                     0.051770
    176 C                     0.015199
  ----------------------------------------
  Sum of atomic charges =     0.000000

                    Cartesian Multipole Moments
 -----------------------------------------------------------------
    Charge (ESU x 10^10)
                 0.0000
    Dipole Moment (Debye)
         X      -1.0079      Y       0.7169      Z       4.4283
       Tot       4.5978
    Quadrupole Moments (Debye-Ang)
        XX    -780.4225     XY      -1.4335     YY    -820.2999
        XZ     -22.1207     YZ      32.9537     ZZ    -790.5164

 Total job time:  866.41s(wall), 8221.31s(cpu)
        *  Thank you very much for using Q-Chem.  Have a nice day.  *
