 Q-Chem 4.4, Q-Chem, Inc., Pleasanton, CA (2016)
 Q-Chem 4.4.2 for Intel X86 Linux

User input:
--------------------------------------------------------------
$comment
SP
$end

$rem
MEM_STATIC 5000
MEM_TOTAL 20000
JOBTYPE SP
EXCHANGE B3LYP
BASIS 6-31g(d,p)
$end

$molecule
0 1
O          16.650000     15.709000     -1.140000
C          17.511000     16.506000     -0.341000
H          17.126000     17.496000     -0.067000
H          18.410000     16.715000     -0.934000
H          17.875000     16.050000      0.589000
O          14.686000     16.049000      0.090000
C          15.324000     15.622000     -0.841000
C          14.662000     14.950000     -2.002000
H          15.336000     14.543000     -2.766000
H          14.053000     15.740000     -2.459000
C          13.612000     13.988000     -1.550000
H          12.762000     14.521000     -1.105000
H          13.261000     13.465000     -2.449000
C          13.925000     12.893000     -0.574000
H          14.170000     13.318000      0.406000
H          13.014000     12.295000     -0.445000
C          14.991000     11.852000     -1.122000
C          16.436000     12.195000     -0.695000
C          17.378000     12.925000     -1.439000
H          17.190000     13.325000     -2.431000
C          18.552000     13.378000     -0.847000
H          19.204000     14.055000     -1.390000
C          18.926000     12.923000      0.437000
H          19.834000     13.275000      0.916000
C          18.039000     12.103000      1.137000
H          18.295000     11.842000      2.159000
C          16.778000     11.763000      0.602000
H          16.073000     11.184000      1.190000
C          17.077000      8.801000     -5.196000
C          17.498000      7.539000     -3.113000
C          14.605000      4.162000     -3.838000
C          12.077000      9.787000     -5.441000
C          12.115000      5.442000     -1.706000
C          17.376000      8.784000     -3.804000
C          10.715000      7.650000     -4.209000
C          16.156000      5.300000     -5.379000
C          14.693000      8.262000     -0.234000
C          11.620000      9.922000     -4.137000
C          14.572000     10.388000     -1.143000
C          13.382000      8.535000     -0.407000
C          11.255000      8.938000     -2.189000
C          10.833000      6.451000     -3.536000
C          16.597000      9.026000     -1.605000
C          12.407000      4.633000     -3.972000
C          14.764000     11.143000     -2.434000
C          13.626000     11.087000     -3.425000
C          12.735000      4.527000     -2.612000
C          13.507000      6.983000     -6.966000
C          13.776000      4.988000     -5.970000
C          15.051000      5.496000     -6.241000
C          17.016000      6.345000     -5.164000
C          14.133000     10.919000     -4.736000
C          15.490000      9.282000     -0.705000
C          17.407000      6.334000     -3.813000
C          10.900000      8.901000     -3.533000
C          17.032000      7.710000     -1.786000
C          12.430000      7.480000     -0.622000
C          13.967000      9.355000     -6.602000
C          15.849000      4.674000     -4.199000
C          13.191000      9.778000     -0.949000
C          15.745000      7.720000     -6.650000
C          11.368000      7.692000     -1.505000
C          15.141000      6.934000     -0.415000
C          11.626000      6.183000     -5.670000
C          11.163000      7.488000     -5.543000
C          14.249000      5.873000     -0.675000
C          13.346000     10.293000     -5.737000
C          12.370000     10.603000     -3.119000
C          13.088000      8.260000     -6.793000
C          15.961000     10.689000     -3.296000
C          16.177000      5.465000     -1.866000
C          12.184000      9.945000     -1.918000
C          12.859000      6.123000     -0.751000
C          15.323000      9.063000     -6.605000
C          14.109000      4.307000     -2.504000
C          16.867000      7.578000     -5.807000
C          13.547000      4.392000     -4.737000
C          16.342000      6.676000     -1.126000
C          14.859000      4.978000     -1.552000
C          16.848000      9.683000     -2.848000
C          15.516000     10.617000     -4.641000
C          12.866000      5.887000     -6.404000
C          16.696000      5.264000     -3.199000
C          11.229000      6.428000     -2.199000
C          11.918000      8.514000     -6.118000
C          11.440000      5.530000     -4.413000
C          16.088000      9.719000     -5.561000
C          14.846000      6.639000     -6.956000
O          20.152000      8.682000     -1.185000
C          20.461000     10.071000     -0.668000
H          21.319000     10.531000     -1.174000
H          20.662000     10.194000      0.403000
H          19.558000     10.676000     -0.820000
O          22.127000      7.964000     -0.141000
C          21.126000      7.762000     -0.795000
C          20.832000      6.454000     -1.452000
H          21.733000      6.101000     -1.966000
H          20.128000      6.604000     -2.279000
C          20.255000      5.382000     -0.538000
H          20.953000      5.381000      0.309000
H          19.304000      5.751000     -0.133000
C          20.099000      4.028000     -1.244000
H          19.323000      4.265000     -1.981000
H          20.909000      3.670000     -1.893000
C          19.700000      2.868000     -0.320000
C          20.347000      2.936000      1.045000
C          21.664000      2.375000      1.214000
H          22.292000      2.174000      0.353000
C          22.160000      2.250000      2.524000
H          23.170000      1.875000      2.659000
C          21.428000      2.675000      3.651000
H          21.973000      2.692000      4.589000
C          20.099000      3.102000      3.502000
H          19.507000      3.352000      4.378000
C          19.584000      3.304000      2.211000
H          18.539000      3.581000      2.106000
C          19.488000     -2.535000      0.381000
C          17.681000     -1.727000      1.805000
C          14.296000     -3.214000     -1.059000
C          19.059000     -0.724000     -4.421000
C          13.868000     -0.117000     -2.483000
C          18.965000     -1.559000      1.218000
C          16.360000     -0.392000     -5.032000
C          16.420000     -4.206000     -0.355000
C          16.201000      1.671000      0.293000
C          18.470000      0.567000     -4.420000
C          18.400000      2.152000     -0.508000
C          16.146000      2.172000     -1.001000
C          16.649000      1.570000     -3.720000
C          15.057000     -0.579000     -4.543000
C          18.004000      0.476000      1.277000
C          14.163000     -2.367000     -3.175000
C          19.637000      1.439000     -0.924000
C          19.775000      1.019000     -2.420000
C          13.570000     -1.480000     -2.265000
C          17.847000     -3.924000     -3.570000
C          15.758000     -4.135000     -2.768000
C          16.621000     -4.498000     -1.727000
C          17.443000     -3.771000      0.489000
C          20.338000     -0.272000     -2.450000
C          17.542000      1.572000      0.607000
C          16.912000     -2.893000      1.415000
C          17.147000      0.678000     -4.689000
C          17.077000     -0.468000      1.839000
C          15.108000      1.696000     -1.866000
C          19.759000     -2.484000     -3.222000
C          15.269000     -3.529000     -0.004000
C          17.386000      2.406000     -1.570000
C          18.965000     -3.923000     -1.432000
C          15.350000      1.444000     -3.233000
C          15.288000      0.692000      0.763000
C          16.049000     -2.638000     -4.653000
C          16.942000     -1.663000     -5.112000
C          14.244000      0.291000     -0.126000
C          20.026000     -1.156000     -3.536000
C          18.819000      1.439000     -3.380000
C          18.705000     -2.953000     -4.060000
C          19.897000      0.148000     -0.234000
C          14.967000     -1.469000      1.089000
C          17.660000      2.059000     -2.924000
C          14.205000      0.767000     -1.418000
C          19.863000     -2.992000     -1.893000
C          13.688000     -1.966000     -0.938000
C          18.704000     -3.621000     -0.080000
C          14.645000     -3.374000     -2.391000
C          15.738000     -0.348000      1.516000
C          14.044000     -1.114000      0.148000
C          19.141000     -0.235000      0.918000
C          20.352000     -0.797000     -1.163000
C          16.481000     -3.796000     -3.918000
C          15.584000     -2.719000      1.075000
C          14.541000      0.356000     -3.629000
C          18.298000     -1.827000     -4.754000
C          14.859000     -1.982000     -4.306000
C          20.136000     -2.152000     -0.820000
C          17.920000     -4.380000     -2.224000
$end

--------------------------------------------------------------

             Standard Nuclear Orientation (Angstroms)
    I     Atom           X                Y                Z
 ----------------------------------------------------------------
    1      O      10.7022604688     2.9636291461     0.0149224477
    2      C      11.2716131298     4.2603756321    -0.0810832745
    3      H      12.2910832717     4.3046222406    -0.4837293565
    4      H      11.3609949247     4.6565635154     0.9380227337
    5      H      10.6901161927     5.0091453399    -0.6347413249
    6      O      11.2935137472     2.2086342075    -2.1219439973
    7      C      10.8304465706     2.0814390478    -1.0149100406
    8      C      10.3753351857     0.7511545182    -0.5040620225
    9      H       9.9130426376     0.7544134137     0.4908731410
   10      H      11.2928834477     0.1511189935    -0.4605585072
   11      C       9.5844531513     0.0122255568    -1.5339831834
   12      H      10.2254597026    -0.2937576202    -2.3707023098
   13      H       9.2007036039    -0.8913441933    -1.0428325023
   14      C       8.3815926573     0.6283910842    -2.1843958792
   15      H       8.6819973435     1.4780428446    -2.8080134788
   16      H       7.9472304002    -0.1235016200    -2.8553301465
   17      C       7.2113812651     0.9483229186    -1.1603890829
   18      C       7.2591135733     2.3998126754    -0.6322772458
   19      C       7.8633227117     2.8383468124     0.5578568340
   20      H       8.3631890080     2.1808741225     1.2630315271
   21      C       8.0548915346     4.1946886954     0.7978299213
   22      H       8.6436928371     4.5138419907     1.6520759048
   23      C       7.4462123728     5.1601254034    -0.0346354778
   24      H       7.5944093057     6.2219139614     0.1340409204
   25      C       6.7471899007     4.7220362155    -1.1609633372
   26      H       6.3693842269     5.4766533931    -1.8435736127
   27      C       6.6777251861     3.3520676361    -1.4930879295
   28      H       6.1911568065     3.0361282652    -2.4103902384
   29      C       4.1502893679    -0.3843859032     3.2112326520
   30      C       2.6818462936     0.9377738414     1.7265298039
   31      C      -0.0631884961    -2.3953426576     0.4403255403
   32      C       6.0253283798    -4.2736991552     0.4928338343
   33      C       1.4767442250    -2.8561689335    -2.6901968375
   34      C       3.9766784439     0.6677561599     2.2677230728
   35      C       4.0788567957    -5.0181381600    -1.4036618658
   36      C       0.8924505608    -1.8714989505     2.6511325793
   37      C       3.6755825510     0.5653324777    -2.2172210353
   38      C       6.1418833373    -3.8391047790    -0.8205711565
   39      C       5.8509484591     0.3325665946    -1.4593284247
   40      C       4.1895233027    -0.5158317499    -2.8418231620
   41      C       5.0960798699    -3.1621787104    -2.6493005529
   42      C       2.8312142410    -4.7532599312    -1.9306168729
   43      C       4.1887874395     1.3967664476     0.0485881570
   44      C       0.7998882270    -4.1135519705    -0.7317906344
   45      C       6.6538510811    -0.1360079006    -0.2721657054
   46      C       6.8751664531    -1.6248722028    -0.1514859819
   47      C       0.5361750826    -3.0741393829    -1.6364987918
   48      C       3.1332884454    -4.5735318457     2.4368365029
   49      C       1.0536563354    -4.1486553370     1.7026619736
   50      C       1.3455516808    -3.2112267870     2.6992335069
   51      C       1.7488536283    -0.8732737252     3.0358015091
   52      C       6.7178597942    -2.0304747704     1.1956350862
   53      C       4.5697899067     1.1050889152    -1.3191641367
   54      C       1.5678230980     0.2281326184     2.1800357623
   55      C       5.2230867850    -4.2401536399    -1.7800656623
   56      C       2.8336119601     1.3855893537     0.3909570993
   57      C       3.3396707992    -1.5882324135    -3.2814383789
   58      C       5.3518205910    -3.5534218296     2.5261151314
   59      C       0.2448533614    -1.5345674635     1.4911239412
   60      C       5.4835596375    -0.7526420230    -2.4614485323
   61      C       3.4348577103    -2.4904707000     3.5420881673
   62      C       3.8023889396    -2.9035466605    -3.1902388484
   63      C       2.3063201728     0.5621255403    -1.8677081524
   64      C       2.5862585929    -5.4378291345     0.2433175180
   65      C       3.9396453600    -5.4825402750    -0.0727017418
   66      C       1.4432628715    -0.4907637098    -2.2358675224
   67      C       6.3181917482    -3.3560935728     1.5058708735
   68      C       6.6008326574    -2.5222489953    -1.1638514598
   69      C       4.4479465232    -4.5617963433     2.1085753015
   70      C       6.0597257272     0.2117263524     1.1091615380
   71      C       0.7887820280     0.2461915025    -0.1548387286
   72      C       5.8987501868    -2.0838381493    -2.2705750633
   73      C       1.9414563029    -1.5811559986    -2.9863500081
   74      C       4.8243508113    -2.5441700481     3.3180718681
   75      C       0.0678791806    -1.9718466809    -0.9198470303
   76      C       3.0331355556    -1.1384698950     3.5218364077
   77      C       0.4176728858    -3.7135725565     0.5475974620
   78      C       1.8925498277     1.0386859675    -0.5964213001
   79      C       0.5219354198    -0.6957584622    -1.2104959418
   80      C       4.8814583738     0.9845005997     1.2275465310
   81      C       6.1684712849    -0.9441219649     1.9242830449
   82      C       2.1299793643    -4.9512871269     1.5544460931
   83      C       0.5986002439    -0.1691235097     1.2155609684
   84      C       2.6385631393    -3.6584212089    -2.7727140913
   85      C       4.8549615858    -5.0359582515     0.8844224419
   86      C       1.8849083907    -4.9654800516    -0.9082241606
   87      C       5.2541636604    -1.2048836976     2.9616030951
   88      C       2.5568493608    -3.5797145425     3.2058632578
   89      O       3.1876580905     4.3737722121     1.8001410980
   90      C       4.4570943150     5.1813424295     1.6314608803
   91      H       4.7935724692     5.6435709755     2.5679048044
   92      H       4.4622108163     5.9935032002     0.8946164571
   93      H       5.2226723688     4.4953594501     1.2469409256
   94      O       2.0540542552     6.4067669305     2.0967213055
   95      C       2.0826258572     5.1968400986     2.0206836510
   96      C       0.9004360739     4.3337176935     2.3146156670
   97      H       0.4321229548     4.6728178005     3.2453680185
   98      H       1.2344712289     3.3211521222     2.5699125120
   99      C      -0.1169421710     4.2181956374     1.1880699904
  100      H      -0.3051976405     5.2657276562     0.9200204654
  101      H       0.3840876396     3.7785594297     0.3161318425
  102      C      -1.3651606625     3.4260392462     1.6010189572
  103      H      -0.9396608347     2.4262155965     1.7452984295
  104      H      -1.8121328952     3.6131271531     2.5862493558
  105      C      -2.5012910272     3.4398263960     0.5677742094
  106      C      -2.6513793243     4.7654651447    -0.1439935976
  107      C      -3.4486832162     5.7950688889     0.4740627380
  108      H      -3.6934312760     5.7435785030     1.5293130056
  109      C      -3.7571930507     6.9334901880    -0.2918090710
  110      H      -4.3148519385     7.7366065042     0.1803887132
  111      C      -3.2939783379     7.1019433628    -1.6122762830
  112      H      -3.4441420808     8.0862303166    -2.0433076540
  113      C      -2.6275156007     6.0496081057    -2.2597242937
  114      H      -2.3422081512     6.1474045883    -3.3034558239
  115      C      -2.2414879366     4.9218675101    -1.5168287481
  116      H      -1.7760005577     4.0905769331    -2.0384190822
  117      C      -7.8174169874     2.6747949978    -0.3715264536
  118      C      -6.8093313342     2.2451337801    -2.5498385419
  119      C      -7.4529091072    -2.3813713312    -2.3192998130
  120      C      -5.6061992249    -0.1532418583     3.3211270026
  121      C      -4.2317822956    -2.9771238602    -1.2840269083
  122      C      -6.8291021679     2.9397551360    -1.3094517933
  123      C      -4.7548544629    -2.5723204171     2.2296064932
  124      C      -8.8565291657    -0.4829445293    -1.6736354967
  125      C      -3.0991897030     0.8271010666    -2.0528674156
  126      C      -4.2347484390    -0.3738529153     3.0312020067
  127      C      -2.9586247977     2.1733092332    -0.0839773527
  128      C      -2.5013650821     0.1150868281    -1.0213135164
  129      C      -2.9788707066    -1.2046800568     1.4360382589
  130      C      -4.7430434161    -3.3431848619     1.0559253155
  131      C      -4.6657766201     2.6002579614    -1.8319374320
  132      C      -6.4404395853    -3.5743333479    -0.6566810673
  133      C      -3.8472448816     2.7668289258     0.9502773165
  134      C      -4.1724033976     1.9150236477     2.2160417921
  135      C      -5.5324451503    -3.3380282537    -1.6989017774
  136      C      -8.5939991854    -1.2033397078     1.7708073895
  137      C      -8.4892709155    -2.4119602917    -0.1212587493
  138      C      -9.0765374544    -1.1881977710    -0.4643947358
  139      C      -8.6745485012     0.8998654522    -1.7266410895
  140      C      -5.5370684236     2.0981107745     2.5138982524
  141      C      -3.4582414487     2.0475129752    -1.5158808074
  142      C      -7.7876048148     1.1926408880    -2.7454317654
  143      C      -3.8704773775    -1.5513523394     2.4692298544
  144      C      -5.4690716462     2.0261908854    -2.8766733284
  145      C      -2.7193430986    -1.2995634494    -0.9621934985
  146      C      -7.5470291305     0.7739886115     2.6897602838
  147      C      -8.0136843835    -1.0539222819    -2.6063348476
  148      C      -2.4498906492     0.7980925457     0.1815873824
  149      C      -8.9512150441     0.9354642811     0.7130345749
  150      C      -2.9077670144    -1.9621592670     0.2691554409
  151      C      -3.9324606783     0.2032662340    -3.0169211400
  152      C      -6.9316308354    -3.0138733783     1.6366869316
  153      C      -6.0995475044    -2.4000229511     2.5798624101
  154      C      -4.0739905244    -1.2162019457    -2.9385796479
  155      C      -6.2680405176     1.0474022251     3.1618853987
  156      C      -3.5187032718     0.6765786031     2.4415767496
  157      C      -7.7573052311    -0.6360138741     2.7180083319
  158      C      -5.2116833512     3.1361001780     0.4894873374
  159      C      -6.0201036821    -0.2614664743    -3.5691966134
  160      C      -2.7381917452     0.1505212479     1.4170366499
  161      C      -3.5036914260    -1.9191434908    -1.9003151717
  162      C      -8.1630460352     1.5438280188     1.6587455118
  163      C      -6.1292159367    -2.5542460408    -2.7189993566
  164      C      -8.7092323573     1.5836489123    -0.5151877434
  165      C      -7.5726992904    -2.9220249626    -1.0484855218
  166      C      -5.0890989908     0.8059784358    -3.4042644191
  167      C      -5.4374689063    -1.4749486268    -3.3424086428
  168      C      -5.5388969405     3.1491530583    -0.9026656317
  169      C      -6.1506286763     2.7692844193     1.4625849048
  170      C      -8.1995112100    -2.4580069568     1.2477076556
  171      C      -7.3553351181    -0.0188353751    -3.2503358881
  172      C      -3.8019430961    -3.0350213467     0.0583069338
  173      C      -6.5283265101    -1.1540613387     3.0873308571
  174      C      -6.1021573111    -3.6217902898     0.6831379286
  175      C      -7.4673426783     2.5479874917     0.9960852729
  176      C      -9.1547456479    -0.4381095412     0.7101626813
 ----------------------------------------------------------------

    9   -5804.2398778915      8.24E-06 Convergence criterion met
 Total energy in the final basis set = -5804.2398778915

                    Orbital Energies (a.u.)
 --------------------------------------------------------------

 Alpha MOs
 -- Occupied --
-19.206 -19.195 -19.147 -19.139 -10.323 -10.313 -10.250 -10.246
-10.242 -10.238 -10.237 -10.236 -10.234 -10.233 -10.232 -10.232
-10.230 -10.227 -10.227 -10.227 -10.225 -10.224 -10.224 -10.223
-10.223 -10.223 -10.222 -10.222 -10.222 -10.221 -10.221 -10.221
-10.220 -10.220 -10.220 -10.220 -10.219 -10.219 -10.219 -10.218
-10.218 -10.218 -10.218 -10.218 -10.218 -10.218 -10.217 -10.217
-10.217 -10.217 -10.217 -10.217 -10.217 -10.217 -10.217 -10.217
-10.217 -10.216 -10.216 -10.216 -10.216 -10.215 -10.215 -10.215
-10.215 -10.215 -10.215 -10.215 -10.214 -10.214 -10.214 -10.214
-10.214 -10.214 -10.214 -10.214 -10.214 -10.214 -10.214 -10.214
-10.214 -10.214 -10.214 -10.213 -10.213 -10.213 -10.213 -10.213
-10.213 -10.213 -10.213 -10.212 -10.212 -10.211 -10.211 -10.211
-10.211 -10.211 -10.210 -10.210 -10.210 -10.210 -10.210 -10.210
-10.210 -10.210 -10.209 -10.209 -10.209 -10.209 -10.208 -10.208
-10.208 -10.208 -10.208 -10.208 -10.208 -10.208 -10.207 -10.207
-10.207 -10.207 -10.207 -10.207 -10.207 -10.206 -10.206 -10.206
-10.206 -10.206 -10.205 -10.205 -10.205 -10.205 -10.204 -10.204
-10.204 -10.201 -10.201 -10.201 -10.200 -10.199 -10.198 -10.197
-10.196 -10.194 -10.190 -10.189  -1.106  -1.078  -1.033  -1.007
 -0.985  -0.983  -0.969  -0.966  -0.963  -0.962  -0.961  -0.961
 -0.936  -0.934  -0.929  -0.928  -0.927  -0.925  -0.923  -0.922
 -0.921  -0.920  -0.901  -0.899  -0.890  -0.890  -0.885  -0.884
 -0.876  -0.872  -0.859  -0.845  -0.842  -0.841  -0.840  -0.840
 -0.839  -0.837  -0.826  -0.819  -0.815  -0.806  -0.801  -0.799
 -0.798  -0.795  -0.795  -0.794  -0.792  -0.791  -0.783  -0.782
 -0.773  -0.771  -0.769  -0.768  -0.767  -0.766  -0.765  -0.758
 -0.757  -0.755  -0.746  -0.739  -0.735  -0.729  -0.719  -0.717
 -0.716  -0.715  -0.714  -0.712  -0.712  -0.711  -0.710  -0.709
 -0.708  -0.708  -0.705  -0.704  -0.701  -0.696  -0.676  -0.671
 -0.660  -0.659  -0.658  -0.656  -0.650  -0.643  -0.634  -0.633
 -0.631  -0.628  -0.625  -0.622  -0.620  -0.619  -0.617  -0.617
 -0.616  -0.615  -0.614  -0.613  -0.612  -0.612  -0.609  -0.608
 -0.608  -0.604  -0.603  -0.602  -0.577  -0.565  -0.563  -0.562
 -0.561  -0.560  -0.559  -0.557  -0.556  -0.555  -0.553  -0.552
 -0.540  -0.535  -0.533  -0.531  -0.529  -0.528  -0.525  -0.525
 -0.523  -0.522  -0.522  -0.519  -0.516  -0.515  -0.515  -0.514
 -0.512  -0.506  -0.504  -0.498  -0.497  -0.492  -0.490  -0.487
 -0.485  -0.483  -0.483  -0.481  -0.480  -0.479  -0.478  -0.477
 -0.474  -0.474  -0.470  -0.468  -0.468  -0.467  -0.467  -0.466
 -0.465  -0.464  -0.464  -0.463  -0.462  -0.461  -0.460  -0.459
 -0.458  -0.455  -0.453  -0.451  -0.448  -0.447  -0.445  -0.444
 -0.443  -0.443  -0.441  -0.441  -0.438  -0.438  -0.435  -0.433
 -0.432  -0.431  -0.430  -0.429  -0.428  -0.427  -0.427  -0.426
 -0.425  -0.424  -0.422  -0.422  -0.421  -0.420  -0.419  -0.418
 -0.417  -0.417  -0.416  -0.416  -0.415  -0.414  -0.413  -0.412
 -0.411  -0.410  -0.407  -0.407  -0.405  -0.401  -0.399  -0.397
 -0.393  -0.392  -0.392  -0.391  -0.389  -0.388  -0.386  -0.383
 -0.381  -0.377  -0.375  -0.374  -0.370  -0.369  -0.366  -0.365
 -0.365  -0.364  -0.363  -0.362  -0.362  -0.360  -0.359  -0.358
 -0.358  -0.357  -0.356  -0.355  -0.355  -0.353  -0.352  -0.352
 -0.351  -0.350  -0.350  -0.349  -0.348  -0.345  -0.344  -0.342
 -0.342  -0.340  -0.340  -0.339  -0.337  -0.336  -0.336  -0.333
 -0.332  -0.331  -0.330  -0.330  -0.327  -0.326  -0.325  -0.320
 -0.313  -0.309  -0.303  -0.300  -0.291  -0.285  -0.281  -0.277
 -0.272  -0.271  -0.270  -0.270  -0.268  -0.268  -0.265  -0.264
 -0.264  -0.262  -0.261  -0.260  -0.258  -0.257  -0.253  -0.252
 -0.251  -0.246  -0.242  -0.240  -0.225  -0.220  -0.215  -0.212
 -0.209  -0.208  -0.206  -0.202  -0.200  -0.192

          Ground-State Mulliken Net Atomic Charges

     Atom                 Charge (a.u.)
  ----------------------------------------
      1 O                    -0.455691
      2 C                    -0.098625
      3 H                     0.127864
      4 H                     0.117000
      5 H                     0.128206
      6 O                    -0.471902
      7 C                     0.634711
      8 C                    -0.257940
      9 H                     0.115371
     10 H                     0.141117
     11 C                    -0.175891
     12 H                     0.115625
     13 H                     0.097213
     14 C                    -0.190811
     15 H                     0.124729
     16 H                     0.106260
     17 C                     0.007412
     18 C                     0.072201
     19 C                    -0.092542
     20 H                     0.094779
     21 C                    -0.088115
     22 H                     0.090493
     23 C                    -0.106006
     24 H                     0.091830
     25 C                    -0.095984
     26 H                     0.092368
     27 C                    -0.091289
     28 H                     0.099610
     29 C                    -0.022981
     30 C                     0.030890
     31 C                     0.002832
     32 C                    -0.019584
     33 C                     0.009396
     34 C                    -0.001288
     35 C                     0.010171
     36 C                     0.013092
     37 C                     0.010192
     38 C                    -0.003475
     39 C                    -0.106214
     40 C                     0.025152
     41 C                    -0.015180
     42 C                    -0.000588
     43 C                     0.027316
     44 C                     0.031083
     45 C                    -0.071337
     46 C                     0.027328
     47 C                    -0.024830
     48 C                     0.010749
     49 C                     0.004818
     50 C                    -0.000006
     51 C                     0.003001
     52 C                     0.001426
     53 C                     0.011461
     54 C                    -0.040694
     55 C                     0.006501
     56 C                     0.012825
     57 C                    -0.000619
     58 C                    -0.000610
     59 C                     0.026894
     60 C                     0.035080
     61 C                     0.001925
     62 C                    -0.019588
     63 C                    -0.011392
     64 C                    -0.020761
     65 C                    -0.003780
     66 C                    -0.010133
     67 C                    -0.004245
     68 C                    -0.012062
     69 C                     0.053578
     70 C                     0.003334
     71 C                    -0.007844
     72 C                     0.022125
     73 C                    -0.012535
     74 C                    -0.035992
     75 C                     0.010289
     76 C                     0.028194
     77 C                    -0.014899
     78 C                    -0.028790
     79 C                     0.026552
     80 C                    -0.002292
     81 C                     0.022083
     82 C                     0.003828
     83 C                    -0.012642
     84 C                    -0.000684
     85 C                    -0.015858
     86 C                    -0.018261
     87 C                    -0.006031
     88 C                    -0.034829
     89 O                    -0.480730
     90 C                    -0.109259
     91 H                     0.124865
     92 H                     0.129488
     93 H                     0.138519
     94 O                    -0.465484
     95 C                     0.607658
     96 C                    -0.251385
     97 H                     0.125689
     98 H                     0.118676
     99 C                    -0.200117
    100 H                     0.130729
    101 H                     0.112097
    102 C                    -0.188909
    103 H                     0.116096
    104 H                     0.109308
    105 C                     0.022098
    106 C                     0.053676
    107 C                    -0.096439
    108 H                     0.096433
    109 C                    -0.089474
    110 H                     0.088564
    111 C                    -0.078487
    112 H                     0.092377
    113 C                    -0.089110
    114 H                     0.092896
    115 C                    -0.103393
    116 H                     0.092804
    117 C                    -0.011688
    118 C                    -0.020379
    119 C                    -0.018108
    120 C                     0.031900
    121 C                     0.006461
    122 C                    -0.003752
    123 C                     0.016089
    124 C                    -0.010081
    125 C                    -0.006257
    126 C                    -0.004109
    127 C                    -0.103573
    128 C                     0.011620
    129 C                    -0.002534
    130 C                    -0.014834
    131 C                     0.022155
    132 C                     0.024982
    133 C                    -0.094022
    134 C                     0.023532
    135 C                    -0.025881
    136 C                    -0.014921
    137 C                    -0.004919
    138 C                     0.008513
    139 C                     0.012073
    140 C                    -0.005141
    141 C                     0.014212
    142 C                    -0.004976
    143 C                     0.009724
    144 C                    -0.017278
    145 C                    -0.010183
    146 C                    -0.003667
    147 C                    -0.016477
    148 C                     0.054562
    149 C                     0.009222
    150 C                     0.003847
    151 C                    -0.003657
    152 C                     0.015882
    153 C                    -0.025965
    154 C                    -0.040601
    155 C                    -0.048450
    156 C                    -0.035010
    157 C                     0.011861
    158 C                     0.033030
    159 C                     0.005171
    160 C                     0.035923
    161 C                     0.021138
    162 C                     0.013764
    163 C                    -0.006611
    164 C                    -0.009227
    165 C                     0.029695
    166 C                     0.016815
    167 C                     0.015694
    168 C                     0.035620
    169 C                     0.022155
    170 C                    -0.022557
    171 C                     0.003791
    172 C                    -0.026348
    173 C                     0.006336
    174 C                    -0.012700
    175 C                    -0.016166
    176 C                     0.001036
  ----------------------------------------
  Sum of atomic charges =     0.000000

                    Cartesian Multipole Moments
 -----------------------------------------------------------------
    Charge (ESU x 10^10)
                 0.0000
    Dipole Moment (Debye)
         X       4.6912      Y       2.7946      Z       0.7859
       Tot       5.5168
    Quadrupole Moments (Debye-Ang)
        XX    -792.2989     XY      13.5494     YY    -802.3176
        XZ      14.7747     YZ      -3.6874     ZZ    -811.0314

 Total job time:  907.00s(wall), 8663.09s(cpu)
        *  Thank you very much for using Q-Chem.  Have a nice day.  *
