 Q-Chem 4.4, Q-Chem, Inc., Pleasanton, CA (2016)
 Q-Chem 4.4.2 for Intel X86 Linux

User input:
--------------------------------------------------------------
$comment
SP
$end

$rem
MEM_STATIC 5000
MEM_TOTAL 20000
JOBTYPE SP
EXCHANGE B3LYP
BASIS 6-31g(d,p)
$end

$molecule
0 1
O          -9.473000    -28.087000      2.132000
C          -8.942000    -27.878000      0.765000
H          -7.992000    -27.338000      0.863000
H          -9.615000    -27.242000      0.176000
H          -8.804000    -28.847000      0.271000
O          -8.445000    -30.098000      2.500000
C          -9.061000    -29.125000      2.865000
C          -9.645000    -28.988000      4.262000
H          -9.226000    -28.018000      4.560000
H          -9.105000    -29.619000      4.979000
C         -11.226000    -29.110000      4.470000
H         -11.633000    -28.789000      3.503000
H         -11.414000    -30.182000      4.606000
C         -11.602000    -28.154000      5.655000
H         -11.284000    -28.494000      6.648000
H         -11.070000    -27.197000      5.585000
C         -13.154000    -28.051000      5.845000
C         -13.680000    -29.183000      6.725000
C         -14.546000    -30.222000      6.152000
H         -14.642000    -30.359000      5.078000
C         -14.963000    -31.264000      6.973000
H         -15.621000    -32.030000      6.575000
C         -14.724000    -31.236000      8.387000
H         -15.070000    -32.074000      8.984000
C         -13.970000    -30.211000      8.974000
H         -13.790000    -30.202000     10.045000
C         -13.466000    -29.159000      8.158000
H         -12.832000    -28.487000      8.729000
C         -17.840000    -27.531000      2.963000
C         -18.436000    -26.636000      5.146000
C         -18.631000    -22.259000      3.855000
C         -13.647000    -25.247000      1.128000
C         -15.410000    -21.524000      5.147000
C         -17.706000    -27.597000      4.387000
C         -13.644000    -22.532000      2.158000
C         -19.452000    -24.337000      2.688000
C         -15.220000    -25.090000      7.047000
C         -12.906000    -24.870000      2.307000
C         -13.883000    -26.734000      5.953000
C         -14.103000    -24.474000      6.483000
C         -12.811000    -23.577000      4.187000
C         -14.372000    -21.642000      2.974000
C         -16.414000    -27.003000      6.174000
C         -16.776000    -21.214000      3.093000
C         -13.945000    -27.535000      4.661000
C         -13.468000    -26.930000      3.398000
C         -16.671000    -21.340000      4.523000
C         -16.815000    -24.135000      0.305000
C         -18.026000    -22.662000      1.562000
C         -18.777000    -23.885000      1.569000
C         -19.335000    -25.652000      3.105000
C         -14.323000    -27.274000      2.339000
C         -15.190000    -26.433000      6.677000
C         -19.234000    -25.620000      4.512000
C         -12.881000    -23.508000      2.799000
C         -17.618000    -26.291000      6.215000
C         -14.130000    -23.105000      6.080000
C         -15.596000    -26.233000      0.508000
C         -19.356000    -23.475000      3.842000
C         -13.362000    -25.369000      5.745000
C         -17.948000    -26.144000      1.148000
C         -13.419000    -22.610000      4.948000
C         -16.415000    -24.389000      7.004000
C         -15.636000    -22.197000      1.130000
C         -14.415000    -22.938000      0.993000
C         -16.488000    -23.035000      6.661000
C         -14.380000    -26.443000      1.214000
C         -12.766000    -25.715000      3.394000
C         -15.651000    -24.858000      0.097000
C         -15.290000    -28.064000      4.218000
C         -18.431000    -24.029000      6.070000
C         -12.742000    -24.921000      4.555000
C         -15.336000    -22.387000      6.251000
C         -16.781000    -26.839000      1.099000
C         -17.827000    -21.952000      4.965000
C         -18.670000    -26.580000      2.306000
C         -17.953000    -21.872000      2.681000
C         -17.652000    -25.003000      6.716000
C         -17.700000    -22.797000      6.102000
C         -16.457000    -27.795000      4.994000
C         -15.443000    -27.980000      2.848000
C         -16.863000    -22.837000      0.758000
C         -19.292000    -24.285000      4.944000
C         -14.219000    -21.619000      4.361000
C         -14.436000    -24.251000      0.502000
C         -15.560000    -21.406000      2.287000
C         -16.666000    -27.724000      2.188000
C         -18.013000    -24.792000      0.783000
O          -7.345000    -29.030000     -4.883000
C          -7.043000    -30.478000     -4.535000
H          -6.571000    -30.486000     -3.545000
H          -6.444000    -30.891000     -5.355000
H          -7.945000    -31.094000     -4.434000
O          -8.652000    -28.799000     -3.064000
C          -8.093000    -28.314000     -4.026000
C          -8.040000    -26.802000     -4.351000
H          -8.513000    -26.688000     -5.334000
H          -6.979000    -26.526000     -4.383000
C          -8.773000    -26.022000     -3.237000
H          -9.850000    -26.177000     -3.377000
H          -8.444000    -26.374000     -2.252000
C          -8.443000    -24.522000     -3.494000
H          -7.375000    -24.338000     -3.327000
H          -8.381000    -24.250000     -4.554000
C          -9.388000    -23.657000     -2.766000
C          -8.964000    -23.428000     -1.252000
C          -9.851000    -23.890000     -0.293000
H         -10.839000    -24.230000     -0.588000
C          -9.507000    -23.955000      1.021000
H         -10.228000    -24.323000      1.746000
C          -8.238000    -23.435000      1.410000
H          -7.959000    -23.366000      2.457000
C          -7.284000    -22.914000      0.447000
H          -6.264000    -22.590000      0.631000
C          -7.731000    -22.882000     -0.890000
H          -7.113000    -22.317000     -1.584000
C         -14.673000    -22.207000     -2.445000
C         -13.470000    -20.167000     -1.679000
C         -14.327000    -17.567000     -5.317000
C         -12.897000    -23.633000     -7.029000
C         -11.136000    -18.146000     -6.768000
C         -13.565000    -21.550000     -1.810000
C         -12.148000    -21.280000     -8.376000
C         -15.812000    -19.094000     -4.080000
C          -9.878000    -19.939000     -3.480000
C         -11.527000    -23.227000     -7.071000
C          -9.765000    -22.283000     -3.397000
C          -9.348000    -20.331000     -4.685000
C         -10.121000    -21.512000     -7.111000
C         -12.061000    -19.852000     -8.299000
C         -11.389000    -21.043000     -1.931000
C         -13.567000    -18.197000     -7.391000
C         -10.725000    -23.407000     -3.401000
C         -11.213000    -23.947000     -4.773000
C         -12.489000    -17.625000     -6.651000
C         -15.712000    -21.466000     -6.715000
C         -15.592000    -19.248000     -6.584000
C         -16.144000    -19.693000     -5.330000
C         -15.490000    -19.898000     -2.980000
C         -12.634000    -24.211000     -4.691000
C         -10.211000    -21.083000     -2.688000
C         -14.445000    -19.294000     -2.272000
C         -11.204000    -22.076000     -7.788000
C         -12.076000    -19.877000     -1.824000
C          -9.606000    -19.524000     -5.813000
C         -14.760000    -23.544000     -5.657000
C         -14.890000    -17.991000     -4.074000
C          -9.358000    -21.698000     -4.765000
C         -15.917000    -21.899000     -4.331000
C          -9.929000    -20.123000     -7.050000
C         -10.594000    -18.793000     -3.341000
C         -14.227000    -20.420000     -8.219000
C         -13.483000    -21.632000     -8.352000
C         -10.817000    -17.995000     -4.417000
C         -13.482000    -24.061000     -5.813000
C         -10.699000    -23.392000     -5.977000
C         -15.008000    -22.706000     -6.762000
C         -12.034000    -23.258000     -2.705000
C         -12.672000    -17.878000     -3.140000
C          -9.787000    -22.280000     -5.970000
C         -10.364000    -18.330000     -5.675000
C         -15.198000    -23.076000     -4.418000
C         -12.956000    -17.246000     -5.387000
C         -15.536000    -21.308000     -3.102000
C         -14.691000    -18.158000     -6.574000
C         -11.687000    -18.758000     -2.564000
C         -12.071000    -17.406000     -4.290000
C         -12.283000    -22.112000     -1.943000
C         -13.089000    -23.797000     -3.413000
C         -15.303000    -20.327000     -7.393000
C         -14.035000    -18.170000     -2.987000
C         -10.954000    -19.251000     -7.592000
C         -13.859000    -22.786000     -7.632000
C         -13.360000    -19.300000     -8.254000
C         -14.366000    -23.270000     -3.313000
C         -16.209000    -21.074000     -5.445000
$end

--------------------------------------------------------------

             Standard Nuclear Orientation (Angstroms)
    I     Atom           X                Y                Z
 ----------------------------------------------------------------
    1      O       3.0088310900    -5.5491388743    -0.5942502969
    2      C       1.6120060471    -5.9692912870    -0.3360202649
    3      H       1.2171415328    -6.3825203044    -1.2725178862
    4      H       0.9852866025    -5.1071972654    -0.0745577710
    5      H       1.5935687923    -6.7122482305     0.4700293910
    6      O       3.9813748993    -7.5462919618    -0.0448259766
    7      C       4.0053506919    -6.4356044443    -0.5193872473
    8      C       5.2842508007    -5.7609048173    -0.9890987812
    9      H       4.9969480927    -5.4753826342    -2.0094904888
   10      H       6.0511724301    -6.5030068913    -1.2439825314
   11      C       5.9075912183    -4.5673536153    -0.1262017699
   12      H       5.0340695862    -4.1416740283     0.3832448391
   13      H       6.5559684872    -5.0565619086     0.6108912791
   14      C       6.5826463248    -3.5798206143    -1.1404089358
   15      H       7.5089967486    -3.9443356419    -1.6006009467
   16      H       5.9580678801    -3.4257821004    -2.0291985074
   17      C       7.0815139065    -2.2743481848    -0.4316876424
   18      C       8.4778644543    -2.4635951226     0.1572866731
   19      C       8.6710309281    -2.4637890521     1.6134778266
   20      H       7.8365617086    -2.5714765751     2.3016097319
   21      C       9.9491918413    -2.6900008797     2.1123033362
   22      H      10.1173650345    -2.6724308116     3.1844661363
   23      C      11.0890688533    -2.7295582716     1.2425811907
   24      H      12.0654123290    -2.9089959915     1.6818129315
   25      C      10.9418571433    -2.6481304538    -0.1486083086
   26      H      11.8110108317    -2.6846892463    -0.7988062175
   27      C       9.6419969802    -2.4840672847    -0.7054052491
   28      H       9.6705374574    -2.5235495439    -1.7903972271
   29      C       5.5323302184     1.4711740729     3.3241095989
   30      C       7.1443361899     2.6886420863     1.9672977534
   31      C       4.1040326445     5.3772742767    -0.1280891553
   32      C       1.8917373379    -0.6248809132     0.4055882311
   33      C       4.0838261940     3.4010712604    -3.0740259058
   34      C       6.7492394822     1.4584181778     2.5697508442
   35      C       1.5439030056     1.1160714502    -1.8922869059
   36      C       4.2477191741     4.6557318933     2.2828742974
   37      C       7.2798553186     1.2652936966    -1.8145386957
   38      C       2.5484186436    -0.8709815539    -0.8551477196
   39      C       6.7573690106    -0.8897791653    -0.9371505158
   40      C       6.2421966634     0.7044690982    -2.5588378862
   41      C       3.5501683911     0.0141081424    -2.7067382988
   42      C       2.0194981910     2.3069704676    -2.4783831011
   43      C       7.6926931865     0.9657893314     0.5491863370
   44      C       2.5204505871     4.4755854149    -1.4670884324
   45      C       6.0284519636    -1.4474989209     0.2762486818
   46      C       4.5547064831    -1.5750667397     0.2533639656
   47      C       3.7768251411     4.4498850408    -2.1689883333
   48      C       1.4642270204     2.4738005907     1.8771536783
   49      C       2.1727411078     4.4408963006     0.9580012120
   50      C       2.9178152940     4.2924905537     2.1756297233
   51      C       5.1716910834     3.8045819721     2.8647872827
   52      C       4.0140068513    -1.2077350037     1.4957621723
   53      C       7.5636716843     0.3922962096    -0.7663151230
   54      C       6.3377900489     3.8757416439     2.0735708118
   55      C       2.3469622784    -0.0184768867    -2.0085705064
   56      C       7.7022750504     2.3520612653     0.7399723773
   57      C       5.2835698115     1.5186358672    -3.2337201212
   58      C       2.2877012891     0.2576639385     2.4597362623
   59      C       4.8223892725     5.2107203643     1.0804941266
   60      C       5.8324894030    -0.4924371377    -2.0163386480
   61      C       3.3757441652     2.2282576254     3.3990701863
   62      C       3.9141759824     1.1518455552    -3.3827013546
   63      C       7.2202294777     2.6299376989    -1.5790254135
   64      C       1.0026403028     2.7958276310    -0.4701311973
   65      C       0.9197484289     1.3695709648    -0.6028408774
   66      C       6.3311467412     3.4769263851    -2.2486790949
   67      C       2.6878308911    -0.7637347279     1.5553950292
   68      C       3.8279092100    -1.3925506708    -0.9330164996
   69      C       1.3264076755     1.0968277516     1.8007296742
   70      C       6.2201510993    -0.7480021741     1.6025483247
   71      C       6.7541009650     4.3525912689    -0.2073837375
   72      C       4.4571283307    -0.8213199739    -2.0540480733
   73      C       5.4023097586     2.9222748953    -3.1116574171
   74      C       3.3607332116     0.8807610253     3.2220318176
   75      C       4.7177618056     5.0325242754    -1.3435104623
   76      C       4.7434068025     2.6419542398     3.5025014278
   77      C       2.7557032838     4.9670923351    -0.1666599968
   78      C       7.5565927742     3.2070922277    -0.3365032275
   79      C       6.0432974958     4.5258904596    -1.4394287119
   80      C       7.0509747861     0.4089960468     1.6892265700
   81      C       5.0460417729    -0.7042806691     2.3284413744
   82      C       1.2763425760     3.3414649452     0.8263563603
   83      C       6.1176223462     4.7717843689     1.0148703738
   84      C       3.1597141294     2.3297496986    -3.2828057017
   85      C       1.0988837835     0.5437280418     0.5158123268
   86      C       1.6169676609     3.3238129889    -1.6164031367
   87      C       4.6662178073     0.3548489292     3.1833350808
   88      C       2.4667450939     3.0656615146     2.7373833912
   89      O      -3.0992202314    -8.4567103718     2.3832646135
   90      C      -2.2197540538    -9.5410422617     2.9830775801
   91      H      -1.4843086057    -9.8260039062     2.2209326765
   92      H      -2.8829911960   -10.3411009915     3.3320654337
   93      H      -1.6318066736    -9.1932166389     3.8413294163
   94      O      -1.3230347871    -7.1147751787     2.0445225210
   95      C      -2.5047627048    -7.3517489357     1.9013004304
   96      C      -3.4810509864    -6.5066977822     1.0484653120
   97      H      -4.2582581965    -6.1559870848     1.7383674495
   98      H      -3.8951086737    -7.1798613919     0.2879865246
   99      C      -2.6990831267    -5.3507360421     0.3859219387
  100      H      -2.4832461753    -4.6076089609     1.1635661708
  101      H      -1.7768649811    -5.7319625065    -0.0685558658
  102      C      -3.6799839252    -4.7252888923    -0.6492584737
  103      H      -3.8836019192    -5.4411947891    -1.4544835724
  104      H      -4.7266513484    -4.7082797694    -0.3242569430
  105      C      -3.2149512667    -3.3864682884    -1.0524185127
  106      C      -2.1260469020    -3.4407920440    -2.2081646847
  107      C      -0.8764204382    -2.9312048202    -1.8940809978
  108      H      -0.7315490378    -2.3850547885    -0.9669880034
  109      C       0.1940031667    -3.1194185823    -2.7113483261
  110      H       1.1596346037    -2.7057218957    -2.4333177892
  111      C      -0.0211447395    -3.7694229613    -3.9616633607
  112      H       0.7758594082    -3.8499810840    -4.6945383687
  113      C      -1.3174408903    -4.2964846971    -4.3499264365
  114      H      -1.5580606257    -4.8879764660    -5.2282610141
  115      C      -2.3672254050    -4.0491261592    -3.4415387294
  116      H      -3.3701149741    -4.2591011506    -3.8061042449
  117      C      -2.2933183469     1.6954403598     0.8081091685
  118      C      -2.8575682031     2.0548859192    -1.5893866062
  119      C      -6.9407209943     3.9687870920    -0.9614227661
  120      C      -6.0129752332    -1.0000856530     3.0662057479
  121      C      -8.7086020970     0.9627944160    -1.6409280558
  122      C      -2.3200393577     1.2786380043    -0.5659722643
  123      C      -8.4174102445    -0.2898009797     1.7909775490
  124      C      -4.8231172442     4.3303581664     0.2436264924
  125      C      -5.3896902416    -0.8108136072    -2.8440472003
  126      C      -6.5706757448    -1.8392596770     2.0521756217
  127      C      -4.2848792745    -2.3142656983    -1.4182076101
  128      C      -6.3752851306    -1.5796378116    -2.2747484584
  129      C      -7.7283674951    -1.9125553313     0.1616628452
  130      C      -9.0196125768     0.5150158534     0.7700445364
  131      C      -3.1899281690    -0.1429457342    -2.0589756569
  132      C      -8.6197945819     2.7927982105     0.0747905509
  133      C      -3.5425257025    -2.2386447231    -0.1422042237
  134      C      -4.3531365485    -2.3091961132     1.1806943203
  135      C      -8.5106597387     2.3579258105    -1.2801425034
  136      C      -6.0311642930     2.5661906358     3.0734576272
  137      C      -6.9530175922     3.8292593962     1.4904450558
  138      C      -5.5409497636     4.1122600418     1.4555153825
  139      C      -3.5959382269     3.6911962106     0.0300763722
  140      C      -3.8128976647    -1.3398769836     2.1103304714
  141      C      -4.1108963221    -1.1679283635    -2.3110892635
  142      C      -3.5205750285     3.2987984053    -1.3109863969
  143      C      -7.7859148909    -1.4629951900     1.4822301387
  144      C      -3.4569013964     1.1167678399    -2.4888837950
  145      C      -7.6435953074    -0.9917974594    -2.0849327165
  146      C      -4.4183530324     0.6528693083     3.3594529689
  147      C      -5.5448757932     4.2721835579    -0.9983112322
  148      C      -5.8222674847    -2.4085169326    -1.3354296169
  149      C      -3.7419334927     2.6881271638     2.2625791985
  150      C      -8.3525090204    -1.2157858398    -0.8846954262
  151      C      -5.6130371614     0.4626513512    -3.2608159049
  152      C      -8.1596919928     1.8878677105     2.3180737247
  153      C      -7.9082187517     0.5528194932     2.7591819501
  154      C      -6.8413495413     1.0222602361    -3.1111643325
  155      C      -4.6330264831    -0.6842709311     3.0579893895
  156      C      -5.7628116256    -2.4907930369     1.1397585867
  157      C      -5.6834625947     1.2537707470     3.5117298764
  158      C      -2.6908812362    -1.0498185954     0.1432640603
  159      C      -5.3427756267     2.6770083471    -2.7925298838
  160      C      -6.4853233440    -2.5355197648    -0.1029454555
  161      C      -7.8791802583     0.3438505515    -2.5089470107
  162      C      -3.4607340485     1.3983468326     2.6715444412
  163      C      -7.4841628482     3.0746413660    -1.9062806243
  164      C      -3.0505538677     2.8607264153     1.0390242499
  165      C      -7.6602828547     3.7801505841     0.2667763208
  166      C      -4.6936299808     1.4193661211    -3.0633563260
  167      C      -6.6900490803     2.3814227790    -2.8555252262
  168      C      -2.4956132849    -0.0868102311    -0.8519476345
  169      C      -2.7932159796    -0.6100936603     1.4474801397
  170      C      -7.2287618784     2.8709267371     2.4432339112
  171      C      -4.7433270181     3.5901876430    -1.9132080205
  172      C      -8.9590367971     0.0717585187    -0.6034009521
  173      C      -6.6759807145     0.2168564187     3.3593571181
  174      C      -8.9107147470     1.8795948104     1.1167368103
  175      C      -2.6312980075     0.7270905841     1.7702476517
  176      C      -4.9980161547     3.3150370032     2.4526460275
 ----------------------------------------------------------------

    9   -5804.2971958586      7.62E-06 Convergence criterion met
 Total energy in the final basis set = -5804.2971958586

                    Orbital Energies (a.u.)
 --------------------------------------------------------------

 Alpha MOs
 -- Occupied --
-19.193 -19.188 -19.135 -19.125 -10.315 -10.307 -10.254 -10.246
-10.244 -10.241 -10.240 -10.240 -10.238 -10.237 -10.234 -10.233
-10.228 -10.226 -10.226 -10.226 -10.225 -10.223 -10.222 -10.221
-10.221 -10.221 -10.221 -10.221 -10.221 -10.220 -10.220 -10.220
-10.220 -10.220 -10.220 -10.219 -10.219 -10.219 -10.219 -10.219
-10.219 -10.219 -10.219 -10.219 -10.219 -10.219 -10.219 -10.219
-10.218 -10.218 -10.218 -10.218 -10.218 -10.218 -10.217 -10.217
-10.217 -10.217 -10.217 -10.217 -10.217 -10.217 -10.217 -10.217
-10.217 -10.216 -10.216 -10.216 -10.216 -10.216 -10.216 -10.216
-10.216 -10.216 -10.216 -10.215 -10.215 -10.215 -10.215 -10.215
-10.215 -10.215 -10.215 -10.215 -10.215 -10.215 -10.214 -10.214
-10.214 -10.214 -10.214 -10.214 -10.214 -10.214 -10.214 -10.214
-10.213 -10.213 -10.213 -10.213 -10.213 -10.213 -10.213 -10.212
-10.212 -10.212 -10.211 -10.211 -10.211 -10.211 -10.211 -10.211
-10.211 -10.211 -10.210 -10.210 -10.210 -10.210 -10.210 -10.210
-10.210 -10.210 -10.209 -10.209 -10.208 -10.208 -10.208 -10.208
-10.207 -10.207 -10.207 -10.206 -10.206 -10.206 -10.206 -10.205
-10.204 -10.204 -10.203 -10.202 -10.202 -10.202 -10.199 -10.197
-10.196 -10.194 -10.193 -10.190  -1.091  -1.089  -1.006  -1.005
 -0.983  -0.980  -0.965  -0.963  -0.962  -0.960  -0.959  -0.958
 -0.934  -0.931  -0.927  -0.925  -0.924  -0.922  -0.921  -0.920
 -0.920  -0.919  -0.896  -0.894  -0.889  -0.885  -0.885  -0.884
 -0.875  -0.873  -0.854  -0.846  -0.840  -0.840  -0.839  -0.838
 -0.837  -0.833  -0.820  -0.819  -0.805  -0.799  -0.796  -0.795
 -0.795  -0.795  -0.793  -0.791  -0.790  -0.789  -0.783  -0.780
 -0.771  -0.770  -0.768  -0.767  -0.764  -0.763  -0.760  -0.759
 -0.756  -0.753  -0.740  -0.737  -0.733  -0.732  -0.715  -0.715
 -0.713  -0.712  -0.712  -0.712  -0.711  -0.709  -0.707  -0.707
 -0.706  -0.706  -0.705  -0.705  -0.704  -0.697  -0.672  -0.671
 -0.658  -0.656  -0.655  -0.655  -0.649  -0.646  -0.630  -0.629
 -0.628  -0.627  -0.626  -0.623  -0.623  -0.622  -0.618  -0.616
 -0.616  -0.614  -0.613  -0.612  -0.610  -0.609  -0.607  -0.606
 -0.605  -0.604  -0.602  -0.600  -0.570  -0.566  -0.563  -0.561
 -0.558  -0.557  -0.557  -0.556  -0.555  -0.555  -0.554  -0.552
 -0.537  -0.534  -0.532  -0.532  -0.528  -0.527  -0.526  -0.524
 -0.522  -0.521  -0.517  -0.517  -0.516  -0.515  -0.513  -0.513
 -0.509  -0.504  -0.497  -0.493  -0.491  -0.490  -0.487  -0.483
 -0.482  -0.481  -0.480  -0.479  -0.477  -0.475  -0.474  -0.473
 -0.472  -0.470  -0.469  -0.469  -0.467  -0.466  -0.465  -0.465
 -0.465  -0.464  -0.463  -0.462  -0.461  -0.459  -0.456  -0.456
 -0.455  -0.454  -0.453  -0.452  -0.451  -0.447  -0.445  -0.444
 -0.443  -0.441  -0.440  -0.438  -0.437  -0.436  -0.435  -0.432
 -0.431  -0.429  -0.428  -0.428  -0.427  -0.426  -0.424  -0.423
 -0.422  -0.421  -0.420  -0.420  -0.420  -0.419  -0.418  -0.417
 -0.417  -0.415  -0.415  -0.415  -0.414  -0.413  -0.412  -0.411
 -0.411  -0.409  -0.406  -0.405  -0.400  -0.398  -0.397  -0.396
 -0.393  -0.392  -0.392  -0.390  -0.389  -0.385  -0.385  -0.382
 -0.377  -0.377  -0.372  -0.371  -0.368  -0.367  -0.366  -0.365
 -0.364  -0.364  -0.363  -0.361  -0.360  -0.359  -0.358  -0.357
 -0.357  -0.356  -0.354  -0.354  -0.353  -0.352  -0.351  -0.351
 -0.350  -0.348  -0.348  -0.348  -0.347  -0.345  -0.345  -0.344
 -0.343  -0.342  -0.341  -0.340  -0.338  -0.337  -0.335  -0.334
 -0.331  -0.331  -0.331  -0.330  -0.329  -0.326  -0.325  -0.321
 -0.315  -0.308  -0.302  -0.294  -0.287  -0.285  -0.271  -0.271
 -0.270  -0.269  -0.268  -0.267  -0.265  -0.265  -0.263  -0.261
 -0.261  -0.260  -0.260  -0.259  -0.258  -0.257  -0.255  -0.253
 -0.248  -0.247  -0.241  -0.240  -0.222  -0.221  -0.214  -0.212
 -0.209  -0.208  -0.206  -0.206  -0.201  -0.199

          Ground-State Mulliken Net Atomic Charges

     Atom                 Charge (a.u.)
  ----------------------------------------
      1 O                    -0.460703
      2 C                    -0.102379
      3 H                     0.128218
      4 H                     0.135708
      5 H                     0.155635
      6 O                    -0.467000
      7 C                     0.565681
      8 C                    -0.244683
      9 H                     0.111954
     10 H                     0.119370
     11 C                    -0.187325
     12 H                     0.130003
     13 H                     0.126250
     14 C                    -0.194304
     15 H                     0.113593
     16 H                     0.115672
     17 C                     0.012971
     18 C                     0.049587
     19 C                    -0.093457
     20 H                     0.105082
     21 C                    -0.099657
     22 H                     0.094315
     23 C                    -0.079583
     24 H                     0.090005
     25 C                    -0.085683
     26 H                     0.095353
     27 C                    -0.101655
     28 H                     0.094726
     29 C                    -0.024498
     30 C                    -0.004922
     31 C                    -0.003606
     32 C                    -0.022080
     33 C                    -0.003884
     34 C                    -0.010311
     35 C                    -0.035766
     36 C                    -0.012399
     37 C                    -0.000719
     38 C                    -0.026688
     39 C                    -0.088610
     40 C                     0.006351
     41 C                     0.020953
     42 C                     0.049956
     43 C                     0.018886
     44 C                    -0.040916
     45 C                    -0.070937
     46 C                     0.030807
     47 C                     0.018372
     48 C                     0.031466
     49 C                     0.010759
     50 C                     0.003822
     51 C                     0.027429
     52 C                     0.029486
     53 C                     0.018795
     54 C                     0.001586
     55 C                    -0.009200
     56 C                    -0.005291
     57 C                    -0.012443
     58 C                    -0.037044
     59 C                    -0.003605
     60 C                     0.050114
     61 C                     0.009220
     62 C                    -0.015046
     63 C                     0.004663
     64 C                    -0.011438
     65 C                     0.013721
     66 C                     0.045893
     67 C                     0.005128
     68 C                    -0.003577
     69 C                    -0.007295
     70 C                     0.010828
     71 C                    -0.020653
     72 C                    -0.007509
     73 C                    -0.020703
     74 C                     0.022771
     75 C                     0.008711
     76 C                    -0.017345
     77 C                     0.010794
     78 C                    -0.010651
     79 C                    -0.020742
     80 C                     0.023510
     81 C                    -0.016348
     82 C                     0.000244
     83 C                     0.006279
     84 C                    -0.005919
     85 C                     0.006136
     86 C                    -0.015230
     87 C                    -0.002592
     88 C                    -0.018824
     89 O                    -0.477247
     90 C                    -0.094689
     91 H                     0.140002
     92 H                     0.131991
     93 H                     0.140944
     94 O                    -0.482002
     95 C                     0.595190
     96 C                    -0.272024
     97 H                     0.140859
     98 H                     0.132252
     99 C                    -0.166428
    100 H                     0.117034
    101 H                     0.127740
    102 C                    -0.204978
    103 H                     0.105577
    104 H                     0.105358
    105 C                     0.021662
    106 C                     0.102511
    107 C                    -0.109313
    108 H                     0.096439
    109 C                    -0.079946
    110 H                     0.099066
    111 C                    -0.111711
    112 H                     0.088191
    113 C                    -0.087979
    114 H                     0.100666
    115 C                    -0.120935
    116 H                     0.091387
    117 C                    -0.051606
    118 C                    -0.012689
    119 C                     0.010088
    120 C                    -0.018101
    121 C                     0.007489
    122 C                     0.001163
    123 C                     0.017177
    124 C                    -0.014489
    125 C                    -0.009977
    126 C                    -0.003601
    127 C                    -0.102334
    128 C                     0.022769
    129 C                    -0.006397
    130 C                     0.002296
    131 C                     0.013103
    132 C                     0.015488
    133 C                    -0.070686
    134 C                     0.008271
    135 C                    -0.014913
    136 C                    -0.012825
    137 C                    -0.014335
    138 C                     0.012843
    139 C                     0.018351
    140 C                    -0.008208
    141 C                     0.048286
    142 C                    -0.014823
    143 C                     0.026653
    144 C                    -0.016123
    145 C                    -0.017198
    146 C                    -0.007733
    147 C                    -0.026209
    148 C                     0.020146
    149 C                     0.021849
    150 C                    -0.033336
    151 C                     0.027837
    152 C                    -0.009023
    153 C                     0.002301
    154 C                     0.000451
    155 C                     0.005218
    156 C                    -0.006829
    157 C                     0.000810
    158 C                     0.027955
    159 C                     0.006709
    160 C                    -0.010506
    161 C                     0.021764
    162 C                     0.004221
    163 C                     0.000253
    164 C                     0.003516
    165 C                    -0.016158
    166 C                    -0.011149
    167 C                    -0.017508
    168 C                     0.015452
    169 C                     0.015238
    170 C                     0.045063
    171 C                     0.024146
    172 C                    -0.016362
    173 C                    -0.013614
    174 C                    -0.024720
    175 C                     0.017811
    176 C                    -0.020465
  ----------------------------------------
  Sum of atomic charges =     0.000000

                    Cartesian Multipole Moments
 -----------------------------------------------------------------
    Charge (ESU x 10^10)
                 0.0000
    Dipole Moment (Debye)
         X       1.4004      Y      -3.4997      Z      -1.3165
       Tot       3.9928
    Quadrupole Moments (Debye-Ang)
        XX    -785.1875     XY      13.6008     YY    -802.1470
        XZ      -3.6305     YZ       5.8299     ZZ    -797.7242

 Total job time:  844.69s(wall), 8099.63s(cpu)
        *  Thank you very much for using Q-Chem.  Have a nice day.  *
