 Q-Chem 4.4, Q-Chem, Inc., Pleasanton, CA (2016)
 Q-Chem 4.4.2 for Intel X86 Linux

User input:
--------------------------------------------------------------
$comment
SP
$end

$rem
MEM_STATIC 5000
MEM_TOTAL 20000
JOBTYPE SP
EXCHANGE B3LYP
BASIS 6-31g(d,p)
$end

$molecule
0 1
O          12.194000     -5.794000      8.267000
C          10.910000     -5.407000      7.669000
H          11.060000     -4.479000      7.106000
H          10.132000     -5.230000      8.422000
H          10.543000     -6.231000      7.045000
O          11.493000     -7.866000      9.026000
C          12.351000     -7.070000      8.842000
C          13.735000     -7.287000      9.269000
H          13.668000     -8.210000      9.858000
H          14.065000     -6.495000      9.953000
C          14.792000     -7.355000      8.205000
H          14.696000     -8.228000      7.548000
H          14.627000     -6.518000      7.515000
C          16.102000     -7.409000      8.965000
H          16.096000     -6.742000      9.837000
H          16.129000     -8.418000      9.396000
C          17.300000     -7.208000      7.937000
C          17.666000     -8.472000      7.220000
C          18.462000     -9.518000      7.807000
H          18.801000     -9.491000      8.839000
C          18.818000    -10.636000      6.994000
H          19.443000    -11.399000      7.450000
C          18.551000    -10.643000      5.595000
H          18.924000    -11.383000      4.892000
C          17.674000     -9.603000      5.044000
H          17.515000     -9.617000      3.970000
C          17.249000     -8.563000      5.894000
H          16.782000     -7.697000      5.435000
C          22.323000     -4.952000      7.680000
C          21.512000     -4.619000      5.415000
C          21.011000     -0.149000      5.830000
C          19.130000     -3.147000     11.118000
C          17.590000     -0.354000      6.389000
C          21.523000     -5.404000      6.565000
C          17.918000     -0.880000      9.950000
C          22.812000     -1.609000      6.616000
C          17.527000     -4.270000      5.506000
C          17.786000     -3.252000     10.566000
C          17.435000     -5.847000      7.261000
C          16.646000     -3.745000      6.405000
C          16.438000     -2.515000      8.882000
C          17.809000     -0.093000      8.826000
C          19.480000     -5.633000      5.705000
C          19.580000      0.765000      7.344000
C          18.395000     -6.274000      8.366000
C          18.341000     -5.422000      9.677000
C          18.833000      0.321000      6.215000
C          21.906000     -1.305000      9.981000
C          21.858000      0.115000      8.130000
C          22.756000     -0.968000      7.833000
C          23.001000     -2.975000      6.432000
C          19.706000     -5.242000     10.141000
C          18.125000     -5.467000      5.930000
C          22.243000     -3.430000      5.352000
C          17.252000     -2.100000      9.998000
C          20.209000     -4.747000      4.894000
C          16.464000     -2.332000      6.524000
C          21.332000     -3.583000     10.769000
C          21.942000     -1.210000      5.596000
C          16.565000     -4.583000      7.511000
C          22.887000     -3.152000      8.918000
C          16.397000     -1.691000      7.733000
C          18.177000     -3.406000      4.667000
C          19.938000      0.141000      9.729000
C          19.191000     -0.765000     10.434000
C          18.060000     -1.999000      4.754000
C          20.111000     -4.180000     10.925000
C          17.404000     -4.403000      9.814000
C          21.198000     -2.130000     10.877000
C          19.897000     -6.328000      8.106000
C          20.246000     -2.442000      4.340000
C          16.554000     -3.954000      8.780000
C          17.175000     -1.482000      5.716000
C          22.184000     -4.045000      9.731000
C          19.706000     -0.249000      5.286000
C          23.000000     -3.726000      7.653000
C          20.972000      0.496000      7.077000
C          19.555000     -3.597000      4.419000
C          19.319000     -1.354000      4.548000
C          20.382000     -6.102000      6.733000
C          20.582000     -5.794000      9.167000
C          21.307000     -0.125000      9.389000
C          21.582000     -2.318000      4.820000
C          17.122000     -0.541000      7.687000
C          19.753000     -1.899000     11.102000
C          19.075000      0.524000      8.644000
C          21.795000     -5.171000      8.934000
C          22.799000     -1.794000      9.009000
O          20.152000      8.682000     -1.185000
C          20.461000     10.071000     -0.668000
H          21.319000     10.531000     -1.174000
H          20.662000     10.194000      0.403000
H          19.558000     10.676000     -0.820000
O          22.127000      7.964000     -0.141000
C          21.126000      7.762000     -0.795000
C          20.832000      6.454000     -1.452000
H          21.733000      6.101000     -1.966000
H          20.128000      6.604000     -2.279000
C          20.255000      5.382000     -0.538000
H          20.953000      5.381000      0.309000
H          19.304000      5.751000     -0.133000
C          20.099000      4.028000     -1.244000
H          19.323000      4.265000     -1.981000
H          20.909000      3.670000     -1.893000
C          19.700000      2.868000     -0.320000
C          20.347000      2.936000      1.045000
C          21.664000      2.375000      1.214000
H          22.292000      2.174000      0.353000
C          22.160000      2.250000      2.524000
H          23.170000      1.875000      2.659000
C          21.428000      2.675000      3.651000
H          21.973000      2.692000      4.589000
C          20.099000      3.102000      3.502000
H          19.507000      3.352000      4.378000
C          19.584000      3.304000      2.211000
H          18.539000      3.581000      2.106000
C          19.488000     -2.535000      0.381000
C          17.681000     -1.727000      1.805000
C          14.296000     -3.214000     -1.059000
C          19.059000     -0.724000     -4.421000
C          13.868000     -0.117000     -2.483000
C          18.965000     -1.559000      1.218000
C          16.360000     -0.392000     -5.032000
C          16.420000     -4.206000     -0.355000
C          16.201000      1.671000      0.293000
C          18.470000      0.567000     -4.420000
C          18.400000      2.152000     -0.508000
C          16.146000      2.172000     -1.001000
C          16.649000      1.570000     -3.720000
C          15.057000     -0.579000     -4.543000
C          18.004000      0.476000      1.277000
C          14.163000     -2.367000     -3.175000
C          19.637000      1.439000     -0.924000
C          19.775000      1.019000     -2.420000
C          13.570000     -1.480000     -2.265000
C          17.847000     -3.924000     -3.570000
C          15.758000     -4.135000     -2.768000
C          16.621000     -4.498000     -1.727000
C          17.443000     -3.771000      0.489000
C          20.338000     -0.272000     -2.450000
C          17.542000      1.572000      0.607000
C          16.912000     -2.893000      1.415000
C          17.147000      0.678000     -4.689000
C          17.077000     -0.468000      1.839000
C          15.108000      1.696000     -1.866000
C          19.759000     -2.484000     -3.222000
C          15.269000     -3.529000     -0.004000
C          17.386000      2.406000     -1.570000
C          18.965000     -3.923000     -1.432000
C          15.350000      1.444000     -3.233000
C          15.288000      0.692000      0.763000
C          16.049000     -2.638000     -4.653000
C          16.942000     -1.663000     -5.112000
C          14.244000      0.291000     -0.126000
C          20.026000     -1.156000     -3.536000
C          18.819000      1.439000     -3.380000
C          18.705000     -2.953000     -4.060000
C          19.897000      0.148000     -0.234000
C          14.967000     -1.469000      1.089000
C          17.660000      2.059000     -2.924000
C          14.205000      0.767000     -1.418000
C          19.863000     -2.992000     -1.893000
C          13.688000     -1.966000     -0.938000
C          18.704000     -3.621000     -0.080000
C          14.645000     -3.374000     -2.391000
C          15.738000     -0.348000      1.516000
C          14.044000     -1.114000      0.148000
C          19.141000     -0.235000      0.918000
C          20.352000     -0.797000     -1.163000
C          16.481000     -3.796000     -3.918000
C          15.584000     -2.719000      1.075000
C          14.541000      0.356000     -3.629000
C          18.298000     -1.827000     -4.754000
C          14.859000     -1.982000     -4.306000
C          20.136000     -2.152000     -0.820000
C          17.920000     -4.380000     -2.224000
$end

--------------------------------------------------------------

             Standard Nuclear Orientation (Angstroms)
    I     Atom           X                Y                Z
 ----------------------------------------------------------------
    1      O       6.0971114968    -4.4482072014     4.5970691745
    2      C       5.3381615286    -5.1489274622     5.6406280190
    3      H       4.3932648238    -4.6156487039     5.7937194401
    4      H       5.8726374034    -5.1825778870     6.5981379083
    5      H       5.1953410398    -6.1936928517     5.3387860258
    6      O       7.7619249163    -6.0445413689     4.3951298172
    7      C       7.2375497752    -5.0475426748     4.0281688991
    8      C       7.7673646076    -4.2332836361     2.9321978861
    9      H       8.7353856625    -4.7046848553     2.7223047521
   10      H       7.9767147568    -3.2096773421     3.2674927860
   11      C       6.9196867489    -4.0799850822     1.7026000651
   12      H       6.7828968446    -5.0151447427     1.1460401568
   13      H       5.8984454595    -3.8440679938     2.0271048511
   14      C       7.6537004330    -3.0630508000     0.8519035403
   15      H       8.0756094535    -2.2513139680     1.4588508972
   16      H       8.5313617686    -3.6025983516     0.4735253967
   17      C       6.7082403509    -2.6213392379    -0.3495061021
   18      C       6.7319179066    -3.5911645591    -1.4917053928
   19      C       7.7919090656    -3.6499407672    -2.4639528408
   20      H       8.6846289254    -3.0338488153    -2.3994861145
   21      C       7.6592417056    -4.5582653639    -3.5571018693
   22      H       8.4581914559    -4.5645879906    -4.2935591463
   23      C       6.4414935885    -5.2603817212    -3.7865820303
   24      H       6.2160765991    -5.8456570162    -4.6740379503
   25      C       5.4126309857    -5.2390181338    -2.7400088882
   26      H       4.4838029181    -5.7574884397    -2.9577701400
   27      C       5.6136704075    -4.4122811170    -1.6171491214
   28      H       4.7666439326    -4.2415927145    -0.9597773696
   29      C       5.5481204762     1.8124280835    -3.4125018932
   30      C       3.3905609944     0.7020987801    -3.3079030376
   31      C       1.5005532856     3.7712220665    -0.5853161953
   32      C       7.5044099205     2.5809837588     1.1542663059
   33      C       1.9586897798     1.8533039257     2.2729084211
   34      C       4.7783494147     0.5921234699    -3.3360940215
   35      C       5.3165299063     3.0469145048     2.8772133693
   36      C       2.9770670828     4.0771587724    -2.5138666195
   37      C       3.1459347703    -1.3282962017     0.1312772758
   38      C       7.0285486472     1.5110664733     2.0208100443
   39      C       5.4488790342    -1.8306270684    -0.0084704162
   40      C       3.6293048822    -1.1161488333     1.3887882416
   41      C       5.1523021712     0.6029633500     2.9434025214
   42      C       3.9465833661     3.1114516219     2.9942921360
   43      C       4.0715196603    -1.0920142338    -2.0593944118
   44      C       2.3016713971     4.1804771422     1.5041988332
   45      C       6.6546091200    -1.1503844626    -0.6475627081
   46      C       7.3624865246    -0.0640545033     0.2278445111
   47      C       1.5177723973     2.9912702492     1.5369909608
   48      C       5.7048191610     5.0719171154    -0.5628921351
   49      C       3.3918587808     5.3433375323    -0.4164331414
   50      C       3.7087750223     4.9748856158    -1.7696919049
   51      C       3.5064795004     3.1379639277    -3.3931666455
   52      C       7.7255195738     1.0376558682    -0.6470053403
   53      C       4.1327354198    -1.6733442566    -0.8053951952
   54      C       2.7700812448     1.9534746425    -3.3412846392
   55      C       5.9419265294     1.8053067497     2.8378529031
   56      C       2.9545519791    -0.3484490411    -2.4761101463
   57      C       3.0204251311    -0.1644266840     2.2647702044
   58      C       7.5022920755     3.4131627474    -0.9595394197
   59      C       1.8622722712     3.4620972620    -1.9347009554
   60      C       5.0019997924    -1.3345607607     1.3955641851
   61      C       5.7428875629     3.9081036946    -2.5995138767
   62      C       3.7447947365     0.7238095329     3.0153540423
   63      C       2.0127440396    -0.6572271276    -0.2408276366
   64      C       4.6913682710     4.8657957326     1.6637365427
   65      C       5.7258680585     4.0563925089     2.0517399073
   66      C       1.3815876431     0.3155714295     0.5692412312
   67      C       7.8895269924     2.3368356082    -0.2091028743
   68      C       6.9375193008     0.1739445749     1.5308634279
   69      C       6.8657263684     4.4171439795    -0.1065243049
   70      C       6.5127083066    -0.4170349560    -1.9774434021
   71      C       1.3260871689     1.1082626391    -1.5555649585
   72      C       5.7864023690    -0.3991315770     2.1137618182
   73      C       1.9233447415     0.5440745335     1.8460511535
   74      C       6.8660536964     3.1754100325    -2.2067227950
   75      C       1.0305840886     2.7306433684     0.2544968357
   76      C       4.9383234390     3.0728571935    -3.3725014918
   77      C       2.2568756638     4.6933115587     0.1564940422
   78      C       1.9449516726    -0.0893373285    -1.5330251335
   79      C       0.9285343686     1.4289648615    -0.2044769319
   80      C       5.2293696157    -0.5053635589    -2.6962409134
   81      C       7.1905010120     0.7742229700    -1.9373983993
   82      C       4.5810113628     5.3391335262     0.3130738587
   83      C       1.7298308381     2.1592385044    -2.4291282247
   84      C       3.1582698197     1.9503701828     2.9731818460
   85      C       6.8911358925     3.8300447709     1.2524016958
   86      C       3.5285433420     4.2181685332     2.2088055248
   87      C       6.7233265161     1.8346820378    -2.6930183803
   88      C       5.1407317103     4.8642297036    -1.8356942748
   89      O      -9.0118386090     6.8754120596     2.2054342667
   90      C      -9.2457670385     8.2494310294     2.7965690742
   91      H      -9.8812614670     8.8811920079     2.1634617394
   92      H      -8.3723545763     8.8691609094     3.0324854720
   93      H      -9.7130867125     8.0989024628     3.7781450890
   94      O      -7.6756941986     7.9134935400     0.5796452414
   95      C      -8.1786154357     6.9339300042     1.0876280251
   96      C      -8.1057550748     5.5723678138     0.4795254271
   97      H      -8.3408754411     5.6441000431    -0.5882661727
   98      H      -8.9229828812     4.9503020154     0.8632152170
   99      C      -6.8011031011     4.8238910440     0.7144184932
  100      H      -6.0411357363     5.5568670388     0.4147356683
  101      H      -6.6702107047     4.6923327017     1.7961516318
  102      C      -6.7425434160     3.4906050483    -0.0438738098
  103      H      -7.5279602139     2.9238412709     0.4693642190
  104      H      -7.0954589083     3.4535851647    -1.0828854476
  105      C      -5.3786541253     2.7864405308     0.0064782999
  106      C      -4.2065489208     3.7398425029    -0.0539540504
  107      C      -3.7309603079     4.1690013665    -1.3452360263
  108      H      -4.3525837944     4.0564784888    -2.2267284216
  109      C      -2.5158217111     4.8752172777    -1.3946149409
  110      H      -2.1739835002     5.2459567163    -2.3562016017
  111      C      -1.7795701954     5.1906900530    -0.2348784908
  112      H      -0.9555287062     5.8829035686    -0.3725522823
  113      C      -2.1714260131     4.6663945491     1.0070290109
  114      H      -1.5599184370     4.8407181873     1.8879431688
  115      C      -3.4092495187     4.0116130529     1.1154917293
  116      H      -3.6775226370     3.5620144200     2.0671584794
  117      C      -2.0835602761    -0.9324360889    -2.2387538066
  118      C      -1.3215522580    -0.8523889404     0.0761598494
  119      C      -3.1859447701    -4.9930552709     1.1945573192
  120      C      -7.1608484574    -1.7457372633    -2.5262462815
  121      C      -5.9802746567    -3.5766795394     2.6045109612
  122      C      -1.8655105650    -0.2134860170    -1.0716038087
  123      C      -7.9566083140    -3.3130337978    -0.3632636593
  124      C      -2.0018611851    -4.1962322855    -0.7939283342
  125      C      -4.3816751019     0.1340848980     2.4605812774
  126      C      -7.8262574988    -1.1635346142    -1.4163481406
  127      C      -5.2328286242     1.4457710084     0.6540430881
  128      C      -5.7540683853    -0.0405670842     2.3401845964
  129      C      -7.7889116246    -1.2325237303     0.7758871997
  130      C      -7.4887280383    -4.0145408576     0.7596231972
  131      C      -2.8658958455     0.7075651181     0.7225871224
  132      C      -5.4455943180    -5.2838149994     1.0462444702
  133      C      -5.1908752045     1.4930236937    -0.8317567282
  134      C      -6.2713469975     0.6930418916    -1.6230024681
  135      C      -5.1225525165    -4.6409606457     2.2499472053
  136      C      -4.8726463299    -4.4107222665    -2.8346793480
  137      C      -4.1512378176    -5.4648507681    -0.9853473442
  138      C      -3.0364877254    -4.8199537893    -1.5345823747
  139      C      -1.4498835866    -2.9635079642    -1.1457826768
  140      C      -5.6320197195     0.0844976673    -2.7209480763
  141      C      -4.0101875603     0.9640432284     1.4214257664
  142      C      -1.1061758583    -2.2848725681     0.0081843923
  143      C      -8.1640983208    -1.9570122092    -0.3717104593
  144      C      -1.9429839489    -0.2890221936     1.1930723626
  145      C      -6.3043302725    -1.3194885880     2.6775518186
  146      C      -5.2183010012    -2.1342605422    -3.5754174029
  147      C      -2.0789056539    -4.2444636455     0.5837758742
  148      C      -6.3170247458     0.6269834491     1.2661392428
  149      C      -2.9802104501    -2.9321482767    -3.0659246665
  150      C      -7.3530523158    -1.8888199492     1.9246900270
  151      C      -3.5204264027    -0.9150600009     2.8734440383
  152      C      -6.5193608486    -4.9545152343    -1.0876505840
  153      C      -7.3698389558    -3.9155928413    -1.4827230464
  154      C      -4.1291172459    -2.1530831383     3.2447285235
  155      C      -6.1428350057    -1.1502334614    -3.2431575968
  156      C      -7.3478946594     0.0662856451    -0.9446531929
  157      C      -5.7492788685    -3.4070086597    -3.2130698710
  158      C      -3.9395280668     0.9873496561    -1.4552991155
  159      C      -2.1718556657    -2.5220441230     2.1819261436
  160      C      -7.3058876086     0.0132841910     0.4449666305
  161      C      -5.4867045721    -2.3355577137     3.0997434170
  162      C      -3.8102767083    -1.9225889907    -3.4871918682
  163      C      -3.7267134998    -4.4061825521     2.3369051616
  164      C      -1.9701370894    -2.3438795582    -2.2779394377
  165      C      -4.2462647134    -5.4208062582     0.4107360954
  166      C      -2.3326677629    -1.1062740147     2.2380106317
  167      C      -3.1982820533    -3.1687899908     2.8077085766
  168      C      -2.7793359612     0.7202268270    -0.6628796103
  169      C      -4.2552465685     0.2154369022    -2.5811603539
  170      C      -5.2889782297    -5.2476210225    -1.7718001350
  171      C      -1.5371122781    -3.0636675439     1.0651764395
  172      C      -7.1832911524    -3.2910401826     1.9254414000
  173      C      -6.9272595876    -3.1063979542    -2.5518924144
  174      C      -6.5908501781    -5.0419877837     0.3102345432
  175      C      -3.2902213156    -0.7470481435    -2.9588888254
  176      C      -3.4770129087    -4.1732576322    -2.6904611068
 ----------------------------------------------------------------

    9   -5804.2484136393      8.59E-06 Convergence criterion met
 Total energy in the final basis set = -5804.2484136393

                    Orbital Energies (a.u.)
 --------------------------------------------------------------

 Alpha MOs
 -- Occupied --
-19.201 -19.182 -19.144 -19.139 -10.318 -10.311 -10.248 -10.247
-10.244 -10.242 -10.242 -10.238 -10.236 -10.234 -10.234 -10.233
-10.233 -10.232 -10.229 -10.228 -10.228 -10.226 -10.226 -10.226
-10.225 -10.225 -10.225 -10.223 -10.222 -10.222 -10.221 -10.221
-10.221 -10.220 -10.220 -10.220 -10.220 -10.220 -10.219 -10.219
-10.219 -10.219 -10.219 -10.218 -10.218 -10.218 -10.218 -10.218
-10.218 -10.217 -10.217 -10.217 -10.217 -10.217 -10.216 -10.216
-10.216 -10.216 -10.216 -10.216 -10.216 -10.216 -10.216 -10.216
-10.215 -10.215 -10.215 -10.215 -10.215 -10.215 -10.215 -10.215
-10.215 -10.215 -10.215 -10.215 -10.214 -10.214 -10.214 -10.214
-10.214 -10.214 -10.214 -10.213 -10.213 -10.213 -10.213 -10.212
-10.212 -10.212 -10.212 -10.212 -10.212 -10.212 -10.212 -10.212
-10.212 -10.211 -10.211 -10.211 -10.211 -10.211 -10.210 -10.210
-10.210 -10.210 -10.210 -10.210 -10.210 -10.210 -10.209 -10.209
-10.209 -10.209 -10.209 -10.209 -10.209 -10.209 -10.209 -10.209
-10.209 -10.209 -10.209 -10.209 -10.209 -10.208 -10.208 -10.208
-10.207 -10.207 -10.207 -10.207 -10.207 -10.206 -10.206 -10.206
-10.205 -10.205 -10.202 -10.202 -10.200 -10.199 -10.198 -10.198
-10.197 -10.196 -10.193 -10.193  -1.086  -1.083  -1.013  -1.011
 -0.985  -0.982  -0.968  -0.966  -0.965  -0.963  -0.960  -0.957
 -0.936  -0.931  -0.930  -0.928  -0.926  -0.925  -0.923  -0.922
 -0.921  -0.919  -0.901  -0.895  -0.892  -0.891  -0.886  -0.882
 -0.874  -0.873  -0.846  -0.846  -0.842  -0.842  -0.840  -0.839
 -0.839  -0.835  -0.825  -0.821  -0.815  -0.809  -0.800  -0.798
 -0.797  -0.796  -0.795  -0.793  -0.793  -0.788  -0.785  -0.784
 -0.772  -0.771  -0.770  -0.769  -0.767  -0.764  -0.760  -0.760
 -0.749  -0.747  -0.738  -0.738  -0.732  -0.731  -0.718  -0.716
 -0.715  -0.714  -0.713  -0.713  -0.712  -0.711  -0.711  -0.710
 -0.708  -0.707  -0.703  -0.703  -0.701  -0.697  -0.673  -0.670
 -0.661  -0.659  -0.658  -0.657  -0.648  -0.646  -0.635  -0.632
 -0.627  -0.626  -0.624  -0.623  -0.623  -0.619  -0.619  -0.619
 -0.617  -0.615  -0.614  -0.613  -0.611  -0.609  -0.609  -0.608
 -0.606  -0.605  -0.604  -0.601  -0.569  -0.564  -0.563  -0.563
 -0.560  -0.559  -0.559  -0.558  -0.558  -0.556  -0.554  -0.553
 -0.537  -0.536  -0.535  -0.531  -0.529  -0.527  -0.525  -0.524
 -0.523  -0.523  -0.521  -0.518  -0.517  -0.515  -0.514  -0.513
 -0.510  -0.506  -0.502  -0.501  -0.491  -0.490  -0.487  -0.486
 -0.484  -0.483  -0.482  -0.481  -0.479  -0.477  -0.476  -0.476
 -0.470  -0.470  -0.469  -0.469  -0.468  -0.467  -0.467  -0.466
 -0.465  -0.464  -0.464  -0.463  -0.461  -0.461  -0.460  -0.459
 -0.455  -0.453  -0.452  -0.450  -0.449  -0.446  -0.446  -0.444
 -0.443  -0.442  -0.441  -0.440  -0.437  -0.436  -0.432  -0.432
 -0.431  -0.429  -0.429  -0.428  -0.428  -0.427  -0.426  -0.424
 -0.424  -0.423  -0.422  -0.421  -0.421  -0.419  -0.419  -0.419
 -0.418  -0.417  -0.417  -0.417  -0.415  -0.414  -0.413  -0.412
 -0.412  -0.411  -0.410  -0.408  -0.404  -0.402  -0.400  -0.395
 -0.394  -0.394  -0.392  -0.391  -0.391  -0.389  -0.386  -0.385
 -0.383  -0.379  -0.375  -0.373  -0.369  -0.369  -0.367  -0.366
 -0.365  -0.364  -0.363  -0.362  -0.362  -0.360  -0.360  -0.359
 -0.359  -0.357  -0.355  -0.355  -0.354  -0.353  -0.351  -0.351
 -0.351  -0.350  -0.348  -0.348  -0.346  -0.345  -0.342  -0.342
 -0.341  -0.341  -0.340  -0.338  -0.336  -0.336  -0.335  -0.334
 -0.333  -0.331  -0.330  -0.330  -0.328  -0.327  -0.326  -0.325
 -0.316  -0.306  -0.304  -0.296  -0.289  -0.287  -0.275  -0.274
 -0.272  -0.271  -0.270  -0.269  -0.269  -0.266  -0.265  -0.264
 -0.263  -0.262  -0.260  -0.259  -0.258  -0.256  -0.256  -0.253
 -0.250  -0.245  -0.244  -0.241  -0.223  -0.221  -0.213  -0.212
 -0.211  -0.208  -0.207  -0.205  -0.203  -0.196

          Ground-State Mulliken Net Atomic Charges

     Atom                 Charge (a.u.)
  ----------------------------------------
      1 O                    -0.497887
      2 C                    -0.083674
      3 H                     0.126599
      4 H                     0.125429
      5 H                     0.128134
      6 O                    -0.442571
      7 C                     0.589295
      8 C                    -0.250186
      9 H                     0.128934
     10 H                     0.128951
     11 C                    -0.182294
     12 H                     0.116739
     13 H                     0.124259
     14 C                    -0.196265
     15 H                     0.110994
     16 H                     0.119514
     17 C                     0.002749
     18 C                     0.093630
     19 C                    -0.109101
     20 H                     0.096770
     21 C                    -0.092772
     22 H                     0.093333
     23 C                    -0.086672
     24 H                     0.096200
     25 C                    -0.101070
     26 H                     0.098420
     27 C                    -0.106829
     28 H                     0.095847
     29 C                    -0.005733
     30 C                     0.009113
     31 C                     0.014964
     32 C                    -0.012677
     33 C                     0.008607
     34 C                     0.015413
     35 C                     0.022153
     36 C                     0.026828
     37 C                     0.018755
     38 C                    -0.022648
     39 C                    -0.087319
     40 C                     0.029083
     41 C                    -0.022810
     42 C                    -0.008075
     43 C                     0.000470
     44 C                    -0.005999
     45 C                    -0.096122
     46 C                     0.020855
     47 C                    -0.025453
     48 C                     0.026775
     49 C                    -0.010168
     50 C                     0.001396
     51 C                    -0.019077
     52 C                     0.011465
     53 C                     0.031305
     54 C                     0.000856
     55 C                     0.006564
     56 C                    -0.016396
     57 C                     0.015744
     58 C                    -0.018551
     59 C                    -0.013212
     60 C                     0.012135
     61 C                     0.033715
     62 C                    -0.013632
     63 C                     0.001729
     64 C                    -0.016757
     65 C                     0.031860
     66 C                    -0.024121
     67 C                     0.012978
     68 C                     0.002243
     69 C                    -0.034018
     70 C                     0.014710
     71 C                     0.017028
     72 C                     0.002473
     73 C                    -0.025470
     74 C                    -0.001975
     75 C                     0.014491
     76 C                    -0.016983
     77 C                    -0.015721
     78 C                     0.003675
     79 C                     0.006793
     80 C                    -0.008631
     81 C                     0.031199
     82 C                     0.003006
     83 C                    -0.007743
     84 C                     0.022033
     85 C                    -0.012382
     86 C                    -0.020598
     87 C                    -0.008753
     88 C                    -0.022318
     89 O                    -0.476996
     90 C                    -0.105903
     91 H                     0.134566
     92 H                     0.137966
     93 H                     0.123037
     94 O                    -0.462587
     95 C                     0.606045
     96 C                    -0.246184
     97 H                     0.128912
     98 H                     0.117914
     99 C                    -0.197565
    100 H                     0.133481
    101 H                     0.111695
    102 C                    -0.183759
    103 H                     0.111723
    104 H                     0.111073
    105 C                     0.019095
    106 C                     0.053419
    107 C                    -0.096339
    108 H                     0.095875
    109 C                    -0.090160
    110 H                     0.089728
    111 C                    -0.079094
    112 H                     0.095591
    113 C                    -0.090604
    114 H                     0.096068
    115 C                    -0.105361
    116 H                     0.092355
    117 C                    -0.016898
    118 C                    -0.026068
    119 C                    -0.017722
    120 C                     0.030832
    121 C                     0.007588
    122 C                     0.006706
    123 C                     0.014704
    124 C                    -0.012354
    125 C                     0.004646
    126 C                    -0.004030
    127 C                    -0.094661
    128 C                    -0.001122
    129 C                    -0.010882
    130 C                    -0.014812
    131 C                     0.021574
    132 C                     0.024019
    133 C                    -0.093024
    134 C                     0.022664
    135 C                    -0.024594
    136 C                    -0.015224
    137 C                    -0.005247
    138 C                     0.008114
    139 C                     0.010762
    140 C                    -0.004459
    141 C                     0.013642
    142 C                    -0.001776
    143 C                     0.015574
    144 C                    -0.006701
    145 C                    -0.015960
    146 C                    -0.004305
    147 C                    -0.018557
    148 C                     0.037053
    149 C                     0.008659
    150 C                    -0.010430
    151 C                    -0.005827
    152 C                     0.015866
    153 C                    -0.025210
    154 C                    -0.039913
    155 C                    -0.046082
    156 C                    -0.027986
    157 C                     0.012731
    158 C                     0.032371
    159 C                     0.003697
    160 C                     0.029370
    161 C                     0.029732
    162 C                     0.013999
    163 C                    -0.007618
    164 C                    -0.009114
    165 C                     0.029507
    166 C                     0.015146
    167 C                     0.016224
    168 C                     0.037262
    169 C                     0.021633
    170 C                    -0.021959
    171 C                     0.001173
    172 C                    -0.012598
    173 C                     0.006169
    174 C                    -0.011260
    175 C                    -0.014625
    176 C                     0.002065
  ----------------------------------------
  Sum of atomic charges =     0.000000

                    Cartesian Multipole Moments
 -----------------------------------------------------------------
    Charge (ESU x 10^10)
                 0.0000
    Dipole Moment (Debye)
         X      -0.9540      Y       0.8911      Z      -0.1872
       Tot       1.3188
    Quadrupole Moments (Debye-Ang)
        XX    -795.6810     XY     -11.1991     YY    -822.1489
        XZ     -25.4593     YZ      19.8815     ZZ    -796.6249

 Total job time:  867.05s(wall), 8273.41s(cpu)
        *  Thank you very much for using Q-Chem.  Have a nice day.  *
