 Q-Chem 4.4, Q-Chem, Inc., Pleasanton, CA (2016)
 Q-Chem 4.4.2 for Intel X86 Linux

User input:
--------------------------------------------------------------
$comment
SP
$end

$rem
MEM_STATIC 5000
MEM_TOTAL 20000
JOBTYPE SP
EXCHANGE B3LYP
BASIS 6-31g(d,p)
$end

$molecule
0 1
O         -10.541000      6.292000     -2.164000
C         -11.230000      7.408000     -2.822000
H         -10.561000      8.094000     -3.355000
H         -11.643000      7.909000     -1.938000
H         -12.115000      7.107000     -3.397000
O         -12.585000      5.502000     -1.370000
C         -11.341000      5.422000     -1.367000
C         -10.561000      4.371000     -0.684000
H          -9.806000      5.035000     -0.244000
H         -10.166000      3.751000     -1.498000
C         -11.348000      3.570000      0.412000
H         -11.258000      4.111000      1.362000
H         -12.400000      3.584000      0.101000
C         -10.783000      2.145000      0.645000
H         -10.671000      1.615000     -0.310000
H          -9.748000      2.274000      0.984000
C         -11.516000      1.301000      1.793000
C         -12.654000      0.629000      1.145000
C         -12.306000     -0.502000      0.386000
H         -11.269000     -0.806000      0.273000
C         -13.244000     -1.344000     -0.159000
H         -12.924000     -2.238000     -0.686000
C         -14.597000     -1.111000      0.104000
H         -15.420000     -1.695000     -0.298000
C         -14.913000      0.081000      0.726000
H         -15.956000      0.339000      0.882000
C         -13.967000      0.978000      1.344000
H         -14.258000      1.761000      2.037000
C         -13.766000      1.222000      6.768000
C         -13.220000     -1.051000      6.400000
C          -9.790000     -1.292000      9.340000
C          -9.630000      4.108000      6.076000
C          -7.298000     -0.889000      6.833000
C         -13.652000      0.160000      5.870000
C          -7.358000      2.748000      6.753000
C         -11.912000     -0.233000      9.564000
C         -10.045000     -1.444000      3.888000
C          -8.846000      3.618000      5.068000
C         -10.829000      0.529000      2.918000
C          -8.920000     -0.629000      3.681000
C          -7.641000      1.735000      4.616000
C          -6.924000      1.509000      7.280000
C         -12.381000     -0.846000      4.255000
C          -7.913000      0.042000      9.019000
C         -11.521000      1.779000      3.226000
C         -10.831000      2.985000      3.819000
C          -7.883000     -1.062000      8.134000
C         -10.556000      3.088000      9.306000
C          -9.845000      1.032000     10.104000
C         -11.243000      0.962000      9.929000
C         -12.927000     -0.146000      8.649000
C         -11.663000      3.547000      4.878000
C         -11.223000     -0.770000      3.444000
C         -12.881000     -1.191000      7.734000
C          -7.737000      2.886000      5.457000
C         -12.366000     -1.620000      5.418000
C          -7.885000     -0.674000      4.608000
C         -11.568000      4.055000      7.266000
C         -11.188000     -1.401000      9.267000
C          -9.342000      0.586000      3.220000
C         -12.675000      2.274000      8.519000
C          -7.114000      0.483000      5.060000
C         -10.067000     -2.315000      4.992000
C          -8.271000      2.450000      8.863000
C          -8.180000      3.323000      7.760000
C          -9.038000     -2.361000      5.925000
C         -11.047000      4.125000      6.021000
C          -9.442000      2.916000      3.991000
C         -10.482000      3.979000      8.184000
C         -12.691000      1.637000      4.156000
C         -10.972000     -2.529000      7.147000
C          -8.722000      1.777000      3.730000
C          -7.946000     -1.548000      5.761000
C         -12.626000      3.117000      7.420000
C          -8.991000     -1.930000      8.359000
C         -13.366000      1.070000      8.118000
C          -9.112000     -0.133000      9.785000
C         -11.230000     -2.404000      5.761000
C          -9.578000     -2.571000      7.251000
C         -13.113000      0.307000      4.596000
C         -12.814000      2.723000      5.100000
C          -9.428000      2.306000      9.715000
C         -11.741000     -1.958000      8.123000
C          -6.798000      0.383000      6.436000
C          -9.339000      4.045000      7.399000
C          -7.578000      1.327000      8.540000
C         -13.335000      2.490000      6.391000
C         -11.651000      2.237000      9.467000
O           2.069000     -9.333000      2.566000
C           2.845000     -9.184000      1.383000
H           3.479000     -8.289000      1.385000
H           2.149000     -9.103000      0.539000
H           3.446000    -10.085000      1.209000
O           1.168000    -11.294000      1.809000
C           1.257000    -10.452000      2.657000
C           0.493000    -10.455000      3.945000
H          -0.196000    -11.302000      4.049000
H          -0.121000     -9.549000      3.865000
C           1.333000    -10.307000      5.215000
H           1.996000    -11.177000      5.297000
H           2.088000     -9.512000      5.188000
C           0.443000    -10.064000      6.492000
H          -0.321000    -10.845000      6.591000
H           1.020000    -10.047000      7.425000
C          -0.194000     -8.600000      6.544000
C           0.781000     -7.519000      6.192000
C           1.679000     -7.150000      7.134000
H           1.707000     -7.629000      8.108000
C           2.593000     -6.099000      6.894000
H           3.197000     -5.604000      7.649000
C           2.626000     -5.484000      5.617000
H           3.257000     -4.607000      5.510000
C           1.773000     -5.969000      4.617000
H           1.774000     -5.512000      3.632000
C           0.800000     -6.922000      4.916000
H           0.132000     -7.295000      4.144000
C          -3.392000     -5.421000      9.618000
C          -3.782000     -4.539000      7.378000
C          -8.003000     -6.215000      7.089000
C          -4.182000    -10.442000      9.842000
C          -7.004000     -8.971000      5.240000
C          -2.955000     -5.127000      8.297000
C          -6.221000    -11.073000      8.083000
C          -6.882000     -5.076000      9.000000
C          -3.424000     -7.457000      4.782000
C          -3.821000    -11.015000      8.644000
C          -1.697000     -8.449000      6.124000
C          -3.613000     -8.851000      4.819000
C          -4.439000    -10.924000      6.458000
C          -7.091000    -10.533000      7.115000
C          -2.356000     -5.924000      6.341000
C          -8.353000     -8.430000      7.240000
C          -1.331000     -8.452000      7.550000
C          -1.867000     -9.576000      8.484000
C          -7.843000     -8.092000      5.959000
C          -6.593000     -8.082000     10.788000
C          -8.024000     -7.194000      9.283000
C          -7.258000     -6.163000      9.816000
C          -5.559000     -4.626000      9.064000
C          -2.317000     -8.927000      9.642000
C          -2.358000     -7.142000      5.590000
C          -5.097000     -4.290000      7.787000
C          -4.858000    -11.308000      7.755000
C          -3.434000     -4.987000      6.113000
C          -4.893000     -9.383000      4.648000
C          -4.264000     -8.479000     11.087000
C          -7.233000     -5.147000      7.615000
C          -2.644000     -9.422000      5.646000
C          -5.074000     -6.219000     10.884000
C          -5.306000    -10.470000      5.471000
C          -4.477000     -6.536000      4.577000
C          -7.542000     -9.545000      9.113000
C          -6.482000    -10.442000      9.297000
C          -5.778000     -7.068000      4.385000
C          -3.386000     -9.359000     10.408000
C          -2.752000    -10.550000      7.911000
C          -5.559000     -8.986000     10.997000
C          -1.595000     -7.194000      8.278000
C          -5.882000     -5.105000      5.639000
C          -3.151000    -10.446000      6.531000
C          -5.955000     -8.479000      4.489000
C          -4.012000     -7.087000     11.017000
C          -7.739000     -6.726000      5.840000
C          -4.685000     -5.177000     10.026000
C          -8.345000     -7.281000      7.931000
C          -4.533000     -5.307000      5.227000
C          -6.666000     -6.180000      5.095000
C          -2.019000     -5.979000      7.718000
C          -2.148000     -7.530000      9.498000
C          -7.659000     -8.399000      9.880000
C          -6.138000     -4.659000      6.923000
C          -6.617000    -10.193000      5.826000
C          -5.470000    -10.146000     10.219000
C          -7.918000     -9.616000      7.814000
C          -2.936000     -6.606000     10.243000
C          -6.410000     -6.720000     10.748000
$end

--------------------------------------------------------------

             Standard Nuclear Orientation (Angstroms)
    I     Atom           X                Y                Z
 ----------------------------------------------------------------
    1      O      10.9853836271    -7.1871505666     0.6167716152
    2      C      12.3847341944    -7.6286855576     0.6143547028
    3      H      12.5844881330    -8.4834564048     1.2714020092
    4      H      12.8566427122    -6.7287188407     1.0271358304
    5      H      12.8194221496    -7.7226604622    -0.3889728104
    6      O      11.5195141305    -5.4956288544    -0.8951579145
    7      C      10.6789929571    -6.0157452708    -0.1355869366
    8      C       9.2671047340    -5.5995852791    -0.0221298667
    9      H       9.2137900305    -5.6189812315     1.0739095210
   10      H       8.7033235916    -6.4133903150    -0.4942455169
   11      C       8.9486694563    -4.1758370981    -0.5998201738
   12      H       9.1232938705    -3.4379590827     0.1928483247
   13      H       9.6767480610    -4.0044192459    -1.4024025467
   14      C       7.4730010861    -4.0195455107    -1.0493919711
   15      H       7.1810703897    -4.8499879270    -1.7056014359
   16      H       6.8584941056    -4.1777654188    -0.1548895218
   17      C       7.0784483306    -2.5667503113    -1.5982482653
   18      C       7.4047066881    -2.5678718260    -3.0335483128
   19      C       6.4735068392    -3.2440981137    -3.8409706615
   20      H       5.6150003212    -3.7491492922    -3.4068694455
   21      C       6.5265319903    -3.2162483227    -5.2129202679
   22      H       5.7486307446    -3.7048588130    -5.7921390872
   23      C       7.5011823026    -2.4321777706    -5.8369051540
   24      H       7.6504904828    -2.3603596911    -6.9104684874
   25      C       8.4841782372    -1.9002270340    -5.0255165872
   26      H       9.3035800438    -1.3480380221    -5.4754243272
   27      C       8.4540502696    -1.8736360954    -3.5833535494
   28      H       9.0986718168    -1.2343186719    -2.9885802372
   29      C       7.4951019513     2.8535726984    -1.0826280261
   30      C       5.5026164453     2.5943719273    -2.3327822041
   31      C       2.6196394781     3.7823377253     0.9449856446
   32      C       7.2166000303     0.0759480197     3.1743185116
   33      C       1.8334335780     0.4199452383     1.8015596615
   34      C       6.7887902812     2.1442885362    -2.0548850919
   35      C       4.6372637086    -0.1118029235     4.0584490011
   36      C       4.7082639897     4.7509718185     0.3334820524
   37      C       3.6872689960    -0.9590233112    -1.5434065540
   38      C       6.5438217421    -1.0953776402     2.9594102206
   39      C       5.8529586643    -1.7530896019    -1.1862903455
   40      C       3.6377336948    -1.7353257627    -0.3739623451
   41      C       4.4492091264    -1.7643529292     2.3535323016
   42      C       3.3292188262     0.3384840305     3.7627020742
   43      C       5.5344237724     0.2907483864    -2.5309686714
   44      C       2.5129178554     2.5123367502     2.8895766089
   45      C       7.1743247995    -1.3481822163    -0.7106123599
   46      C       7.5430313324    -1.2754331122     0.7525855285
   47      C       1.8250272893     1.8563028910     1.8410695060
   48      C       6.4192380127     3.4951690812     3.2369056139
   49      C       4.2687700512     4.1779608920     2.7089435984
   50      C       5.1245818718     4.6304925746     1.6829171835
   51      C       5.5816961749     4.3571303970    -0.6447940602
   52      C       8.2907813331    -0.0475785590     1.0031691125
   53      C       5.0185066102    -0.9405922565    -2.0597036687
   54      C       4.9340397273     3.6595477693    -1.6573579364
   55      C       5.2222608615    -1.1256069120     3.3712221071
   56      C       4.7213411152     1.4268129040    -2.5421044094
   57      C       2.7812901170    -1.3449523987     0.6491173365
   58      C       8.1675299200     1.9773300186     2.3648545907
   59      C       3.4268135485     4.3312116523    -0.0643812026
   60      C       4.9077228041    -2.1285848632    -0.0588354784
   61      C       7.2788135787     3.8095346141     1.0155478854
   62      C       3.0886315955    -1.4263671078     2.0761095792
   63      C       2.8350617946     0.1531575769    -1.6648048981
   64      C       4.5880378298     2.2047123872     4.1346502385
   65      C       5.3983376225     1.0635671684     4.3026408207
   66      C       1.9804954811     0.5515982900    -0.6438213458
   67      C       8.1276151852     0.6322148690     2.2406046475
   68      C       6.5882741010    -1.7082112292     1.6825359198
   69      C       7.2573700859     2.3419336420     3.3976029988
   70      C       7.6255093191     0.0034432560    -1.1833756325
   71      C       2.8359233205     2.4952221257    -1.5112506496
   72      C       5.3245132266    -2.0979674073     1.3153294735
   73      C       1.9420566487    -0.1718670498     0.5204163267
   74      C       8.0919848454     2.6939835990     1.1386308805
   75      C       1.8204419830     2.6484790935     0.6561016418
   76      C       6.8762258222     3.9084873648    -0.3686592709
   77      C       2.9880772979     3.7342845554     2.3098792177
   78      C       3.3521573704     1.3508551878    -2.1647884963
   79      C       1.9112149059     1.9959379779    -0.5885125027
   80      C       6.8012851300     0.7552550624    -2.1299576384
   81      C       8.3469850069     0.7544781735    -0.1828355860
   82      C       5.0441975528     3.4813418590     3.6372324073
   83      C       3.5665795198     3.6207011780    -1.2477806868
   84      C       2.5568444654    -0.3191484367     2.7793174166
   85      C       6.7384089840     1.1415914069     3.8633152420
   86      C       3.3649290707     1.7690038530     3.7348127256
   87      C       8.2549675732     2.1624728255    -0.1441722720
   88      C       6.4313740511     4.2223185011     2.0451617498
   89      O      -9.6225495763    -6.2810256183     0.7496311728
   90      C      -9.7741090909    -7.6906603938     0.8672131154
   91      H      -9.4946965291    -8.0803599557     1.8536450045
   92      H      -9.1184087605    -8.1570684111     0.1216706028
   93      H     -10.7995947234    -7.9834578671     0.6104508572
   94      O     -10.3994077885    -6.3089228508    -1.4012021687
   95      C      -9.9773277803    -5.7019686886    -0.4580987217
   96      C      -9.7425433452    -4.2231786523    -0.4315412787
   97      H      -9.9710716221    -3.7216020586    -1.3797721299
   98      H      -8.6574777649    -4.1524077650    -0.2837029617
   99      C     -10.3951611235    -3.4685205373     0.7281936759
  100      H     -11.4840710200    -3.5633286974     0.6361086615
  101      H     -10.2617673489    -3.9226576681     1.7175088771
  102      C      -9.8932783139    -1.9783958903     0.8257650963
  103      H     -10.0239504260    -1.4579423167    -0.1310582295
  104      H     -10.4169823570    -1.3945344128     1.5929331681
  105      C      -8.3964640127    -1.8543918231     1.3697677976
  106      C      -8.1235949256    -2.7314606730     2.5527228660
  107      C      -8.5838412733    -2.3242554126     3.7578312326
  108      H      -9.1464570451    -1.4020460356     3.8668924921
  109      C      -8.3164576935    -3.0710905489     4.9275920203
  110      H      -8.4620990756    -2.7217141254     5.9457230053
  111      C      -7.6323390675    -4.3083449986     4.8216385774
  112      H      -7.3442137688    -4.7917375542     5.7501074511
  113      C      -7.2771555270    -4.7711670617     3.5478747098
  114      H      -6.7472883556    -5.7127010497     3.4391110662
  115      C      -7.4445082479    -3.9594125130     2.4265421902
  116      H      -7.1632900832    -4.3128337023     1.4379336697
  117      C      -4.5646568320     1.8386927984     2.5785277856
  118      C      -3.2328630298    -0.1132191574     1.9752127888
  119      C      -1.8017492954     1.6627045634    -1.9627240336
  120      C      -7.9098597085     3.0485577146    -1.0588561094
  121      C      -4.1655877166    -0.0494051470    -3.8317575427
  122      C      -4.3682362658     0.4317669254     2.5120105018
  123      C      -6.7796229403     2.4357389595    -3.5076886927
  124      C      -2.0010401358     2.7371256471     0.2759777098
  125      C      -5.1774785654    -2.1961884263    -0.7195624232
  126      C      -8.3447429873     1.8999724857    -1.6797284842
  127      C      -7.2617227592    -1.6052553405     0.3169129640
  128      C      -6.1204986751    -1.8958019010    -1.7199658459
  129      C      -7.4785802143     0.1997830878    -2.9158187163
  130      C      -5.6444246516     1.8718289670    -4.1232001595
  131      C      -4.9794803504    -1.4661781904     1.5932444780
  132      C      -3.2863301493     2.2436959915    -3.5470202965
  133      C      -7.7608421686    -0.4877690141     1.1351703353
  134      C      -8.4504868593     0.7267629615     0.4479074447
  135      C      -3.1098688179     0.8353221483    -3.5215346873
  136      C      -4.7914635637     4.6123421153    -0.7307999669
  137      C      -2.9407727159     3.7627367581    -1.7077565282
  138      C      -2.7408080280     3.7726719270    -0.3316310194
  139      C      -2.5015824088     2.1668073277     1.4511880942
  140      C      -7.8948447358     1.8676224054     1.0431944005
  141      C      -5.7586963085    -1.9735345472     0.5056135581
  142      C      -2.2973094893     0.7828592008     1.4457884326
  143      C      -7.7498572673     1.5895736562    -2.9050050027
  144      C      -3.5524743836    -1.3327932281     1.3985667373
  145      C      -5.6888538263    -1.4285645343    -2.9633631949
  146      C      -6.6071316884     3.9337434710     0.6527115586
  147      C      -1.5749887519     1.6597260434    -0.5631631081
  148      C      -7.3147239219    -1.4961802849    -1.1174215538
  149      C      -4.3519439412     3.7977436898     1.4896950020
  150      C      -6.4067522147    -0.3708968052    -3.5921937593
  151      C      -3.7825548881    -2.0508375277    -0.8988277315
  152      C      -4.9893081692     3.7183061166    -2.9686900771
  153      C      -6.3665230835     3.5479840009    -2.7780740847
  154      C      -3.3338124939    -1.5933565686    -2.1644621320
  155      C      -7.6955472342     3.0681622850     0.3835539655
  156      C      -8.5252685216     0.7245063747    -0.9854915265
  157      C      -6.1623732728     4.4764414138    -0.5513826631
  158      C      -6.7803877849     0.1077667167     2.0659175592
  159      C      -2.0189886011    -0.6906952058    -0.4635383844
  160      C      -7.9377005733    -0.3512261762    -1.7417853748
  161      C      -4.3097807976    -1.2359841448    -3.1405957401
  162      C      -5.6989067774     3.5771232927     1.6793651319
  163      C      -2.1193879294     0.5018672940    -2.6278409648
  164      C      -3.6464823029     2.7251111995     2.0598111459
  165      C      -2.5518125044     2.7040932392    -2.5241497262
  166      C      -2.9397289954    -1.6103152153     0.1168797101
  167      C      -2.2388955369    -0.6968593190    -1.8840382765
  168      C      -5.4905723826    -0.3730851354     2.3393379759
  169      C      -6.9169500062     1.4798139990     1.9888330935
  170      C      -4.1929979525     4.3006116050    -1.9980694730
  171      C      -1.7620983210     0.5066674400     0.1794531229
  172      C      -5.4423933500     0.4714788866    -4.1231270641
  173      C      -6.9496664687     3.8981866305    -1.5536779436
  174      C      -4.5637270290     2.7284634561    -3.7890011160
  175      C      -5.8640230353     2.3598862088     2.3716681747
  176      C      -3.8683278333     4.3161244478     0.2439864285
 ----------------------------------------------------------------

    9   -5804.2604909764      9.62E-06 Convergence criterion met
 Total energy in the final basis set = -5804.2604909764

                    Orbital Energies (a.u.)
 --------------------------------------------------------------

 Alpha MOs
 -- Occupied --
-19.190 -19.186 -19.140 -19.139 -10.321 -10.317 -10.242 -10.242
-10.242 -10.240 -10.239 -10.237 -10.236 -10.234 -10.234 -10.230
-10.230 -10.229 -10.228 -10.228 -10.227 -10.226 -10.225 -10.225
-10.224 -10.222 -10.222 -10.222 -10.221 -10.221 -10.221 -10.221
-10.221 -10.220 -10.220 -10.220 -10.220 -10.220 -10.220 -10.219
-10.219 -10.218 -10.218 -10.217 -10.217 -10.217 -10.217 -10.217
-10.217 -10.217 -10.217 -10.216 -10.216 -10.216 -10.216 -10.216
-10.216 -10.216 -10.216 -10.216 -10.216 -10.216 -10.215 -10.215
-10.215 -10.215 -10.215 -10.215 -10.215 -10.215 -10.215 -10.215
-10.215 -10.215 -10.214 -10.214 -10.214 -10.214 -10.214 -10.214
-10.214 -10.214 -10.214 -10.214 -10.214 -10.213 -10.213 -10.213
-10.213 -10.213 -10.213 -10.212 -10.212 -10.212 -10.212 -10.212
-10.212 -10.212 -10.212 -10.212 -10.212 -10.211 -10.211 -10.211
-10.211 -10.211 -10.211 -10.211 -10.210 -10.210 -10.210 -10.210
-10.210 -10.210 -10.210 -10.210 -10.209 -10.209 -10.209 -10.209
-10.209 -10.209 -10.208 -10.208 -10.208 -10.208 -10.207 -10.207
-10.207 -10.206 -10.206 -10.206 -10.205 -10.204 -10.203 -10.202
-10.201 -10.201 -10.201 -10.200 -10.199 -10.198 -10.198 -10.195
-10.194 -10.193 -10.192 -10.190  -1.096  -1.069  -1.020  -0.994
 -0.985  -0.982  -0.966  -0.966  -0.964  -0.964  -0.961  -0.957
 -0.935  -0.935  -0.929  -0.928  -0.926  -0.925  -0.924  -0.921
 -0.920  -0.916  -0.899  -0.898  -0.890  -0.889  -0.885  -0.880
 -0.876  -0.872  -0.856  -0.854  -0.842  -0.842  -0.842  -0.841
 -0.836  -0.836  -0.820  -0.818  -0.808  -0.806  -0.801  -0.800
 -0.797  -0.796  -0.793  -0.792  -0.790  -0.787  -0.786  -0.784
 -0.773  -0.771  -0.770  -0.769  -0.768  -0.767  -0.764  -0.763
 -0.751  -0.748  -0.742  -0.741  -0.734  -0.732  -0.717  -0.716
 -0.715  -0.713  -0.713  -0.713  -0.713  -0.710  -0.709  -0.708
 -0.707  -0.706  -0.705  -0.703  -0.699  -0.697  -0.675  -0.672
 -0.659  -0.658  -0.658  -0.658  -0.648  -0.647  -0.631  -0.631
 -0.630  -0.628  -0.627  -0.625  -0.621  -0.621  -0.618  -0.618
 -0.616  -0.615  -0.614  -0.613  -0.612  -0.610  -0.609  -0.608
 -0.607  -0.606  -0.603  -0.601  -0.567  -0.566  -0.563  -0.563
 -0.561  -0.558  -0.558  -0.556  -0.556  -0.553  -0.553  -0.547
 -0.538  -0.538  -0.534  -0.532  -0.530  -0.527  -0.526  -0.524
 -0.522  -0.521  -0.521  -0.521  -0.517  -0.515  -0.515  -0.511
 -0.505  -0.504  -0.504  -0.495  -0.492  -0.491  -0.487  -0.486
 -0.484  -0.484  -0.482  -0.482  -0.480  -0.479  -0.475  -0.474
 -0.473  -0.471  -0.470  -0.469  -0.469  -0.467  -0.467  -0.466
 -0.465  -0.464  -0.464  -0.462  -0.462  -0.460  -0.458  -0.457
 -0.455  -0.452  -0.452  -0.451  -0.448  -0.447  -0.446  -0.445
 -0.444  -0.441  -0.440  -0.439  -0.438  -0.436  -0.435  -0.434
 -0.431  -0.430  -0.430  -0.428  -0.428  -0.426  -0.426  -0.425
 -0.424  -0.422  -0.421  -0.421  -0.420  -0.419  -0.418  -0.417
 -0.417  -0.416  -0.415  -0.415  -0.414  -0.414  -0.413  -0.412
 -0.412  -0.411  -0.410  -0.408  -0.404  -0.401  -0.399  -0.398
 -0.395  -0.395  -0.392  -0.391  -0.389  -0.387  -0.386  -0.381
 -0.380  -0.378  -0.376  -0.372  -0.370  -0.369  -0.368  -0.365
 -0.364  -0.364  -0.363  -0.362  -0.361  -0.359  -0.358  -0.358
 -0.356  -0.355  -0.354  -0.354  -0.353  -0.351  -0.351  -0.350
 -0.350  -0.349  -0.347  -0.347  -0.347  -0.346  -0.344  -0.344
 -0.343  -0.341  -0.341  -0.340  -0.339  -0.338  -0.336  -0.334
 -0.333  -0.332  -0.331  -0.329  -0.327  -0.326  -0.325  -0.321
 -0.305  -0.305  -0.299  -0.291  -0.290  -0.287  -0.273  -0.273
 -0.271  -0.270  -0.269  -0.268  -0.266  -0.265  -0.265  -0.264
 -0.262  -0.261  -0.260  -0.260  -0.258  -0.257  -0.256  -0.253
 -0.251  -0.245  -0.243  -0.240  -0.224  -0.222  -0.212  -0.211
 -0.210  -0.209  -0.208  -0.206  -0.198  -0.198

          Ground-State Mulliken Net Atomic Charges

     Atom                 Charge (a.u.)
  ----------------------------------------
      1 O                    -0.502477
      2 C                    -0.078906
      3 H                     0.126581
      4 H                     0.125368
      5 H                     0.135729
      6 O                    -0.478108
      7 C                     0.590653
      8 C                    -0.258978
      9 H                     0.140296
     10 H                     0.146092
     11 C                    -0.181538
     12 H                     0.111087
     13 H                     0.141885
     14 C                    -0.194153
     15 H                     0.111111
     16 H                     0.101554
     17 C                     0.005519
     18 C                     0.094962
     19 C                    -0.085610
     20 H                     0.085734
     21 C                    -0.094854
     22 H                     0.088187
     23 C                    -0.071248
     24 H                     0.091851
     25 C                    -0.107190
     26 H                     0.081575
     27 C                    -0.106707
     28 H                     0.101812
     29 C                     0.003981
     30 C                     0.011891
     31 C                     0.026623
     32 C                     0.043856
     33 C                    -0.000277
     34 C                    -0.000269
     35 C                     0.005251
     36 C                     0.006093
     37 C                    -0.001635
     38 C                    -0.021459
     39 C                    -0.074832
     40 C                     0.008138
     41 C                    -0.018488
     42 C                    -0.006578
     43 C                    -0.005080
     44 C                    -0.012046
     45 C                    -0.075796
     46 C                     0.009963
     47 C                    -0.013715
     48 C                     0.000576
     49 C                     0.005367
     50 C                     0.013751
     51 C                     0.005708
     52 C                    -0.009488
     53 C                     0.040540
     54 C                    -0.004783
     55 C                     0.015458
     56 C                    -0.015457
     57 C                    -0.004299
     58 C                    -0.027889
     59 C                    -0.028379
     60 C                     0.027078
     61 C                    -0.011510
     62 C                    -0.032924
     63 C                     0.003407
     64 C                     0.019749
     65 C                    -0.041239
     66 C                     0.003428
     67 C                     0.002548
     68 C                    -0.012049
     69 C                    -0.002973
     70 C                    -0.001184
     71 C                     0.009323
     72 C                     0.034283
     73 C                     0.012055
     74 C                     0.027555
     75 C                     0.003338
     76 C                    -0.015826
     77 C                    -0.019383
     78 C                    -0.008658
     79 C                    -0.021223
     80 C                     0.014946
     81 C                    -0.009249
     82 C                    -0.027180
     83 C                     0.024527
     84 C                    -0.003364
     85 C                     0.012129
     86 C                     0.026949
     87 C                    -0.005395
     88 C                    -0.005172
     89 O                    -0.471311
     90 C                    -0.081720
     91 H                     0.121888
     92 H                     0.121368
     93 H                     0.126382
     94 O                    -0.457909
     95 C                     0.590466
     96 C                    -0.233612
     97 H                     0.131310
     98 H                     0.128644
     99 C                    -0.203257
    100 H                     0.104586
    101 H                     0.134610
    102 C                    -0.180644
    103 H                     0.109430
    104 H                     0.110594
    105 C                    -0.013044
    106 C                     0.103028
    107 C                    -0.109696
    108 H                     0.090396
    109 C                    -0.098639
    110 H                     0.093359
    111 C                    -0.082165
    112 H                     0.092503
    113 C                    -0.092592
    114 H                     0.088786
    115 C                    -0.087833
    116 H                     0.094153
    117 C                    -0.016343
    118 C                     0.026211
    119 C                    -0.008807
    120 C                     0.008909
    121 C                     0.016527
    122 C                     0.018526
    123 C                    -0.021571
    124 C                    -0.032899
    125 C                     0.039254
    126 C                     0.012721
    127 C                    -0.079008
    128 C                     0.003244
    129 C                     0.026397
    130 C                     0.001105
    131 C                    -0.027921
    132 C                    -0.010104
    133 C                    -0.101903
    134 C                    -0.005970
    135 C                     0.001507
    136 C                     0.000947
    137 C                    -0.002816
    138 C                     0.019676
    139 C                     0.005699
    140 C                     0.028796
    141 C                     0.007320
    142 C                     0.004628
    143 C                    -0.019609
    144 C                    -0.029848
    145 C                    -0.015512
    146 C                     0.004237
    147 C                     0.002055
    148 C                     0.031340
    149 C                    -0.019551
    150 C                    -0.024284
    151 C                     0.003513
    152 C                     0.043730
    153 C                    -0.001951
    154 C                    -0.018825
    155 C                    -0.036944
    156 C                    -0.010563
    157 C                     0.002204
    158 C                     0.077797
    159 C                     0.000489
    160 C                    -0.003111
    161 C                     0.010186
    162 C                     0.004335
    163 C                    -0.008468
    164 C                     0.001550
    165 C                     0.035928
    166 C                    -0.017031
    167 C                    -0.021826
    168 C                    -0.006769
    169 C                     0.002099
    170 C                    -0.031002
    171 C                     0.019375
    172 C                    -0.004155
    173 C                     0.005896
    174 C                    -0.017448
    175 C                    -0.014268
    176 C                     0.012281
  ----------------------------------------
  Sum of atomic charges =     0.000000

                    Cartesian Multipole Moments
 -----------------------------------------------------------------
    Charge (ESU x 10^10)
                 0.0000
    Dipole Moment (Debye)
         X      -0.7436      Y      -3.1010      Z       2.6704
       Tot       4.1594
    Quadrupole Moments (Debye-Ang)
        XX    -801.7258     XY     -13.1200     YY    -788.1029
        XZ     -23.3512     YZ     -20.8596     ZZ    -799.2042

 Total job time:  850.20s(wall), 8080.10s(cpu)
        *  Thank you very much for using Q-Chem.  Have a nice day.  *
