 Q-Chem 4.4, Q-Chem, Inc., Pleasanton, CA (2016)
 Q-Chem 4.4.2 for Intel X86 Linux

User input:
--------------------------------------------------------------
$comment
SP
$end

$rem
MEM_STATIC 5000
MEM_TOTAL 20000
JOBTYPE SP
EXCHANGE B3LYP
BASIS 6-31g(d,p)
$end

$molecule
0 1
O           3.659000    -18.546000     -0.578000
C           3.383000    -19.458000     -1.676000
H           2.655000    -18.914000     -2.292000
H           3.027000    -20.404000     -1.250000
H           4.312000    -19.643000     -2.230000
O           4.470000    -16.813000     -1.836000
C           4.077000    -17.276000     -0.743000
C           4.136000    -16.534000      0.527000
H           4.715000    -15.628000      0.312000
H           4.720000    -17.076000      1.283000
C           2.818000    -15.928000      1.132000
H           2.989000    -15.318000      2.026000
H           2.269000    -15.447000      0.312000
C           1.898000    -17.135000      1.651000
H           1.923000    -17.822000      0.795000
H           2.456000    -17.682000      2.421000
C           0.470000    -16.712000      2.220000
C          -0.378000    -16.189000      1.173000
C          -1.142000    -17.091000      0.356000
H          -1.089000    -18.172000      0.447000
C          -1.995000    -16.586000     -0.636000
H          -2.698000    -17.196000     -1.194000
C          -1.995000    -15.192000     -0.910000
H          -2.675000    -14.921000     -1.712000
C          -1.195000    -14.302000     -0.245000
H          -1.296000    -13.246000     -0.475000
C          -0.408000    -14.794000      0.844000
H           0.260000    -14.141000      1.396000
C          -2.627000    -14.319000      6.021000
C          -3.863000    -16.374000      5.576000
C          -2.792000    -18.542000      9.446000
C           2.350000    -15.307000      7.140000
C          -0.181000    -20.446000      8.097000
C          -3.090000    -15.299000      5.113000
C           2.352000    -17.780000      8.460000
C          -3.418000    -16.186000      9.083000
C          -1.334000    -19.276000      4.363000
C           2.759000    -16.451000      6.460000
C          -0.036000    -17.534000      3.424000
C          -0.031000    -19.525000      4.699000
C           2.210000    -18.664000      6.234000
C           1.641000    -18.945000      8.922000
C          -2.413000    -17.171000      4.023000
C          -0.633000    -18.983000     10.038000
C           0.317000    -16.085000      3.638000
C           1.399000    -15.701000      4.541000
C          -1.079000    -19.960000      9.149000
C          -0.163000    -14.946000      9.733000
C          -1.459000    -16.721000     10.497000
C          -2.331000    -15.787000      9.823000
C          -3.694000    -15.564000      7.889000
C           0.957000    -14.565000      5.260000
C          -1.400000    -18.064000      3.625000
C          -4.210000    -16.515000      6.971000
C           2.691000    -17.689000      7.106000
C          -3.452000    -17.534000      4.918000
C           0.307000    -20.183000      5.873000
C           0.554000    -13.938000      7.607000
C          -3.680000    -17.577000      8.957000
C           0.778000    -18.456000      4.278000
C          -1.822000    -14.017000      8.189000
C           1.465000    -19.754000      6.674000
C          -2.348000    -19.625000      5.301000
C           0.971000    -17.101000     10.094000
C           2.009000    -16.699000      9.156000
C          -2.018000    -20.326000      6.472000
C           1.452000    -14.378000      6.581000
C           2.221000    -16.654000      5.166000
C           0.865000    -14.601000      8.799000
C          -0.868000    -15.272000      4.023000
C          -3.784000    -18.925000      6.929000
C           1.920000    -18.020000      5.027000
C          -0.652000    -20.623000      6.805000
C          -0.827000    -13.675000      7.286000
C          -2.394000    -19.702000      8.802000
C          -2.917000    -14.488000      7.403000
C          -1.732000    -18.119000     10.253000
C          -3.409000    -18.775000      5.576000
C          -2.875000    -19.868000      7.499000
C          -2.160000    -15.821000      4.153000
C          -0.396000    -14.339000      4.959000
C          -0.125000    -16.207000     10.373000
C          -4.099000    -17.772000      7.646000
C           1.187000    -19.915000      7.997000
C           1.934000    -15.495000      8.510000
C           0.721000    -18.500000      9.925000
C          -1.276000    -13.919000      5.983000
C          -1.491000    -14.684000      9.399000
O           2.069000     -9.333000      2.566000
C           2.845000     -9.184000      1.383000
H           3.479000     -8.289000      1.385000
H           2.149000     -9.103000      0.539000
H           3.446000    -10.085000      1.209000
O           1.168000    -11.294000      1.809000
C           1.257000    -10.452000      2.657000
C           0.493000    -10.455000      3.945000
H          -0.196000    -11.302000      4.049000
H          -0.121000     -9.549000      3.865000
C           1.333000    -10.307000      5.215000
H           1.996000    -11.177000      5.297000
H           2.088000     -9.512000      5.188000
C           0.443000    -10.064000      6.492000
H          -0.321000    -10.845000      6.591000
H           1.020000    -10.047000      7.425000
C          -0.194000     -8.600000      6.544000
C           0.781000     -7.519000      6.192000
C           1.679000     -7.150000      7.134000
H           1.707000     -7.629000      8.108000
C           2.593000     -6.099000      6.894000
H           3.197000     -5.604000      7.649000
C           2.626000     -5.484000      5.617000
H           3.257000     -4.607000      5.510000
C           1.773000     -5.969000      4.617000
H           1.774000     -5.512000      3.632000
C           0.800000     -6.922000      4.916000
H           0.132000     -7.295000      4.144000
C          -3.392000     -5.421000      9.618000
C          -3.782000     -4.539000      7.378000
C          -8.003000     -6.215000      7.089000
C          -4.182000    -10.442000      9.842000
C          -7.004000     -8.971000      5.240000
C          -2.955000     -5.127000      8.297000
C          -6.221000    -11.073000      8.083000
C          -6.882000     -5.076000      9.000000
C          -3.424000     -7.457000      4.782000
C          -3.821000    -11.015000      8.644000
C          -1.697000     -8.449000      6.124000
C          -3.613000     -8.851000      4.819000
C          -4.439000    -10.924000      6.458000
C          -7.091000    -10.533000      7.115000
C          -2.356000     -5.924000      6.341000
C          -8.353000     -8.430000      7.240000
C          -1.331000     -8.452000      7.550000
C          -1.867000     -9.576000      8.484000
C          -7.843000     -8.092000      5.959000
C          -6.593000     -8.082000     10.788000
C          -8.024000     -7.194000      9.283000
C          -7.258000     -6.163000      9.816000
C          -5.559000     -4.626000      9.064000
C          -2.317000     -8.927000      9.642000
C          -2.358000     -7.142000      5.590000
C          -5.097000     -4.290000      7.787000
C          -4.858000    -11.308000      7.755000
C          -3.434000     -4.987000      6.113000
C          -4.893000     -9.383000      4.648000
C          -4.264000     -8.479000     11.087000
C          -7.233000     -5.147000      7.615000
C          -2.644000     -9.422000      5.646000
C          -5.074000     -6.219000     10.884000
C          -5.306000    -10.470000      5.471000
C          -4.477000     -6.536000      4.577000
C          -7.542000     -9.545000      9.113000
C          -6.482000    -10.442000      9.297000
C          -5.778000     -7.068000      4.385000
C          -3.386000     -9.359000     10.408000
C          -2.752000    -10.550000      7.911000
C          -5.559000     -8.986000     10.997000
C          -1.595000     -7.194000      8.278000
C          -5.882000     -5.105000      5.639000
C          -3.151000    -10.446000      6.531000
C          -5.955000     -8.479000      4.489000
C          -4.012000     -7.087000     11.017000
C          -7.739000     -6.726000      5.840000
C          -4.685000     -5.177000     10.026000
C          -8.345000     -7.281000      7.931000
C          -4.533000     -5.307000      5.227000
C          -6.666000     -6.180000      5.095000
C          -2.019000     -5.979000      7.718000
C          -2.148000     -7.530000      9.498000
C          -7.659000     -8.399000      9.880000
C          -6.138000     -4.659000      6.923000
C          -6.617000    -10.193000      5.826000
C          -5.470000    -10.146000     10.219000
C          -7.918000     -9.616000      7.814000
C          -2.936000     -6.606000     10.243000
C          -6.410000     -6.720000     10.748000
$end

--------------------------------------------------------------

             Standard Nuclear Orientation (Angstroms)
    I     Atom           X                Y                Z
 ----------------------------------------------------------------
    1      O      -9.3864584679    -5.0231142675    -1.0793477156
    2      C     -10.3413520060    -5.2998588561    -2.1400619861
    3      H      -9.7172229752    -5.6660723573    -2.9657293672
    4      H     -10.8991577738    -4.3775943399    -2.3435537246
    5      H     -11.0415653975    -6.0728113179    -1.7988469539
    6      O      -8.5554797236    -7.1470411949    -0.8744508301
    7      C      -8.5072262154    -5.9269547874    -0.6051410509
    8      C      -7.5625596099    -5.3400565622     0.3592761191
    9      H      -7.0804608006    -6.1913396079     0.8544527685
   10      H      -8.0873324108    -4.8011391129     1.1596119800
   11      C      -6.3180598229    -4.5367084827    -0.1663065512
   12      H      -5.6324665296    -4.2251925787     0.6296184941
   13      H      -5.8775880202    -5.1124321210    -0.9907390125
   14      C      -6.8368877106    -3.1572044781    -0.7990753274
   15      H      -7.6632392040    -3.4980078405    -1.4365126008
   16      H      -7.3512699889    -2.5931270015    -0.0112298653
   17      C      -5.7131854604    -2.2449076896    -1.4675675281
   18      C      -5.1668912237    -2.8684569552    -2.6514555804
   19      C      -5.8320855936    -2.7067962308    -3.9148522957
   20      H      -6.7680215650    -2.1687882136    -4.0341092904
   21      C      -5.2850911386    -3.2783934895    -5.0727692358
   22      H      -5.6566745739    -3.0846903008    -6.0738076093
   23      C      -4.1477143485    -4.1223818747    -4.9615503389
   24      H      -3.8285534774    -4.5262376482    -5.9176266186
   25      C      -3.5474442647    -4.4098930207    -3.7651648795
   26      H      -2.6484278161    -5.0181336590    -3.7722183269
   27      C      -4.0299775369    -3.7399926634    -2.5965121713
   28      H      -3.6077110149    -3.9412634203    -1.6174728121
   29      C      -1.3366658915     0.9876051141    -1.0645831146
   30      C      -2.7033278040     2.1807849296    -2.6947067741
   31      C      -4.0436470465     5.5731396821     0.0474891637
   32      C      -4.0331228750    -0.0830059530     3.2460717868
   33      C      -7.1573643521     4.1905794490     0.8571988297
   34      C      -2.2215979618     0.9736078603    -2.1672763212
   35      C      -5.8370381718     2.0400833597     3.5567394105
   36      C      -1.8278900605     4.5192662768    -0.1852184306
   37      C      -6.6117430971     1.3961847693    -2.0642256208
   38      C      -5.3743782202    -0.2647376201     2.9198437986
   39      C      -5.8991087805    -0.7234043831    -1.2892526174
   40      C      -7.2982339185     1.1438214352    -0.9076145800
   41      C      -7.1153658548     0.8390647169     1.9196295931
   42      C      -6.4235257264     3.2582551883     3.0584626359
   43      C      -4.4138331257     0.6896406138    -2.6813585998
   44      C      -5.1966727169     5.1945021987     1.9796877715
   45      C      -4.7394045233    -1.3934432697    -0.5992236859
   46      C      -4.6369156618    -1.4044092926     0.8578160457
   47      C      -6.0813839837     5.1853380349     0.9022055245
   48      C      -1.9780863400     2.8942548237     2.9599212888
   49      C      -2.7652226163     4.8964671412     2.0736372947
   50      C      -1.7565043591     4.3765477457     1.1796645323
   51      C      -1.4782712536     3.4682400600    -0.9987333852
   52      C      -3.2784397921    -1.1740295530     1.1807548744
   53      C      -5.7232978700     0.3181010325    -2.3217999496
   54      C      -2.3179834158     3.4586260349    -2.1424868793
   55      C      -6.2517318576     0.8197433577     3.0133082497
   56      C      -4.0536389549     2.0219620728    -3.0092224270
   57      C      -7.7107102335     2.1668455200    -0.0657303768
   58      C      -1.9585852666     0.4944185067     2.4210016657
   59      C      -2.9535983454     5.1856780635    -0.7402654448
   60      C      -6.8262861366    -0.0461404227    -0.3281846291
   61      C      -0.8611111886     2.0965190753     0.9313153174
   62      C      -7.6279886745     2.0225215708     1.3967790220
   63      C      -6.2390391842     2.7425434093    -2.3439597908
   64      C      -4.2374364048     3.6133454265     3.6221508485
   65      C      -4.5744789077     2.2313291030     3.9308986952
   66      C      -6.6861265420     3.7867938879    -1.5186139043
   67      C      -2.9880127566    -0.5018529435     2.4009457376
   68      C      -5.6533295694    -0.8888741651     1.6797918973
   69      C      -2.3592136520     1.5460840100     3.2520555546
   70      C      -3.4290513142    -0.9133646006    -1.1148960033
   71      C      -4.5992645318     4.3278067371    -2.3203108840
   72      C      -6.7440434181    -0.2251525773     1.0918336045
   73      C      -7.4419241807     3.5242233134    -0.3249302683
   74      C      -1.2227449376     0.7886949221     1.2162978011
   75      C      -5.3847945879     5.4310138176    -0.2685227204
   76      C      -1.0033066025     2.2414184621    -0.4819952047
   77      C      -3.9226701119     5.4826177539     1.4370748437
   78      C      -4.9779721205     3.0641148745    -2.8236968579
   79      C      -5.6583781240     4.7561047897    -1.4628325014
   80      C      -3.3187731394     0.0492760150    -2.1389696185
   81      C      -2.5814857859    -0.8610845998     0.0023633564
   82      C      -2.9222453543     3.9344076905     3.1266869009
   83      C      -3.2808845510     4.4885822253    -1.8975243319
   84      C      -7.3080180180     3.2226288595     1.9543588588
   85      C      -3.6654325142     1.2303295984     3.7206806024
   86      C      -5.3862784598     4.2454002387     3.0486260914
   87      C      -1.5776010946     0.1342885507     0.0310655839
   88      C      -1.2691247333     3.1540451506     1.7878861245
   89      O       0.0860524186    -6.1217558318     1.4419077692
   90      C      -0.4212451194    -7.4476757755     1.3499756698
   91      H       0.0836655336    -8.1569479586     2.0170462828
   92      H      -0.2706911880    -7.7885347883     0.3182481636
   93      H      -1.5037833794    -7.4515098875     1.5271033508
   94      O      -1.4227416112    -5.3652140846    -0.1013213649
   95      C      -0.5128927837    -5.1555141287     0.6498044831
   96      C       0.1428145105    -3.8232005750     0.8438084494
   97      H      -0.2696943169    -3.0301052412     0.2083698143
   98      H       1.1698552794    -4.0063888846     0.5034243984
   99      C       0.2387786533    -3.3353665849     2.2906024504
  100      H      -0.7775077753    -3.1904256806     2.6770568840
  101      H       0.5978267894    -4.0781345838     3.0132082459
  102      C       1.1586996339    -2.0640723958     2.4300100334
  103      H       0.8341671062    -1.2693219407     1.7469958661
  104      H       1.1668662368    -1.6446556057     3.4437801566
  105      C       2.7130709584    -2.3925266353     2.2632269465
  106      C       3.1421900789    -3.6149635011     3.0146222416
  107      C       3.3204092018    -3.5023584681     4.3508434249
  108      H       3.1441222185    -2.5643483223     4.8684927907
  109      C       3.7784529007    -4.5979113874     5.1173659432
  110      H       4.1434406104    -4.5438901236     6.1389978117
  111      C       3.9684945277    -5.8548798205     4.4897055748
  112      H       4.4310301015    -6.6364135801     5.0846886214
  113      C       3.6555844747    -5.9793569446     3.1297692732
  114      H       3.7975745267    -6.9293390030     2.6233624074
  115      C       3.3228790778    -4.8562920999     2.3732169131
  116      H       3.0865988037    -4.9485338641     1.3163346637
  117      C       7.6267020686    -0.0182217701     2.3035595621
  118      C       7.9810845296    -1.9202887857     0.8189120823
  119      C       8.2595287928     0.6344263467    -2.9367819128
  120      C       3.6714655317     2.8235194288     0.8320542458
  121      C       4.9681988690     0.0316673500    -3.8402014858
  122      C       7.3544956170    -1.3532199819     1.8959697902
  123      C       3.5438429443     2.7587007096    -1.9300598012
  124      C       9.2590528949     1.0169863075    -0.6872303029
  125      C       4.6311973590    -2.7059001140    -1.0634201905
  126      C       2.7121613019     2.0139006048     0.2680447117
  127      C       3.3785491233    -2.0634506886     0.8822642992
  128      C       3.5136335740    -1.9502752476    -1.4639301750
  129      C       2.4925404200     0.6227600515    -1.5166949414
  130      C       4.1346138563     2.1971965082    -3.0795060859
  131      C       5.9041734180    -2.7430709432     1.0100658313
  132      C       6.5287600818     1.9279830970    -3.5553905153
  133      C       3.5865373196    -1.1641204671     2.0291675483
  134      C       3.0822489526     0.3069260204     1.9602946634
  135      C       6.2737591081     0.5682378433    -3.8737807611
  136      C       6.9910333172     3.5994738849     0.0222385881
  137      C       7.9850172375     2.7415259912    -1.8154913643
  138      C       8.6880234329     2.3064141570    -0.6973384316
  139      C       9.0996762035     0.2307471143     0.4587854044
  140      C       4.1351713328     1.0939660401     2.4466972422
  141      C       4.6562827359    -2.7490875061     0.3098789659
  142      C       8.8644992157    -1.1022781916     0.1055088580
  143      C       2.6728847082     1.9723643010    -1.1277601044
  144      C       7.1184051128    -2.8313046032     0.2291092303
  145      C       3.5560214701    -1.2273491453    -2.6581856405
  146      C       5.7280037878     2.8997328420     1.9160099261
  147      C       8.9910831846     0.1752181436    -1.8124349921
  148      C       2.8173644972    -1.5275797934    -0.3301449548
  149      C       7.9804538360     2.0974495423     1.6198355056
  150      C       3.0026171697     0.0849134911    -2.6924996815
  151      C       5.8267947131    -2.7813974441    -1.8143676721
  152      C       5.6979595672     3.4608982326    -2.0162294803
  153      C       4.5147586793     3.5063020362    -1.2678718430
  154      C       5.8727570621    -2.0642809361    -3.0375276684
  155      C       4.4151962077     2.3751609132     2.0036771898
  156      C       2.4692267470     0.7424043527     0.7376776352
  157      C       5.8193217606     3.6792208208     0.7643878011
  158      C       4.9769224863    -1.0673598323     2.5187699051
  159      C       7.9410205921    -1.9708539259    -1.9650266828
  160      C       2.3747107488    -0.1529069429    -0.3865560639
  161      C       4.7525792057    -1.2562168064    -3.3915049731
  162      C       6.8083970499     2.0902978397     2.3445345766
  163      C       7.3823009514    -0.1958313421    -3.5940196815
  164      C       8.4961184422     0.7908766392     1.6054736551
  165      C       7.6988493212     1.9176354325    -2.9007684123
  166      C       7.0830194282    -2.8287803696    -1.2179355104
  167      C       7.2047538423    -1.5153212459    -3.1124665507
  168      C       6.0668904587    -1.8429947238     2.0945514071
  169      C       5.2363416963     0.2660452266     2.7674416216
  170      C       6.9384710205     3.5684159273    -1.4121886873
  171      C       8.7675144337    -1.0883384942    -1.2933255271
  172      C       3.8946818285     0.8476215453    -3.4300443029
  173      C       4.5758215662     3.5831422725     0.1293435670
  174      C       5.4628208867     2.6956423397    -3.1084342318
  175      C       6.5657781005     0.7773375879     2.7978384730
  176      C       8.0826623683     2.8590906806     0.4099391496
 ----------------------------------------------------------------

    9   -5804.3054028977      9.47E-06 Convergence criterion met
 Total energy in the final basis set = -5804.3054028977

                    Orbital Energies (a.u.)
 --------------------------------------------------------------

 Alpha MOs
 -- Occupied --
-19.195 -19.193 -19.145 -19.130 -10.322 -10.318 -10.254 -10.245
-10.241 -10.240 -10.238 -10.238 -10.237 -10.236 -10.231 -10.229
-10.229 -10.228 -10.228 -10.227 -10.227 -10.226 -10.226 -10.226
-10.225 -10.225 -10.224 -10.223 -10.223 -10.222 -10.222 -10.222
-10.222 -10.222 -10.222 -10.222 -10.221 -10.221 -10.221 -10.221
-10.221 -10.221 -10.220 -10.220 -10.220 -10.220 -10.220 -10.220
-10.220 -10.220 -10.219 -10.219 -10.219 -10.219 -10.219 -10.219
-10.219 -10.218 -10.218 -10.218 -10.217 -10.217 -10.217 -10.217
-10.217 -10.216 -10.216 -10.216 -10.216 -10.216 -10.216 -10.216
-10.216 -10.216 -10.216 -10.215 -10.215 -10.215 -10.215 -10.215
-10.215 -10.215 -10.215 -10.214 -10.214 -10.214 -10.214 -10.214
-10.214 -10.214 -10.214 -10.214 -10.214 -10.213 -10.213 -10.213
-10.213 -10.213 -10.213 -10.213 -10.213 -10.213 -10.212 -10.212
-10.212 -10.212 -10.212 -10.212 -10.212 -10.211 -10.211 -10.211
-10.211 -10.210 -10.210 -10.210 -10.210 -10.209 -10.209 -10.209
-10.209 -10.209 -10.209 -10.208 -10.208 -10.208 -10.207 -10.207
-10.206 -10.206 -10.206 -10.205 -10.204 -10.204 -10.202 -10.201
-10.201 -10.200 -10.200 -10.200 -10.199 -10.199 -10.198 -10.198
-10.198 -10.195 -10.194 -10.190  -1.100  -1.092  -1.024  -0.995
 -0.984  -0.981  -0.966  -0.965  -0.964  -0.961  -0.961  -0.958
 -0.935  -0.931  -0.927  -0.925  -0.925  -0.923  -0.922  -0.921
 -0.921  -0.919  -0.898  -0.895  -0.890  -0.886  -0.885  -0.885
 -0.875  -0.871  -0.856  -0.845  -0.842  -0.841  -0.841  -0.840
 -0.835  -0.835  -0.820  -0.815  -0.808  -0.802  -0.800  -0.797
 -0.797  -0.796  -0.794  -0.793  -0.791  -0.790  -0.784  -0.782
 -0.773  -0.771  -0.770  -0.769  -0.766  -0.765  -0.763  -0.762
 -0.751  -0.743  -0.742  -0.740  -0.732  -0.731  -0.719  -0.716
 -0.715  -0.714  -0.714  -0.713  -0.712  -0.712  -0.709  -0.709
 -0.707  -0.707  -0.704  -0.703  -0.702  -0.700  -0.674  -0.671
 -0.659  -0.659  -0.657  -0.655  -0.647  -0.646  -0.632  -0.630
 -0.630  -0.628  -0.626  -0.624  -0.621  -0.621  -0.619  -0.618
 -0.616  -0.615  -0.614  -0.612  -0.611  -0.610  -0.609  -0.609
 -0.607  -0.604  -0.603  -0.602  -0.570  -0.565  -0.564  -0.562
 -0.561  -0.560  -0.558  -0.558  -0.556  -0.554  -0.553  -0.553
 -0.537  -0.534  -0.534  -0.532  -0.529  -0.528  -0.526  -0.525
 -0.524  -0.522  -0.521  -0.519  -0.517  -0.516  -0.514  -0.513
 -0.507  -0.506  -0.503  -0.501  -0.492  -0.488  -0.488  -0.486
 -0.486  -0.485  -0.483  -0.482  -0.481  -0.479  -0.477  -0.476
 -0.474  -0.473  -0.470  -0.469  -0.469  -0.467  -0.467  -0.465
 -0.464  -0.464  -0.464  -0.463  -0.462  -0.460  -0.460  -0.456
 -0.455  -0.452  -0.451  -0.450  -0.448  -0.446  -0.444  -0.444
 -0.443  -0.442  -0.441  -0.441  -0.439  -0.437  -0.435  -0.432
 -0.430  -0.430  -0.428  -0.427  -0.426  -0.425  -0.425  -0.424
 -0.423  -0.422  -0.422  -0.421  -0.420  -0.419  -0.419  -0.418
 -0.418  -0.417  -0.416  -0.415  -0.415  -0.415  -0.414  -0.413
 -0.412  -0.411  -0.411  -0.409  -0.404  -0.403  -0.398  -0.398
 -0.396  -0.395  -0.392  -0.392  -0.389  -0.389  -0.387  -0.387
 -0.381  -0.378  -0.375  -0.374  -0.372  -0.369  -0.367  -0.364
 -0.364  -0.364  -0.363  -0.362  -0.361  -0.359  -0.358  -0.356
 -0.356  -0.355  -0.354  -0.354  -0.354  -0.352  -0.352  -0.351
 -0.350  -0.349  -0.348  -0.347  -0.347  -0.346  -0.345  -0.345
 -0.344  -0.343  -0.341  -0.340  -0.338  -0.336  -0.335  -0.335
 -0.334  -0.333  -0.331  -0.328  -0.327  -0.327  -0.326  -0.325
 -0.305  -0.302  -0.297  -0.295  -0.287  -0.287  -0.276  -0.272
 -0.272  -0.271  -0.269  -0.269  -0.268  -0.265  -0.264  -0.263
 -0.262  -0.261  -0.260  -0.259  -0.257  -0.256  -0.256  -0.251
 -0.249  -0.245  -0.243  -0.238  -0.224  -0.221  -0.217  -0.211
 -0.210  -0.209  -0.207  -0.207  -0.199  -0.197

          Ground-State Mulliken Net Atomic Charges

     Atom                 Charge (a.u.)
  ----------------------------------------
      1 O                    -0.460027
      2 C                    -0.080850
      3 H                     0.136863
      4 H                     0.130860
      5 H                     0.137736
      6 O                    -0.491621
      7 C                     0.594312
      8 C                    -0.257439
      9 H                     0.136939
     10 H                     0.126757
     11 C                    -0.196360
     12 H                     0.112771
     13 H                     0.127932
     14 C                    -0.191920
     15 H                     0.122731
     16 H                     0.099819
     17 C                     0.020268
     18 C                     0.089033
     19 C                    -0.108760
     20 H                     0.087690
     21 C                    -0.089752
     22 H                     0.089406
     23 C                    -0.077241
     24 H                     0.083067
     25 C                    -0.086732
     26 H                     0.102549
     27 C                    -0.132194
     28 H                     0.115432
     29 C                    -0.015665
     30 C                    -0.003361
     31 C                     0.030742
     32 C                     0.000128
     33 C                    -0.006480
     34 C                    -0.021156
     35 C                     0.009832
     36 C                     0.016291
     37 C                    -0.012963
     38 C                    -0.031218
     39 C                    -0.096660
     40 C                     0.040024
     41 C                    -0.005598
     42 C                    -0.017212
     43 C                     0.016982
     44 C                     0.005832
     45 C                    -0.111387
     46 C                     0.058091
     47 C                    -0.014475
     48 C                     0.008335
     49 C                    -0.024428
     50 C                    -0.004948
     51 C                     0.014019
     52 C                    -0.015624
     53 C                     0.002306
     54 C                    -0.015019
     55 C                     0.019524
     56 C                     0.001483
     57 C                    -0.026661
     58 C                    -0.018203
     59 C                    -0.010343
     60 C                     0.037409
     61 C                    -0.012016
     62 C                     0.009881
     63 C                     0.018832
     64 C                    -0.023963
     65 C                     0.011520
     66 C                    -0.010573
     67 C                    -0.004829
     68 C                    -0.006808
     69 C                     0.006542
     70 C                     0.051743
     71 C                    -0.008653
     72 C                    -0.010074
     73 C                     0.003803
     74 C                     0.000835
     75 C                     0.019916
     76 C                     0.000644
     77 C                    -0.014119
     78 C                     0.000167
     79 C                    -0.020314
     80 C                     0.026198
     81 C                     0.005211
     82 C                     0.000103
     83 C                     0.006968
     84 C                    -0.012202
     85 C                     0.000991
     86 C                     0.007640
     87 C                     0.011174
     88 C                     0.000045
     89 O                    -0.468912
     90 C                    -0.082152
     91 H                     0.123903
     92 H                     0.121601
     93 H                     0.126426
     94 O                    -0.463657
     95 C                     0.592737
     96 C                    -0.238238
     97 H                     0.131491
     98 H                     0.129195
     99 C                    -0.206002
    100 H                     0.104563
    101 H                     0.133608
    102 C                    -0.183084
    103 H                     0.113302
    104 H                     0.110848
    105 C                    -0.013585
    106 C                     0.103939
    107 C                    -0.109618
    108 H                     0.090853
    109 C                    -0.098707
    110 H                     0.093400
    111 C                    -0.082413
    112 H                     0.092421
    113 C                    -0.092784
    114 H                     0.088379
    115 C                    -0.088538
    116 H                     0.093289
    117 C                    -0.016890
    118 C                     0.025502
    119 C                    -0.006306
    120 C                     0.003650
    121 C                     0.016681
    122 C                     0.018895
    123 C                    -0.022998
    124 C                    -0.035365
    125 C                     0.038440
    126 C                     0.018732
    127 C                    -0.079299
    128 C                     0.003304
    129 C                     0.028754
    130 C                     0.001840
    131 C                    -0.028182
    132 C                    -0.010729
    133 C                    -0.102432
    134 C                    -0.007612
    135 C                     0.000951
    136 C                     0.000556
    137 C                    -0.004562
    138 C                     0.020721
    139 C                     0.006623
    140 C                     0.027684
    141 C                     0.007042
    142 C                     0.003786
    143 C                    -0.015690
    144 C                    -0.029929
    145 C                    -0.016061
    146 C                     0.003495
    147 C                    -0.001474
    148 C                     0.029274
    149 C                    -0.019923
    150 C                    -0.024802
    151 C                     0.004166
    152 C                     0.042183
    153 C                    -0.002834
    154 C                    -0.019283
    155 C                    -0.035961
    156 C                    -0.004968
    157 C                     0.002351
    158 C                     0.076496
    159 C                     0.000567
    160 C                    -0.000692
    161 C                     0.009908
    162 C                     0.004011
    163 C                    -0.009414
    164 C                     0.001449
    165 C                     0.036201
    166 C                    -0.016432
    167 C                    -0.020869
    168 C                    -0.005295
    169 C                     0.002777
    170 C                    -0.030226
    171 C                     0.017290
    172 C                    -0.004577
    173 C                     0.007667
    174 C                    -0.017098
    175 C                    -0.015108
    176 C                     0.012219
  ----------------------------------------
  Sum of atomic charges =     0.000000

                    Cartesian Multipole Moments
 -----------------------------------------------------------------
    Charge (ESU x 10^10)
                 0.0000
    Dipole Moment (Debye)
         X      -1.4452      Y      -1.9516      Z       0.9756
       Tot       2.6171
    Quadrupole Moments (Debye-Ang)
        XX    -805.4994     XY     -13.5327     YY    -814.2863
        XZ      17.7576     YZ     -10.8670     ZZ    -791.7794

 Total job time:  850.03s(wall), 8164.49s(cpu)
        *  Thank you very much for using Q-Chem.  Have a nice day.  *
