 Q-Chem 4.4, Q-Chem, Inc., Pleasanton, CA (2016)
 Q-Chem 4.4.2 for Intel X86 Linux

User input:
--------------------------------------------------------------
$comment
SP
$end

$rem
MEM_STATIC 5000
MEM_TOTAL 20000
JOBTYPE SP
EXCHANGE B3LYP
BASIS 6-31g(d,p)
$end

$molecule
0 1
O         -18.763000     -4.496000     10.623000
C         -20.066000     -3.867000     10.682000
H         -20.134000     -3.058000      9.944000
H         -20.325000     -3.437000     11.658000
H         -20.929000     -4.504000     10.455000
O         -18.978000     -6.053000     12.392000
C         -18.287000     -5.417000     11.606000
C         -16.704000     -5.586000     11.410000
H         -16.278000     -5.938000     12.358000
H         -16.207000     -4.608000     11.387000
C         -16.212000     -6.277000     10.200000
H         -16.518000     -5.636000      9.365000
H         -15.124000     -6.213000     10.078000
C         -16.731000     -7.731000     10.076000
H         -16.143000     -8.435000     10.679000
H         -17.711000     -7.776000     10.568000
C         -16.850000     -8.312000      8.693000
C         -17.967000     -7.784000      7.956000
C         -17.688000     -6.905000      6.904000
H         -16.678000     -6.811000      6.515000
C         -18.621000     -5.970000      6.392000
H         -18.268000     -5.321000      5.597000
C         -19.913000     -5.980000      6.834000
H         -20.660000     -5.292000      6.449000
C         -20.255000     -6.950000      7.848000
H         -21.291000     -7.091000      8.142000
C         -19.339000     -7.895000      8.382000
H         -19.670000     -8.643000      9.097000
C         -17.575000    -13.045000      6.219000
C         -16.298000    -11.776000      4.548000
C         -12.460000    -14.058000      4.925000
C         -14.957000    -13.203000     10.632000
C         -10.797000    -11.726000      7.018000
C         -17.319000    -11.844000      5.534000
C         -12.167000    -13.067000     10.113000
C         -14.730000    -14.881000      4.889000
C         -13.960000     -9.229000      6.323000
C         -14.248000    -11.994000     10.691000
C         -15.588000     -8.903000      8.045000
C         -13.205000     -9.159000      7.536000
C         -12.682000    -10.695000      9.835000
C         -11.241000    -13.026000      9.064000
C         -16.132000     -9.983000      5.758000
C         -11.281000    -14.121000      6.834000
C         -16.566000     -9.829000      8.599000
C         -16.169000    -10.761000      9.766000
C         -10.895000    -12.892000      6.227000
C         -14.645000    -15.733000      8.286000
C         -13.110000    -15.671000      6.598000
C         -14.425000    -15.636000      6.076000
C         -15.973000    -14.228000      4.753000
C         -16.839000    -11.971000      9.597000
C         -15.325000     -9.139000      6.588000
C         -15.651000    -12.986000      4.150000
C         -12.894000    -11.915000     10.450000
C         -15.647000    -10.578000      4.617000
C         -12.017000     -9.915000      7.628000
C         -16.340000    -14.354000      9.231000
C         -13.696000    -14.136000      4.293000
C         -14.146000     -9.081000      8.620000
C         -16.607000    -15.011000      6.944000
C         -11.750000    -10.653000      8.828000
C         -13.356000     -9.866000      5.248000
C         -12.381000    -15.013000      8.837000
C         -12.907000    -14.263000      9.936000
C         -12.179000    -10.558000      5.334000
C         -16.235000    -13.217000     10.075000
C         -14.886000    -10.785000     10.271000
C         -15.148000    -15.043000      9.347000
C         -17.452000    -10.726000      7.742000
C         -13.568000    -11.727000      4.019000
C         -13.930000     -9.969000      9.738000
C         -11.505000    -10.623000      6.543000
C         -17.091000    -14.312000      8.064000
C         -11.690000    -12.881000      5.041000
C         -16.924000    -14.255000      5.797000
C         -12.131000    -14.855000      5.985000
C         -14.237000    -10.550000      4.377000
C         -12.261000    -11.685000      4.545000
C         -17.213000    -10.675000      6.330000
C         -17.625000    -11.961000      8.422000
C         -13.264000    -15.719000      7.977000
C         -14.265000    -12.949000      3.889000
C         -10.998000    -11.787000      8.403000
C         -14.279000    -14.348000     10.240000
C         -11.413000    -14.193000      8.260000
C         -17.712000    -13.116000      7.633000
C         -15.383000    -15.713000      7.077000
O           2.069000     -9.333000      2.566000
C           2.845000     -9.184000      1.383000
H           3.479000     -8.289000      1.385000
H           2.149000     -9.103000      0.539000
H           3.446000    -10.085000      1.209000
O           1.168000    -11.294000      1.809000
C           1.257000    -10.452000      2.657000
C           0.493000    -10.455000      3.945000
H          -0.196000    -11.302000      4.049000
H          -0.121000     -9.549000      3.865000
C           1.333000    -10.307000      5.215000
H           1.996000    -11.177000      5.297000
H           2.088000     -9.512000      5.188000
C           0.443000    -10.064000      6.492000
H          -0.321000    -10.845000      6.591000
H           1.020000    -10.047000      7.425000
C          -0.194000     -8.600000      6.544000
C           0.781000     -7.519000      6.192000
C           1.679000     -7.150000      7.134000
H           1.707000     -7.629000      8.108000
C           2.593000     -6.099000      6.894000
H           3.197000     -5.604000      7.649000
C           2.626000     -5.484000      5.617000
H           3.257000     -4.607000      5.510000
C           1.773000     -5.969000      4.617000
H           1.774000     -5.512000      3.632000
C           0.800000     -6.922000      4.916000
H           0.132000     -7.295000      4.144000
C          -3.392000     -5.421000      9.618000
C          -3.782000     -4.539000      7.378000
C          -8.003000     -6.215000      7.089000
C          -4.182000    -10.442000      9.842000
C          -7.004000     -8.971000      5.240000
C          -2.955000     -5.127000      8.297000
C          -6.221000    -11.073000      8.083000
C          -6.882000     -5.076000      9.000000
C          -3.424000     -7.457000      4.782000
C          -3.821000    -11.015000      8.644000
C          -1.697000     -8.449000      6.124000
C          -3.613000     -8.851000      4.819000
C          -4.439000    -10.924000      6.458000
C          -7.091000    -10.533000      7.115000
C          -2.356000     -5.924000      6.341000
C          -8.353000     -8.430000      7.240000
C          -1.331000     -8.452000      7.550000
C          -1.867000     -9.576000      8.484000
C          -7.843000     -8.092000      5.959000
C          -6.593000     -8.082000     10.788000
C          -8.024000     -7.194000      9.283000
C          -7.258000     -6.163000      9.816000
C          -5.559000     -4.626000      9.064000
C          -2.317000     -8.927000      9.642000
C          -2.358000     -7.142000      5.590000
C          -5.097000     -4.290000      7.787000
C          -4.858000    -11.308000      7.755000
C          -3.434000     -4.987000      6.113000
C          -4.893000     -9.383000      4.648000
C          -4.264000     -8.479000     11.087000
C          -7.233000     -5.147000      7.615000
C          -2.644000     -9.422000      5.646000
C          -5.074000     -6.219000     10.884000
C          -5.306000    -10.470000      5.471000
C          -4.477000     -6.536000      4.577000
C          -7.542000     -9.545000      9.113000
C          -6.482000    -10.442000      9.297000
C          -5.778000     -7.068000      4.385000
C          -3.386000     -9.359000     10.408000
C          -2.752000    -10.550000      7.911000
C          -5.559000     -8.986000     10.997000
C          -1.595000     -7.194000      8.278000
C          -5.882000     -5.105000      5.639000
C          -3.151000    -10.446000      6.531000
C          -5.955000     -8.479000      4.489000
C          -4.012000     -7.087000     11.017000
C          -7.739000     -6.726000      5.840000
C          -4.685000     -5.177000     10.026000
C          -8.345000     -7.281000      7.931000
C          -4.533000     -5.307000      5.227000
C          -6.666000     -6.180000      5.095000
C          -2.019000     -5.979000      7.718000
C          -2.148000     -7.530000      9.498000
C          -7.659000     -8.399000      9.880000
C          -6.138000     -4.659000      6.923000
C          -6.617000    -10.193000      5.826000
C          -5.470000    -10.146000     10.219000
C          -7.918000     -9.616000      7.814000
C          -2.936000     -6.606000     10.243000
C          -6.410000     -6.720000     10.748000
$end

--------------------------------------------------------------

             Standard Nuclear Orientation (Angstroms)
    I     Atom           X                Y                Z
 ----------------------------------------------------------------
    1      O      -8.6381327848     6.9847112705    -0.5869415242
    2      C      -9.8063615071     7.7370955829    -0.9944835453
    3      H      -9.6473432141     8.1844621367    -1.9835868509
    4      H     -10.0900473482     8.5499131669    -0.3137435666
    5      H     -10.7389811992     7.1718897485    -1.1077525811
    6      O      -9.3206654971     6.3051680518     1.5745868958
    7      C      -8.4451257144     6.4844595455     0.7372950417
    8      C      -6.9059404551     6.0611578656     0.8941083876
    9      H      -6.6563884810     6.0697259227     1.9626281116
   10      H      -6.2428443970     6.8801614247     0.5882345771
   11      C      -6.4153257973     4.8893927289     0.1391853968
   12      H      -6.5083588681     5.1740758237    -0.9153488053
   13      H      -5.3266713859     4.7671745468     0.1903546112
   14      C      -7.1687702863     3.5818317059     0.4876944684
   15      H      -6.7857658823     3.1129158434     1.4033333385
   16      H      -8.1890761698     3.8564716878     0.7844060866
   17      C      -7.2369368452     2.5145080273    -0.5708821633
   18      C      -8.1538909360     2.8338176500    -1.6324275275
   19      C      -7.6085920726     3.1770470749    -2.8742120143
   20      H      -6.5615187320     2.9845465063    -3.0906327860
   21      C      -8.2976846128     3.9339136234    -3.8535804326
   22      H      -7.7493253157     4.1622516063    -4.7618749041
   23      C      -9.6113169735     4.2580159551    -3.6690385687
   24      H     -10.1765923605     4.8189406376    -4.4075541321
   25      C     -10.2302889493     3.8245260075    -2.4381770174
   26      H     -11.3007403331     3.9394249765    -2.2948415304
   27      C      -9.5620207730     3.0694440260    -1.4379241265
   28      H     -10.0977564167     2.7164834497    -0.5611709391
   29      C      -8.5190918246    -2.6877043200    -1.1545389994
   30      C      -6.8603398843    -2.3588154934    -2.9360285841
   31      C      -3.5564558586    -4.7442270219    -1.0721457595
   32      C      -6.4722328667    -1.3797979548     3.3679831229
   33      C      -1.7439639126    -1.9887107325     0.2341638992
   34      C      -7.9791066411    -1.9022228062    -2.1882685545
   35      C      -3.6629294050    -1.8013252834     3.3223128808
   36      C      -5.9190037231    -5.2318333495    -1.1822941031
   37      C      -4.3145273392     0.3830225859    -1.8847244264
   38      C      -5.5696120084    -0.3437576293     3.0856021215
   39      C      -6.0373115765     1.5656484516    -0.7205274786
   40      C      -3.6970513574     0.8412727441    -0.6784805852
   41      C      -3.7124519589     0.3039310607     2.0836296112
   42      C      -2.6349519830    -2.2961977128     2.5111891550
   43      C      -6.5108232292    -0.2656650076    -2.4854021848
   44      C      -2.6246012537    -4.1792058557     0.8901715128
   45      C      -7.2197662807     1.0647086623    -0.0336969317
   46      C      -7.1261801068     0.6377198981     1.4485460387
   47      C      -1.9610735780    -3.3527570441    -0.0609327851
   48      C      -6.3611654721    -4.6551584519     2.2447566771
   49      C      -4.6637762585    -5.4605225942     0.9487352823
   50      C      -5.8859688464    -5.4789315834     0.2354047929
   51      C      -7.0028600380    -4.5430150879    -1.7660225427
   52      C      -7.9787626354    -0.4480056544     1.6379241167
   53      C      -5.6622404738     0.7358687910    -1.9115360355
   54      C      -6.4000287543    -3.6954227541    -2.7293701845
   55      C      -4.2051175856    -0.5321651808     3.0684101223
   56      C      -6.0174927832    -1.3217513581    -3.2150854663
   57      C      -2.6805292891     0.0479246474    -0.1052217588
   58      C      -7.8761057622    -2.8192949583     2.2922135051
   59      C      -4.7094953374    -4.9188796575    -1.8292457642
   60      C      -4.7222939565     1.4600607679     0.1168809643
   61      C      -8.0032495171    -4.2998888607     0.4147196538
   62      C      -2.6830429665    -0.1739336650     1.3113605969
   63      C      -3.7195896097    -0.6991521866    -2.5180938761
   64      C      -4.0794461582    -4.0540771656     2.8613239967
   65      C      -4.5805782864    -2.8690810071     3.4871256380
   66      C      -2.7017374834    -1.4354460913    -1.9763953114
   67      C      -7.6631512840    -1.4612030731     2.6476946181
   68      C      -5.9314451536     0.6631767228     2.1367686348
   69      C      -6.8463467637    -3.5426592171     2.8626357647
   70      C      -8.1520904716     0.0137679778    -0.6256000325
   71      C      -4.1241378029    -2.8561165113    -2.9681512737
   72      C      -4.7924478723     1.0752790222     1.5068973082
   73      C      -2.1871253078    -1.0916247802    -0.7365795127
   74      C      -8.4747271919    -3.1578768912     1.0861170502
   75      C      -2.6061650026    -3.7217889970    -1.2801187724
   76      C      -8.0522331922    -4.0344089438    -0.9690270764
   77      C      -3.4935020818    -5.0832463056     0.2500315158
   78      C      -4.6074579857    -1.5628465431    -3.2024766676
   79      C      -2.8964592826    -2.7652026836    -2.2816899662
   80      C      -7.7541883488    -0.5344155394    -1.8883885072
   81      C      -8.6164409057    -0.8146270214     0.4306643282
   82      C      -4.9744063165    -4.9331050736     2.1949297800
   83      C      -5.0095470235    -3.9338556815    -2.7433807391
   84      C      -2.1035298152    -1.4650175044     1.4826849301
   85      C      -5.9706645038    -2.6587111076     3.5608129052
   86      C      -2.9231679823    -3.6574175981     2.1919698546
   87      C      -8.8210507326    -2.1692105972     0.1351086568
   88      C      -6.9463899640    -5.0321174686     1.0110066239
   89      O      11.7524668944    -3.1533944143    -2.5173041443
   90      C      12.6677791795    -3.5857270478    -3.5168830130
   91      H      13.4472662572    -2.8486494976    -3.7451407195
   92      H      12.0944175618    -3.7661448613    -4.4344988738
   93      H      13.1136750437    -4.5463936067    -3.2312702668
   94      O      10.6045245139    -5.1288493992    -2.6181847357
   95      C      10.7487257904    -4.0351574770    -2.1501751513
   96      C       9.8596795779    -3.4296082077    -1.1082750052
   97      H       9.0233404427    -4.0739813311    -0.8111788442
   98      H       9.4298669031    -2.5645775658    -1.6290581203
   99      C      10.5679317139    -2.8879522952     0.1348628730
  100      H      11.0518634244    -3.7254057552     0.6522358545
  101      H      11.4510619739    -2.2679391511    -0.0612076375
  102      C       9.6008142130    -2.0481522477     1.0520856484
  103      H       8.7034743508    -2.6255202314     1.3068117426
  104      H      10.0655401907    -1.7286932309     1.9931928167
  105      C       9.2336378173    -0.6206579680     0.4362848884
  106      C      10.4186433775     0.1023419625    -0.1259632087
  107      C      11.2590946575     0.7063225293     0.7451155024
  108      H      11.0939589397     0.6580520205     1.8171701431
  109      C      12.3667962568     1.4543114035     0.2856518901
  110      H      12.9628175817     2.1333506421     0.8885866234
  111      C      12.6491423373     1.4973567941    -1.1030420233
  112      H      13.4344558927     2.1747846744    -1.4241542883
  113      C      11.8383518268     0.7593467466    -1.9752770362
  114      H      12.0291236671     0.7797247890    -3.0440454117
  115      C      10.6839769479     0.1311310937    -1.5093341938
  116      H      10.0490269208    -0.4361768783    -2.1848614901
  117      C       6.3365953979     3.8845341228     1.4818041114
  118      C       6.3587946836     3.8354383549    -0.9563757009
  119      C       1.9640922884     2.7075030227    -1.3080726505
  120      C       4.6430924666    -0.4906279491     3.4502353820
  121      C       2.6519505733    -0.6570517048    -1.7760047669
  122      C       6.9614872190     3.5695834825     0.2437563312
  123      C       2.7299616564    -1.5219682359     1.7396709384
  124      C       3.0536209551     4.3720588417     0.1912819474
  125      C       6.4730287578     0.1019697044    -2.1523131623
  126      C       5.0253672805    -1.5345815577     2.6391368493
  127      C       7.8371283489    -0.4701314915    -0.2603592709
  128      C       6.0352788732    -1.1264796791    -1.6235285647
  129      C       4.6774753932    -2.2529251232     0.5103449956
  130      C       2.0820371977    -1.3141420873     0.5057640587
  131      C       7.6197466192     1.9897780055    -1.1313273815
  132      C       1.2098154505     0.7984967557    -0.3924922203
  133      C       8.0378160675     0.0541474590     1.1006319200
  134      C       7.2104472407    -0.5278174598     2.2837657492
  135      C       1.9095471208     0.5307113204    -1.5982996470
  136      C       2.6030985193     2.3231585132     3.0047385365
  137      C       1.5277594804     2.6997368751     1.0545681109
  138      C       2.4022653318     3.7570959770     1.2804823546
  139      C       4.4205385449     4.6465385341     0.3058341233
  140      C       6.7591128743     0.5798952235     3.0144742415
  141      C       7.4828259370     0.5829248927    -1.3539167922
  142      C       5.0725402272     4.3843393063    -0.9037998590
  143      C       4.0567514149    -2.0315067387     1.7637011468
  144      C       6.7580357224     2.8797487097    -1.8779487555
  145      C       4.7075194516    -1.5234950161    -1.7970184508
  146      C       4.7766263954     1.8009152791     3.8258899088
  147      C       2.8498841891     3.7951801783    -1.1018419206
  148      C       6.7899576708    -1.4309073242    -0.4891940808
  149      C       4.4104231426     3.8701388212     2.6472813604
  150      C       4.0192169698    -2.1311826657    -0.7077882574
  151      C       5.6303792312     0.9836006783    -2.8676757284
  152      C       1.5979769421     0.4380804055     1.8721282139
  153      C       2.4540627286    -0.4310105427     2.5605053269
  154      C       4.2843932273     0.5807107634    -3.0638654169
  155      C       5.5525908260     0.6235545108     3.6916296252
  156      C       6.2341561316    -1.5350491238     1.9795124904
  157      C       3.4297659815     1.4608662249     3.7140522304
  158      C       7.9243149983     1.5202612475     1.2415995277
  159      C       4.3954273220     2.8785177518    -2.6837924320
  160      C       6.0141811096    -1.9451795414     0.6164934039
  161      C       3.8479816568    -0.6377900067    -2.4656457129
  162      C       5.2792444519     3.0067158931     3.2786349695
  163      C       2.2681940767     1.7111532094    -2.2056400027
  164      C       5.0710692836     4.4258346956     1.5391307517
  165      C       1.3468745020     2.1179201066    -0.1973439757
  166      C       5.7236472766     2.3669945125    -2.7510585289
  167      C       3.4966739824     1.7789640804    -2.9061461105
  168      C       7.7881771956     2.4507034251     0.1998006734
  169      C       7.1895965931     1.7706238006     2.3837958580
  170      C       1.6039291612     1.8003284887     2.1161338104
  171      C       4.0836979699     3.8288845541    -1.7284203829
  172      C       2.7478046062    -1.5789653836    -0.7142438837
  173      C       3.3951446594     0.0848796907     3.4605420299
  174      C       1.3603486236    -0.1013270649     0.6529521138
  175      C       6.5022382230     3.0035106337     2.5768593914
  176      C       3.0295979818     3.5220669777     2.4843063101
 ----------------------------------------------------------------

    9   -5804.2626499020      8.79E-06 Convergence criterion met
 Total energy in the final basis set = -5804.2626499020

                    Orbital Energies (a.u.)
 --------------------------------------------------------------

 Alpha MOs
 -- Occupied --
-19.190 -19.190 -19.154 -19.139 -10.334 -10.317 -10.246 -10.244
-10.242 -10.242 -10.241 -10.238 -10.237 -10.233 -10.232 -10.230
-10.229 -10.229 -10.226 -10.225 -10.224 -10.223 -10.222 -10.222
-10.222 -10.222 -10.221 -10.221 -10.221 -10.221 -10.220 -10.220
-10.220 -10.219 -10.219 -10.219 -10.219 -10.218 -10.218 -10.218
-10.217 -10.217 -10.217 -10.217 -10.217 -10.217 -10.217 -10.216
-10.216 -10.216 -10.216 -10.216 -10.216 -10.216 -10.216 -10.216
-10.216 -10.216 -10.216 -10.215 -10.215 -10.215 -10.215 -10.215
-10.215 -10.215 -10.215 -10.215 -10.215 -10.215 -10.215 -10.215
-10.214 -10.214 -10.214 -10.214 -10.214 -10.213 -10.213 -10.213
-10.213 -10.213 -10.213 -10.213 -10.213 -10.213 -10.212 -10.212
-10.212 -10.212 -10.212 -10.212 -10.212 -10.212 -10.212 -10.212
-10.212 -10.211 -10.211 -10.211 -10.211 -10.211 -10.211 -10.211
-10.211 -10.211 -10.210 -10.210 -10.210 -10.210 -10.210 -10.210
-10.210 -10.210 -10.210 -10.210 -10.209 -10.209 -10.209 -10.209
-10.209 -10.208 -10.208 -10.208 -10.208 -10.207 -10.207 -10.207
-10.206 -10.206 -10.206 -10.205 -10.205 -10.205 -10.203 -10.203
-10.203 -10.202 -10.201 -10.201 -10.200 -10.200 -10.200 -10.198
-10.196 -10.195 -10.195 -10.193  -1.096  -1.074  -1.020  -1.011
 -0.985  -0.980  -0.967  -0.965  -0.962  -0.962  -0.960  -0.958
 -0.936  -0.932  -0.928  -0.926  -0.926  -0.924  -0.923  -0.921
 -0.920  -0.915  -0.899  -0.897  -0.891  -0.889  -0.886  -0.878
 -0.876  -0.872  -0.857  -0.849  -0.843  -0.842  -0.840  -0.837
 -0.836  -0.833  -0.821  -0.821  -0.808  -0.807  -0.801  -0.797
 -0.796  -0.794  -0.793  -0.792  -0.791  -0.789  -0.784  -0.783
 -0.774  -0.770  -0.769  -0.767  -0.767  -0.766  -0.764  -0.762
 -0.751  -0.744  -0.742  -0.737  -0.732  -0.728  -0.717  -0.715
 -0.714  -0.713  -0.713  -0.712  -0.711  -0.709  -0.708  -0.708
 -0.708  -0.707  -0.704  -0.704  -0.701  -0.699  -0.672  -0.669
 -0.660  -0.658  -0.656  -0.655  -0.648  -0.646  -0.631  -0.629
 -0.628  -0.627  -0.627  -0.623  -0.622  -0.620  -0.619  -0.619
 -0.616  -0.616  -0.615  -0.612  -0.612  -0.611  -0.609  -0.608
 -0.606  -0.604  -0.603  -0.600  -0.568  -0.567  -0.566  -0.562
 -0.561  -0.560  -0.559  -0.557  -0.555  -0.554  -0.554  -0.553
 -0.538  -0.535  -0.534  -0.531  -0.527  -0.526  -0.525  -0.524
 -0.523  -0.522  -0.520  -0.517  -0.517  -0.515  -0.514  -0.513
 -0.505  -0.505  -0.504  -0.495  -0.491  -0.491  -0.488  -0.485
 -0.483  -0.483  -0.482  -0.480  -0.477  -0.476  -0.475  -0.474
 -0.472  -0.470  -0.469  -0.469  -0.468  -0.467  -0.465  -0.465
 -0.464  -0.463  -0.463  -0.462  -0.461  -0.460  -0.459  -0.457
 -0.456  -0.453  -0.452  -0.451  -0.448  -0.447  -0.444  -0.442
 -0.441  -0.441  -0.441  -0.438  -0.437  -0.437  -0.435  -0.432
 -0.431  -0.431  -0.428  -0.428  -0.426  -0.426  -0.425  -0.424
 -0.422  -0.422  -0.421  -0.421  -0.420  -0.418  -0.417  -0.417
 -0.416  -0.416  -0.415  -0.415  -0.415  -0.414  -0.413  -0.413
 -0.411  -0.411  -0.410  -0.407  -0.404  -0.400  -0.398  -0.396
 -0.395  -0.392  -0.392  -0.390  -0.390  -0.388  -0.388  -0.385
 -0.381  -0.379  -0.378  -0.373  -0.372  -0.369  -0.368  -0.366
 -0.364  -0.364  -0.364  -0.361  -0.361  -0.359  -0.359  -0.358
 -0.356  -0.356  -0.354  -0.353  -0.352  -0.351  -0.351  -0.350
 -0.349  -0.348  -0.348  -0.347  -0.347  -0.345  -0.345  -0.345
 -0.343  -0.343  -0.341  -0.339  -0.339  -0.336  -0.334  -0.334
 -0.333  -0.330  -0.329  -0.329  -0.327  -0.327  -0.325  -0.322
 -0.306  -0.302  -0.299  -0.296  -0.289  -0.288  -0.276  -0.273
 -0.271  -0.270  -0.269  -0.266  -0.266  -0.265  -0.265  -0.262
 -0.262  -0.261  -0.260  -0.259  -0.257  -0.257  -0.255  -0.251
 -0.251  -0.246  -0.244  -0.239  -0.223  -0.222  -0.212  -0.210
 -0.210  -0.209  -0.208  -0.205  -0.198  -0.195

          Ground-State Mulliken Net Atomic Charges

     Atom                 Charge (a.u.)
  ----------------------------------------
      1 O                    -0.474128
      2 C                    -0.081387
      3 H                     0.124194
      4 H                     0.121049
      5 H                     0.121150
      6 O                    -0.444726
      7 C                     0.586274
      8 C                    -0.240267
      9 H                     0.123383
     10 H                     0.119561
     11 C                    -0.186254
     12 H                     0.126652
     13 H                     0.108944
     14 C                    -0.181662
     15 H                     0.103215
     16 H                     0.121762
     17 C                     0.002244
     18 C                     0.097812
     19 C                    -0.104666
     20 H                     0.087871
     21 C                    -0.083346
     22 H                     0.089850
     23 C                    -0.077514
     24 H                     0.091411
     25 C                    -0.103339
     26 H                     0.087671
     27 C                    -0.104967
     28 H                     0.101906
     29 C                     0.012622
     30 C                     0.022304
     31 C                     0.051452
     32 C                    -0.011601
     33 C                    -0.006053
     34 C                    -0.034881
     35 C                     0.000938
     36 C                    -0.000490
     37 C                     0.003677
     38 C                     0.005985
     39 C                    -0.082752
     40 C                    -0.010637
     41 C                    -0.016751
     42 C                    -0.013871
     43 C                     0.012980
     44 C                    -0.000528
     45 C                    -0.097557
     46 C                     0.039721
     47 C                    -0.026551
     48 C                    -0.011042
     49 C                    -0.004245
     50 C                    -0.005646
     51 C                    -0.007490
     52 C                    -0.004043
     53 C                     0.034254
     54 C                    -0.006019
     55 C                     0.021247
     56 C                    -0.002215
     57 C                    -0.015824
     58 C                     0.024882
     59 C                    -0.012282
     60 C                     0.000956
     61 C                    -0.001759
     62 C                    -0.002813
     63 C                     0.010867
     64 C                    -0.014659
     65 C                     0.002805
     66 C                     0.021152
     67 C                    -0.020174
     68 C                     0.008021
     69 C                     0.011116
     70 C                     0.026000
     71 C                     0.024284
     72 C                     0.003685
     73 C                     0.034006
     74 C                    -0.002475
     75 C                     0.001050
     76 C                    -0.014064
     77 C                    -0.012967
     78 C                    -0.042413
     79 C                    -0.041877
     80 C                     0.010647
     81 C                    -0.004696
     82 C                     0.009274
     83 C                    -0.000269
     84 C                     0.001169
     85 C                    -0.013080
     86 C                     0.011320
     87 C                     0.000048
     88 C                     0.002564
     89 O                    -0.471217
     90 C                    -0.081613
     91 H                     0.121769
     92 H                     0.121555
     93 H                     0.126354
     94 O                    -0.457759
     95 C                     0.590432
     96 C                    -0.233839
     97 H                     0.131428
     98 H                     0.128580
     99 C                    -0.202918
    100 H                     0.104716
    101 H                     0.134482
    102 C                    -0.180710
    103 H                     0.109457
    104 H                     0.110630
    105 C                    -0.013344
    106 C                     0.103826
    107 C                    -0.109725
    108 H                     0.090335
    109 C                    -0.098250
    110 H                     0.093307
    111 C                    -0.082399
    112 H                     0.092515
    113 C                    -0.092258
    114 H                     0.088999
    115 C                    -0.088812
    116 H                     0.094392
    117 C                    -0.015658
    118 C                     0.025474
    119 C                    -0.007340
    120 C                     0.007524
    121 C                     0.018268
    122 C                     0.018844
    123 C                    -0.020413
    124 C                    -0.035822
    125 C                     0.038477
    126 C                     0.013468
    127 C                    -0.079083
    128 C                     0.004588
    129 C                     0.027362
    130 C                     0.003698
    131 C                    -0.028670
    132 C                    -0.006424
    133 C                    -0.101277
    134 C                    -0.006514
    135 C                     0.000444
    136 C                     0.000972
    137 C                    -0.004563
    138 C                     0.020902
    139 C                     0.006461
    140 C                     0.027394
    141 C                     0.008083
    142 C                     0.004284
    143 C                    -0.020243
    144 C                    -0.029519
    145 C                    -0.015975
    146 C                     0.002593
    147 C                    -0.001127
    148 C                     0.029655
    149 C                    -0.020273
    150 C                    -0.023660
    151 C                     0.004452
    152 C                     0.040799
    153 C                    -0.003057
    154 C                    -0.018147
    155 C                    -0.035582
    156 C                    -0.009663
    157 C                     0.002184
    158 C                     0.077255
    159 C                     0.001812
    160 C                    -0.002685
    161 C                     0.009874
    162 C                     0.004804
    163 C                    -0.009687
    164 C                     0.002090
    165 C                     0.033885
    166 C                    -0.015894
    167 C                    -0.020615
    168 C                    -0.006719
    169 C                     0.003391
    170 C                    -0.029919
    171 C                     0.016448
    172 C                    -0.004494
    173 C                     0.008499
    174 C                    -0.017926
    175 C                    -0.015103
    176 C                     0.012138
  ----------------------------------------
  Sum of atomic charges =     0.000000

                    Cartesian Multipole Moments
 -----------------------------------------------------------------
    Charge (ESU x 10^10)
                 0.0000
    Dipole Moment (Debye)
         X       2.9502      Y       4.0286      Z      -1.3551
       Tot       5.1740
    Quadrupole Moments (Debye-Ang)
        XX    -741.7338     XY     -10.9227     YY    -808.8958
        XZ      18.1911     YZ     -21.6124     ZZ    -805.9714

 Total job time:  842.28s(wall), 8038.85s(cpu)
        *  Thank you very much for using Q-Chem.  Have a nice day.  *
