 Q-Chem 4.4, Q-Chem, Inc., Pleasanton, CA (2016)
 Q-Chem 4.4.2 for Intel X86 Linux

User input:
--------------------------------------------------------------
$comment
SP
$end

$rem
MEM_STATIC 5000
MEM_TOTAL 20000
JOBTYPE SP
EXCHANGE B3LYP
BASIS 6-31g(d,p)
$end

$molecule
0 1
O         -10.541000      6.292000     -2.164000
C         -11.230000      7.408000     -2.822000
H         -10.561000      8.094000     -3.355000
H         -11.643000      7.909000     -1.938000
H         -12.115000      7.107000     -3.397000
O         -12.585000      5.502000     -1.370000
C         -11.341000      5.422000     -1.367000
C         -10.561000      4.371000     -0.684000
H          -9.806000      5.035000     -0.244000
H         -10.166000      3.751000     -1.498000
C         -11.348000      3.570000      0.412000
H         -11.258000      4.111000      1.362000
H         -12.400000      3.584000      0.101000
C         -10.783000      2.145000      0.645000
H         -10.671000      1.615000     -0.310000
H          -9.748000      2.274000      0.984000
C         -11.516000      1.301000      1.793000
C         -12.654000      0.629000      1.145000
C         -12.306000     -0.502000      0.386000
H         -11.269000     -0.806000      0.273000
C         -13.244000     -1.344000     -0.159000
H         -12.924000     -2.238000     -0.686000
C         -14.597000     -1.111000      0.104000
H         -15.420000     -1.695000     -0.298000
C         -14.913000      0.081000      0.726000
H         -15.956000      0.339000      0.882000
C         -13.967000      0.978000      1.344000
H         -14.258000      1.761000      2.037000
C         -13.766000      1.222000      6.768000
C         -13.220000     -1.051000      6.400000
C          -9.790000     -1.292000      9.340000
C          -9.630000      4.108000      6.076000
C          -7.298000     -0.889000      6.833000
C         -13.652000      0.160000      5.870000
C          -7.358000      2.748000      6.753000
C         -11.912000     -0.233000      9.564000
C         -10.045000     -1.444000      3.888000
C          -8.846000      3.618000      5.068000
C         -10.829000      0.529000      2.918000
C          -8.920000     -0.629000      3.681000
C          -7.641000      1.735000      4.616000
C          -6.924000      1.509000      7.280000
C         -12.381000     -0.846000      4.255000
C          -7.913000      0.042000      9.019000
C         -11.521000      1.779000      3.226000
C         -10.831000      2.985000      3.819000
C          -7.883000     -1.062000      8.134000
C         -10.556000      3.088000      9.306000
C          -9.845000      1.032000     10.104000
C         -11.243000      0.962000      9.929000
C         -12.927000     -0.146000      8.649000
C         -11.663000      3.547000      4.878000
C         -11.223000     -0.770000      3.444000
C         -12.881000     -1.191000      7.734000
C          -7.737000      2.886000      5.457000
C         -12.366000     -1.620000      5.418000
C          -7.885000     -0.674000      4.608000
C         -11.568000      4.055000      7.266000
C         -11.188000     -1.401000      9.267000
C          -9.342000      0.586000      3.220000
C         -12.675000      2.274000      8.519000
C          -7.114000      0.483000      5.060000
C         -10.067000     -2.315000      4.992000
C          -8.271000      2.450000      8.863000
C          -8.180000      3.323000      7.760000
C          -9.038000     -2.361000      5.925000
C         -11.047000      4.125000      6.021000
C          -9.442000      2.916000      3.991000
C         -10.482000      3.979000      8.184000
C         -12.691000      1.637000      4.156000
C         -10.972000     -2.529000      7.147000
C          -8.722000      1.777000      3.730000
C          -7.946000     -1.548000      5.761000
C         -12.626000      3.117000      7.420000
C          -8.991000     -1.930000      8.359000
C         -13.366000      1.070000      8.118000
C          -9.112000     -0.133000      9.785000
C         -11.230000     -2.404000      5.761000
C          -9.578000     -2.571000      7.251000
C         -13.113000      0.307000      4.596000
C         -12.814000      2.723000      5.100000
C          -9.428000      2.306000      9.715000
C         -11.741000     -1.958000      8.123000
C          -6.798000      0.383000      6.436000
C          -9.339000      4.045000      7.399000
C          -7.578000      1.327000      8.540000
C         -13.335000      2.490000      6.391000
C         -11.651000      2.237000      9.467000
O          -9.263000     13.310000      9.667000
C         -10.546000     14.004000      9.905000
H         -11.129000     14.267000      9.014000
H         -10.347000     14.911000     10.490000
H         -11.184000     13.350000     10.512000
O          -8.610000     14.629000      7.890000
C          -8.356000     13.762000      8.755000
C          -7.077000     13.066000      8.885000
H          -7.489000     12.050000      8.866000
H          -6.658000     13.060000      9.899000
C          -6.070000     13.134000      7.709000
H          -6.153000     14.169000      7.354000
H          -5.053000     12.955000      8.080000
C          -6.330000     12.125000      6.473000
H          -5.324000     11.933000      6.080000
H          -6.624000     11.133000      6.837000
C          -7.231000     12.663000      5.267000
C          -6.665000     13.866000      4.591000
C          -7.219000     15.157000      4.740000
H          -7.973000     15.271000      5.512000
C          -6.674000     16.204000      4.016000
H          -7.008000     17.205000      4.274000
C          -5.678000     15.994000      3.076000
H          -5.252000     16.847000      2.556000
C          -5.080000     14.710000      3.001000
H          -4.212000     14.401000      2.428000
C          -5.545000     13.636000      3.774000
H          -5.071000     12.660000      3.713000
C         -12.319000     13.676000      3.634000
C         -11.189000     12.735000      1.668000
C         -13.325000      8.781000      1.528000
C         -11.827000     10.525000      7.593000
C         -10.764000      6.960000      3.078000
C         -11.192000     13.453000      2.866000
C         -11.759000      7.860000      6.516000
C         -14.201000     11.041000      2.036000
C          -8.303000     10.198000      2.714000
C         -10.611000      9.859000      7.321000
C          -8.011000     11.545000      4.589000
C          -8.202000      9.291000      3.773000
C          -9.427000      8.374000      6.012000
C         -11.785000      7.138000      5.299000
C          -9.248000     12.406000      2.641000
C         -13.202000      7.438000      3.316000
C          -8.776000     12.516000      5.457000
C          -9.553000     11.902000      6.637000
C         -12.034000      7.232000      2.490000
C         -14.724000     10.473000      5.499000
C         -14.774000      9.222000      3.569000
C         -14.825000     10.571000      3.223000
C         -13.595000     12.285000      2.065000
C         -10.819000     12.554000      6.677000
C          -8.294000     11.510000      3.197000
C         -12.422000     12.111000      1.286000
C         -10.598000      8.624000      6.748000
C          -9.967000     12.060000      1.510000
C          -8.857000      8.061000      3.743000
C         -13.259000     12.060000      6.641000
C         -13.487000     10.145000      1.214000
C          -7.997000     10.074000      4.943000
C         -14.144000     12.599000      4.398000
C          -9.474000      7.644000      4.830000
C          -9.197000      9.821000      1.668000
C         -13.761000      8.179000      5.595000
C         -12.955000      8.566000      6.680000
C          -9.758000      8.555000      1.597000
C         -11.963000     11.876000      7.220000
C          -9.497000     10.479000      6.871000
C         -13.885000     10.807000      6.602000
C          -9.795000     13.380000      4.841000
C         -11.156000     10.147000      0.643000
C          -8.733000      9.616000      6.051000
C          -9.657000      7.647000      2.626000
C         -13.375000     12.936000      5.521000
C         -12.140000      8.099000      1.444000
C         -13.490000     12.993000      3.247000
C         -14.035000      8.339000      2.728000
C          -9.962000     10.780000      0.996000
C         -11.006000      8.765000      0.927000
C          -9.934000     13.317000      3.457000
C         -10.967000     13.431000      5.598000
C         -14.632000      9.183000      4.985000
C         -12.369000     10.819000      0.725000
C         -10.656000      7.002000      4.443000
C         -13.051000      9.863000      7.179000
C         -13.082000      7.351000      4.734000
C         -12.227000     13.627000      5.043000
C         -14.790000     11.317000      4.392000
$end

--------------------------------------------------------------

             Standard Nuclear Orientation (Angstroms)
    I     Atom           X                Y                Z
 ----------------------------------------------------------------
    1      O      -0.7126846399    -6.3394813404    -2.8925260814
    2      C      -1.8323002841    -7.1640478064    -2.4238130003
    3      H      -2.6041407126    -7.3418087047    -3.1820408131
    4      H      -2.2276859692    -6.5016978184    -1.6440767287
    5      H      -1.5231033375    -8.0648113818    -1.8784019358
    6      O       0.2762278404    -6.4907311668    -0.7873782014
    7      C       0.2732549795    -5.9839449248    -1.9262828801
    8      C       1.3243237417    -5.0961326581    -2.4615714344
    9      H       0.6514131952    -4.3531128220    -2.9083755521
   10      H       1.8451662677    -5.7080669365    -3.2080836593
   11      C       2.2662401163    -4.4592893921    -1.3801787223
   12      H       1.8032401640    -3.5293145589    -1.0279588282
   13      H       2.2958499464    -5.1717017638    -0.5463844608
   14      C       3.6651400658    -4.0883590858    -1.9366215667
   15      H       4.1033404259    -4.9398277415    -2.4736975137
   16      H       3.4968797809    -3.3501272572    -2.7300251486
   17      C       4.6506364501    -3.3842466640    -0.8875497989
   18      C       5.3392842052    -4.4736722820    -0.1766010722
   19      C       6.3759438641    -5.0805653785    -0.9069184834
   20      H       6.5995630560    -4.7753947856    -1.9254563404
   21      C       7.2290547101    -6.0030426650    -0.3527790240
   22      H       8.0517012407    -6.3979263439    -0.9415782816
   23      C       7.1098044604    -6.3041722026     1.0070619150
   24      H       7.7109397289    -7.0362811137     1.5387027064
   25      C       5.9987171687    -5.8059771185     1.6588983121
   26      H       5.8248863939    -6.0767395940     2.6958262476
   27      C       5.0966064251    -4.8109154749     1.1321179672
   28      H       4.3965041298    -4.2585217938     1.7507753822
   29      C       5.3021192521     0.2268475868     3.1565736500
   30      C       7.4941919028    -0.0006799210     2.2945308857
   31      C       7.7557194611     4.0675215426     0.3329190005
   32      C       2.0989689006     1.4317085232    -0.6120459845
   33      C       6.9760021673     2.8209613892    -2.9067801716
   34      C       6.2739242221    -0.5988072283     2.5898874700
   35      C       3.3574608529     2.9077975843    -2.5374737524
   36      C       6.8631421884     3.4586002430     2.4559031415
   37      C       7.4599550787    -1.0131552719    -1.6448776364
   38      C       2.4481876889     0.8084380670    -1.7784079250
   39      C       5.4681282022    -2.1174571216    -1.1335772171
   40      C       6.5572677650    -0.7010216029    -2.6746480896
   41      C       4.2015534248     0.7932775625    -3.2370020273
   42      C       4.6051764727     3.5025891524    -2.8385297650
   43      C       7.0520842566    -1.6025114821     0.6865360228
   44      C       6.2773404032     4.6092014983    -1.3778422882
   45      C       4.2976803056    -2.0560709789    -0.2603581937
   46      C       3.1032810410    -1.1727013787    -0.5346819919
   47      C       7.2975940187     3.7589574858    -1.8668296901
   48      C       3.4494059631     3.9455601187     1.4343278563
   49      C       5.5139706241     4.8590839749     0.9123049403
   50      C       5.6616781037     4.1250414674     2.1078354074
   51      C       6.7663309772     2.2145273248     3.0197552174
   52      C       2.6900156337    -0.5189085025     0.7027813724
   53      C       6.8304925375    -1.8648086251    -0.6869843880
   54      C       7.7243129404     1.3464661196     2.5097490388
   55      C       3.1352221417     1.5788447375    -2.7011664105
   56      C       7.9195036914    -0.5756656756     1.0673787906
   57      C       6.6120150135     0.5642844692    -3.2478690615
   58      C       2.3818307541     1.7219957247     1.6263631632
   59      C       7.9508766799     3.4244636402     1.5658035020
   60      C       5.3382285194    -1.2319768646    -2.3602282624
   61      C       4.3326608825     2.3215753263     2.9688180458
   62      C       5.4489445609     1.3497516563    -3.6573839210
   63      C       8.4212491232    -0.0601071958    -1.2633620735
   64      C       3.8939698693     4.4427946398    -0.8850769735
   65      C       2.9261822052     3.5189419323    -1.3288136208
   66      C       8.4779001493     1.2081658058    -1.8288001821
   67      C       2.1716585146     0.8036781948     0.6574015830
   68      C       3.0941040518    -0.4521108376    -1.7364852433
   69      C       2.4632380867     2.9983595994     1.0001330892
   70      C       4.5958084766    -1.6935650085     1.1657108842
   71      C       8.8775457099     1.5234248434     0.4078846784
   72      C       4.1563370494    -0.4536025150    -2.6056807528
   73      C       7.5830548548     1.5459086612    -2.8114042033
   74      C       3.3978322066     1.3826936333     2.5620656476
   75      C       8.2533717489     3.4674871280    -0.8503421295
   76      C       5.5414731573     1.6128828332     3.3215585091
   77      C       6.5962522217     4.8087250783     0.0054391702
   78      C       8.6525242071     0.1612113352     0.0965573886
   79      C       8.8354087730     2.1854518644    -0.8232776594
   80      C       5.9835376364    -1.5323017930     1.6002059412
   81      C       3.6046561745    -0.8284470320     1.7614029195
   82      C       4.1865854789     4.7394217239     0.4975572797
   83      C       8.4440803231     2.1277614454     1.5554312046
   84      C       5.6444029285     2.7278077015    -3.4004995835
   85      C       2.2547977905     2.7531249629    -0.3502159827
   86      C       4.9368179198     4.3745802074    -1.7531332704
   87      C       3.9807885519     0.1235361092     2.7333409491
   88      C       4.3819733429     3.6019326946     2.4148304190
   89      O      -6.7681116874     5.3205393401     1.3775898423
   90      C      -7.3524493468     5.0485710954     2.7076093059
   91      H      -7.6509291311     4.0117355169     2.9046392564
   92      H      -8.2176131259     5.7089558831     2.8485297353
   93      H      -6.6081884000     5.3080567546     3.4704669832
   94      O      -8.2740209844     4.0345595602     0.1933634303
   95      C      -7.3553985269     4.8827220520     0.2277606418
   96      C      -6.7374981188     5.4883416386    -0.9506200276
   97      H      -5.7016479589     5.2512750831    -0.6801114427
   98      H      -6.6731401390     6.5833113898    -0.9243085386
   99      C      -6.9721440900     4.8313117764    -2.3344198788
  100      H      -8.0257708222     4.5263061547    -2.3030944892
  101      H      -6.8302859412     5.5757521470    -3.1279284171
  102      C      -6.0569038735     3.5475385766    -2.6916854910
  103      H      -5.9663887914     3.5905360523    -3.7840715203
  104      H      -5.0201790834     3.7089414143    -2.3720813083
  105      C      -6.6344186767     2.1076658336    -2.3057785903
  106      C      -7.9255488002     1.7836999357    -2.9785118963
  107      C      -9.1594649168     1.7586196935    -2.2910382615
  108      H      -9.1569569655     2.1600102792    -1.2828838547
  109      C     -10.2981941203     1.3744273344    -2.9788623903
  110      H     -11.2491691260     1.5238532873    -2.4754347162
  111      C     -10.2356561682     0.9139056913    -4.2841304934
  112      H     -11.1562476215     0.6572010046    -4.7999784166
  113      C      -9.0053306179     1.0247539555    -4.9811934050
  114      H      -8.8046329519     0.8414110713    -6.0315932497
  115      C      -7.8409127641     1.4849114703    -4.3490414270
  116      H      -6.9073452059     1.5734753774    -4.8982053812
  117      C      -7.4419325493    -1.4074578740     1.7651462021
  118      C      -6.7488739788    -2.7853529042    -0.1449878517
  119      C      -2.6878094640    -3.9856954466     1.3660200197
  120      C      -4.0052747380     2.2420033354     2.6109369379
  121      C      -0.9159681624    -1.6192890825    -0.5149269020
  122      C      -7.3605524886    -1.6583751692     0.4086434205
  123      C      -1.4520144050     1.1532146330     1.8611510793
  124      C      -4.8330933099    -3.7660205479     2.5836160772
  125      C      -4.3297208719    -0.7818087395    -2.5930462713
  126      C      -3.4472085818     2.4570375068     1.3308906613
  127      C      -5.5287487644     1.1145273921    -1.9753575236
  128      C      -3.3446487383     0.1786422972    -2.3450589776
  129      C      -2.1610288168     1.6724132229    -0.4157255946
  130      C      -0.8360464583    -0.0031267833     1.3258875764
  131      C      -6.4681482153    -1.1224604401    -1.5515555531
  132      C      -1.2087300094    -2.3739534461     1.8459509431
  133      C      -6.3693289350     1.6423334222    -0.8367901030
  134      C      -5.6068375840     2.3692902848     0.2871608121
  135      C      -1.1519126061    -2.6601231041     0.4303893197
  136      C      -3.9390000772    -0.8523165250     4.4000543938
  137      C      -2.8561895517    -2.6950713493     3.5490684813
  138      C      -4.2233428503    -2.9628969015     3.5848362256
  139      C      -6.1076654314    -3.4290513563     2.1622721903
  140      C      -6.1673971193     1.9216853599     1.5179665801
  141      C      -5.5935533996    -0.2714711978    -2.2816029611
  142      C      -6.0789948748    -3.6687229680     0.7641371761
  143      C      -2.2690462074     1.8775627602     0.9705221865
  144      C      -6.1725608510    -2.4644271253    -1.3854485819
  145      C      -2.0808199607    -0.1785428018    -1.8781750241
  146      C      -5.5170223412     0.8672448294     3.6776192873
  147      C      -4.0597680136    -4.2689343904     1.5171538636
  148      C      -4.0371669245     1.3683509019    -1.9858570877
  149      C      -6.1848205869    -1.5111392595     3.6314713839
  150      C      -1.5327328911     0.5389873533    -0.9185406976
  151      C      -3.9844409787    -2.1193567185    -2.2363556502
  152      C      -1.7143164802    -0.4877079907     3.3432362875
  153      C      -2.0603654626     0.8499471502     3.0833154810
  154      C      -2.6945645075    -2.4773382429    -1.8749889151
  155      C      -5.3710585832     1.9149541639     2.7134031644
  156      C      -4.1759783808     2.5333350335     0.1946823760
  157      C      -4.2330230824     0.5125370393     4.1122850063
  158      C      -7.2128912572     0.7084915725    -0.0747828797
  159      C      -4.2654107993    -3.8371447282    -0.8346273193
  160      C      -3.4386162831     2.0543379719    -0.9133446778
  161      C      -1.7110505331    -1.5442791530    -1.6391775565
  162      C      -6.4754675823    -0.1564973047     3.4157667283
  163      C      -2.0957800656    -3.6127949006     0.1883734793
  164      C      -6.7179486303    -2.2730502406     2.6101882957
  165      C      -2.0990678666    -3.2044316377     2.4534363119
  166      C      -4.9441099234    -2.9956779636    -1.7190679240
  167      C      -2.8773115142    -3.5870602970    -0.9886343054
  168      C      -7.2587590060    -0.6128184981    -0.5115686933
  169      C      -7.1212194754     0.9222900864     1.3018508697
  170      C      -2.7063955300    -1.3485392981     3.9862803134
  171      C      -4.8458060739    -4.2238110797     0.3667499977
  172      C      -0.8487773566    -0.3290208142    -0.0595740813
  173      C      -3.3009391113     1.3312201272     3.4953583718
  174      C      -1.0095829867    -1.0370161353     2.2994176895
  175      C      -7.2794661846    -0.0882342887     2.2441032066
  176      C      -4.8678528618    -1.8454096854     4.0948667806
 ----------------------------------------------------------------

    9   -5804.2385729475      8.99E-06 Convergence criterion met
 Total energy in the final basis set = -5804.2385729475

                    Orbital Energies (a.u.)
 --------------------------------------------------------------

 Alpha MOs
 -- Occupied --
-19.198 -19.182 -19.138 -19.136 -10.324 -10.317 -10.252 -10.238
-10.238 -10.237 -10.236 -10.235 -10.233 -10.233 -10.232 -10.231
-10.229 -10.227 -10.226 -10.226 -10.225 -10.224 -10.223 -10.223
-10.221 -10.221 -10.221 -10.221 -10.220 -10.220 -10.220 -10.220
-10.220 -10.219 -10.219 -10.219 -10.219 -10.219 -10.219 -10.218
-10.217 -10.217 -10.217 -10.217 -10.217 -10.217 -10.217 -10.217
-10.217 -10.216 -10.216 -10.216 -10.216 -10.216 -10.216 -10.216
-10.215 -10.215 -10.215 -10.215 -10.215 -10.215 -10.215 -10.215
-10.215 -10.215 -10.215 -10.215 -10.214 -10.214 -10.214 -10.214
-10.214 -10.214 -10.214 -10.214 -10.214 -10.213 -10.213 -10.213
-10.213 -10.213 -10.213 -10.213 -10.213 -10.213 -10.212 -10.212
-10.212 -10.212 -10.212 -10.212 -10.211 -10.211 -10.211 -10.211
-10.211 -10.211 -10.211 -10.211 -10.211 -10.211 -10.210 -10.210
-10.210 -10.210 -10.210 -10.209 -10.209 -10.209 -10.209 -10.209
-10.209 -10.209 -10.209 -10.208 -10.208 -10.208 -10.208 -10.208
-10.207 -10.207 -10.207 -10.207 -10.206 -10.205 -10.205 -10.205
-10.205 -10.205 -10.204 -10.204 -10.204 -10.203 -10.203 -10.202
-10.199 -10.198 -10.197 -10.195 -10.195 -10.194 -10.193 -10.192
-10.192 -10.191 -10.190 -10.188  -1.087  -1.065  -1.000  -0.991
 -0.983  -0.981  -0.965  -0.965  -0.963  -0.962  -0.961  -0.956
 -0.934  -0.931  -0.929  -0.928  -0.925  -0.924  -0.922  -0.921
 -0.919  -0.915  -0.897  -0.895  -0.891  -0.888  -0.885  -0.879
 -0.871  -0.870  -0.853  -0.851  -0.843  -0.841  -0.841  -0.838
 -0.835  -0.832  -0.817  -0.816  -0.804  -0.803  -0.800  -0.799
 -0.795  -0.795  -0.793  -0.791  -0.791  -0.786  -0.785  -0.783
 -0.772  -0.770  -0.768  -0.766  -0.766  -0.764  -0.763  -0.763
 -0.749  -0.746  -0.742  -0.739  -0.733  -0.732  -0.716  -0.716
 -0.713  -0.712  -0.712  -0.712  -0.709  -0.708  -0.708  -0.707
 -0.706  -0.705  -0.704  -0.704  -0.702  -0.693  -0.675  -0.673
 -0.658  -0.657  -0.657  -0.653  -0.647  -0.647  -0.634  -0.630
 -0.629  -0.626  -0.624  -0.622  -0.621  -0.620  -0.617  -0.617
 -0.616  -0.614  -0.613  -0.612  -0.611  -0.608  -0.607  -0.605
 -0.604  -0.603  -0.600  -0.600  -0.564  -0.563  -0.562  -0.561
 -0.559  -0.557  -0.556  -0.555  -0.555  -0.552  -0.550  -0.543
 -0.537  -0.536  -0.532  -0.531  -0.528  -0.527  -0.526  -0.524
 -0.523  -0.520  -0.520  -0.519  -0.514  -0.513  -0.512  -0.510
 -0.508  -0.504  -0.503  -0.493  -0.492  -0.490  -0.485  -0.484
 -0.484  -0.483  -0.480  -0.480  -0.477  -0.477  -0.474  -0.472
 -0.471  -0.470  -0.470  -0.468  -0.467  -0.467  -0.466  -0.463
 -0.463  -0.462  -0.462  -0.461  -0.460  -0.457  -0.457  -0.454
 -0.452  -0.450  -0.449  -0.448  -0.447  -0.446  -0.446  -0.446
 -0.444  -0.441  -0.439  -0.438  -0.436  -0.435  -0.432  -0.432
 -0.429  -0.429  -0.428  -0.427  -0.427  -0.425  -0.425  -0.424
 -0.422  -0.421  -0.420  -0.419  -0.419  -0.417  -0.417  -0.416
 -0.416  -0.415  -0.414  -0.414  -0.412  -0.412  -0.411  -0.411
 -0.410  -0.409  -0.407  -0.406  -0.400  -0.400  -0.398  -0.396
 -0.394  -0.394  -0.390  -0.390  -0.385  -0.385  -0.381  -0.378
 -0.376  -0.374  -0.373  -0.369  -0.369  -0.366  -0.365  -0.364
 -0.363  -0.362  -0.361  -0.360  -0.359  -0.358  -0.357  -0.357
 -0.356  -0.354  -0.354  -0.352  -0.352  -0.350  -0.349  -0.348
 -0.348  -0.347  -0.346  -0.346  -0.345  -0.343  -0.343  -0.341
 -0.341  -0.340  -0.339  -0.337  -0.337  -0.337  -0.333  -0.332
 -0.331  -0.331  -0.330  -0.327  -0.326  -0.324  -0.320  -0.320
 -0.304  -0.304  -0.302  -0.289  -0.287  -0.285  -0.273  -0.272
 -0.269  -0.268  -0.267  -0.266  -0.265  -0.264  -0.263  -0.262
 -0.261  -0.260  -0.260  -0.258  -0.257  -0.253  -0.252  -0.251
 -0.247  -0.244  -0.240  -0.239  -0.223  -0.220  -0.212  -0.211
 -0.209  -0.208  -0.206  -0.202  -0.199  -0.196

          Ground-State Mulliken Net Atomic Charges

     Atom                 Charge (a.u.)
  ----------------------------------------
      1 O                    -0.502636
      2 C                    -0.081328
      3 H                     0.125433
      4 H                     0.125554
      5 H                     0.133372
      6 O                    -0.480898
      7 C                     0.593432
      8 C                    -0.260347
      9 H                     0.141488
     10 H                     0.144714
     11 C                    -0.185119
     12 H                     0.113112
     13 H                     0.141058
     14 C                    -0.194403
     15 H                     0.110636
     16 H                     0.101175
     17 C                     0.005287
     18 C                     0.094990
     19 C                    -0.085250
     20 H                     0.085336
     21 C                    -0.094650
     22 H                     0.087453
     23 C                    -0.071517
     24 H                     0.091432
     25 C                    -0.107025
     26 H                     0.081548
     27 C                    -0.106851
     28 H                     0.102530
     29 C                     0.004213
     30 C                     0.010811
     31 C                     0.028041
     32 C                     0.050818
     33 C                    -0.000901
     34 C                    -0.001130
     35 C                     0.004147
     36 C                     0.005220
     37 C                    -0.003113
     38 C                    -0.022520
     39 C                    -0.073667
     40 C                     0.008626
     41 C                    -0.017316
     42 C                    -0.007322
     43 C                    -0.004534
     44 C                    -0.012544
     45 C                    -0.076324
     46 C                     0.011805
     47 C                    -0.010905
     48 C                    -0.001351
     49 C                     0.004607
     50 C                     0.012568
     51 C                     0.006017
     52 C                    -0.005633
     53 C                     0.040597
     54 C                    -0.004638
     55 C                     0.014559
     56 C                    -0.014419
     57 C                    -0.003881
     58 C                    -0.026825
     59 C                    -0.029321
     60 C                     0.026962
     61 C                    -0.012020
     62 C                    -0.033231
     63 C                     0.005076
     64 C                     0.019610
     65 C                    -0.041338
     66 C                     0.002696
     67 C                     0.004536
     68 C                    -0.011998
     69 C                    -0.002995
     70 C                    -0.002048
     71 C                     0.014437
     72 C                     0.033419
     73 C                     0.008647
     74 C                     0.026599
     75 C                    -0.000504
     76 C                    -0.016093
     77 C                    -0.019665
     78 C                    -0.009586
     79 C                    -0.028003
     80 C                     0.014933
     81 C                    -0.009325
     82 C                    -0.028010
     83 C                     0.024544
     84 C                    -0.003061
     85 C                     0.010127
     86 C                     0.025642
     87 C                    -0.004784
     88 C                    -0.004758
     89 O                    -0.481229
     90 C                    -0.087718
     91 H                     0.141410
     92 H                     0.126580
     93 H                     0.131402
     94 O                    -0.514020
     95 C                     0.638232
     96 C                    -0.272305
     97 H                     0.143229
     98 H                     0.141043
     99 C                    -0.186041
    100 H                     0.134345
    101 H                     0.099043
    102 C                    -0.194793
    103 H                     0.106562
    104 H                     0.105919
    105 C                     0.021630
    106 C                     0.066366
    107 C                    -0.101452
    108 H                     0.135480
    109 C                    -0.100811
    110 H                     0.093931
    111 C                    -0.082750
    112 H                     0.092015
    113 C                    -0.098426
    114 H                     0.086615
    115 C                    -0.093045
    116 H                     0.092235
    117 C                    -0.012610
    118 C                    -0.005914
    119 C                    -0.006516
    120 C                    -0.049246
    121 C                    -0.013060
    122 C                     0.005025
    123 C                    -0.029129
    124 C                     0.012967
    125 C                    -0.017489
    126 C                     0.051176
    127 C                    -0.075703
    128 C                     0.003940
    129 C                    -0.018531
    130 C                    -0.011683
    131 C                     0.010036
    132 C                     0.008969
    133 C                    -0.061223
    134 C                    -0.020632
    135 C                    -0.005945
    136 C                    -0.005859
    137 C                    -0.009221
    138 C                     0.009014
    139 C                     0.004424
    140 C                     0.023784
    141 C                     0.036709
    142 C                    -0.028944
    143 C                     0.006622
    144 C                    -0.008496
    145 C                     0.019493
    146 C                    -0.013647
    147 C                    -0.004656
    148 C                     0.005300
    149 C                    -0.010177
    150 C                     0.014367
    151 C                     0.007265
    152 C                    -0.010813
    153 C                     0.010742
    154 C                     0.005864
    155 C                    -0.017826
    156 C                    -0.009261
    157 C                     0.014439
    158 C                     0.018597
    159 C                     0.022581
    160 C                    -0.007359
    161 C                    -0.025400
    162 C                     0.000059
    163 C                     0.047207
    164 C                     0.017615
    165 C                    -0.017261
    166 C                    -0.009099
    167 C                    -0.045742
    168 C                     0.017136
    169 C                     0.041756
    170 C                    -0.011743
    171 C                     0.000601
    172 C                     0.017761
    173 C                     0.012843
    174 C                     0.006209
    175 C                    -0.013577
    176 C                    -0.003208
  ----------------------------------------
  Sum of atomic charges =     0.000000

                    Cartesian Multipole Moments
 -----------------------------------------------------------------
    Charge (ESU x 10^10)
                 0.0000
    Dipole Moment (Debye)
         X      -2.0879      Y       1.7288      Z      -2.1817
       Tot       3.4796
    Quadrupole Moments (Debye-Ang)
        XX    -793.7531     XY     -28.9227     YY    -791.7653
        XZ       5.3713     YZ       9.2760     ZZ    -793.0785

 Total job time:  875.36s(wall), 8358.53s(cpu)
        *  Thank you very much for using Q-Chem.  Have a nice day.  *
