 Q-Chem 4.4, Q-Chem, Inc., Pleasanton, CA (2016)
 Q-Chem 4.4.2 for Intel X86 Linux

User input:
--------------------------------------------------------------
$comment
SP
$end

$rem
MEM_STATIC 5000
MEM_TOTAL 20000
JOBTYPE SP
EXCHANGE B3LYP
BASIS 6-31g(d,p)
$end

$molecule
0 1
O         -23.213000     11.870000      5.867000
C         -24.498000     12.520000      5.777000
H         -25.337000     11.836000      5.597000
H         -24.405000     13.266000      4.978000
H         -24.776000     13.084000      6.675000
O         -22.449000     11.984000      3.645000
C         -22.345000     11.613000      4.786000
C         -21.223000     10.732000      5.238000
H         -21.821000     10.025000      5.826000
H         -20.559000     11.251000      5.939000
C         -20.417000     10.059000      4.146000
H         -21.062000      9.615000      3.378000
H         -19.938000     10.862000      3.572000
C         -19.346000      9.048000      4.647000
H         -18.611000      8.871000      3.852000
H         -18.819000      9.704000      5.352000
C         -19.840000      7.726000      5.196000
C         -20.703000      7.002000      4.214000
C         -22.102000      7.349000      4.135000
H         -22.543000      8.090000      4.795000
C         -22.994000      6.746000      3.217000
H         -24.043000      7.024000      3.237000
C         -22.592000      5.796000      2.292000
H         -23.318000      5.337000      1.627000
C         -21.219000      5.494000      2.315000
H         -20.777000      4.735000      1.676000
C         -20.299000      6.064000      3.231000
H         -19.264000      5.749000      3.135000
C         -21.420000      4.621000      9.543000
C         -20.191000      3.009000      8.255000
C         -16.550000      2.830000     10.983000
C         -18.819000      8.846000     10.443000
C         -14.717000      5.170000      9.226000
C         -21.067000      4.150000      8.314000
C         -16.087000      8.075000     10.719000
C         -18.898000      2.921000     11.538000
C         -17.380000      5.054000      6.141000
C         -17.940000      9.048000      9.359000
C         -18.820000      6.913000      5.926000
C         -16.650000      6.221000      6.417000
C         -16.193000      8.202000      8.319000
C         -15.240000      6.983000     10.653000
C         -19.692000      4.477000      6.601000
C         -15.373000      4.697000     11.512000
C         -20.003000      7.454000      6.688000
C         -19.693000      8.402000      7.848000
C         -14.962000      4.240000     10.273000
C         -18.893000      6.209000     12.837000
C         -17.427000      4.435000     12.658000
C         -18.699000      3.964000     12.495000
C         -20.034000      2.929000     10.710000
C         -20.515000      8.087000      8.983000
C         -18.733000      5.399000      6.017000
C         -19.640000      2.468000      9.432000
C         -16.537000      8.724000      9.524000
C         -19.288000      3.287000      7.152000
C         -15.550000      6.161000      7.281000
C         -20.374000      7.470000     11.325000
C         -17.866000      2.376000     10.750000
C         -17.457000      7.330000      6.372000
C         -20.680000      5.099000     11.618000
C         -15.259000      7.110000      8.217000
C         -16.979000      3.848000      6.713000
C         -16.576000      6.639000     12.434000
C         -16.974000      7.817000     11.731000
C         -15.938000      3.784000      7.588000
C         -20.131000      8.320000     10.292000
C         -18.357000      8.771000      8.031000
C         -19.273000      7.459000     12.198000
C         -20.928000      6.469000      7.403000
C         -17.474000      2.362000      8.347000
C         -17.227000      8.304000      7.354000
C         -15.143000      4.930000      7.879000
C         -21.032000      6.278000     11.054000
C         -15.688000      3.063000      9.906000
C         -20.882000      4.056000     10.708000
C         -16.344000      3.862000     11.976000
C         -17.947000      2.944000      7.189000
C         -16.201000      2.864000      8.573000
C         -20.731000      5.035000      7.300000
C         -21.247000      6.892000      8.712000
C         -17.563000      5.810000     12.892000
C         -18.327000      2.116000      9.472000
C         -14.809000      6.562000      9.354000
C         -18.348000      8.274000     11.644000
C         -15.538000      6.135000     11.668000
C         -21.506000      5.983000      9.752000
C         -19.651000      5.036000     12.578000
O          -9.263000     13.310000      9.667000
C         -10.546000     14.004000      9.905000
H         -11.129000     14.267000      9.014000
H         -10.347000     14.911000     10.490000
H         -11.184000     13.350000     10.512000
O          -8.610000     14.629000      7.890000
C          -8.356000     13.762000      8.755000
C          -7.077000     13.066000      8.885000
H          -7.489000     12.050000      8.866000
H          -6.658000     13.060000      9.899000
C          -6.070000     13.134000      7.709000
H          -6.153000     14.169000      7.354000
H          -5.053000     12.955000      8.080000
C          -6.330000     12.125000      6.473000
H          -5.324000     11.933000      6.080000
H          -6.624000     11.133000      6.837000
C          -7.231000     12.663000      5.267000
C          -6.665000     13.866000      4.591000
C          -7.219000     15.157000      4.740000
H          -7.973000     15.271000      5.512000
C          -6.674000     16.204000      4.016000
H          -7.008000     17.205000      4.274000
C          -5.678000     15.994000      3.076000
H          -5.252000     16.847000      2.556000
C          -5.080000     14.710000      3.001000
H          -4.212000     14.401000      2.428000
C          -5.545000     13.636000      3.774000
H          -5.071000     12.660000      3.713000
C         -12.319000     13.676000      3.634000
C         -11.189000     12.735000      1.668000
C         -13.325000      8.781000      1.528000
C         -11.827000     10.525000      7.593000
C         -10.764000      6.960000      3.078000
C         -11.192000     13.453000      2.866000
C         -11.759000      7.860000      6.516000
C         -14.201000     11.041000      2.036000
C          -8.303000     10.198000      2.714000
C         -10.611000      9.859000      7.321000
C          -8.011000     11.545000      4.589000
C          -8.202000      9.291000      3.773000
C          -9.427000      8.374000      6.012000
C         -11.785000      7.138000      5.299000
C          -9.248000     12.406000      2.641000
C         -13.202000      7.438000      3.316000
C          -8.776000     12.516000      5.457000
C          -9.553000     11.902000      6.637000
C         -12.034000      7.232000      2.490000
C         -14.724000     10.473000      5.499000
C         -14.774000      9.222000      3.569000
C         -14.825000     10.571000      3.223000
C         -13.595000     12.285000      2.065000
C         -10.819000     12.554000      6.677000
C          -8.294000     11.510000      3.197000
C         -12.422000     12.111000      1.286000
C         -10.598000      8.624000      6.748000
C          -9.967000     12.060000      1.510000
C          -8.857000      8.061000      3.743000
C         -13.259000     12.060000      6.641000
C         -13.487000     10.145000      1.214000
C          -7.997000     10.074000      4.943000
C         -14.144000     12.599000      4.398000
C          -9.474000      7.644000      4.830000
C          -9.197000      9.821000      1.668000
C         -13.761000      8.179000      5.595000
C         -12.955000      8.566000      6.680000
C          -9.758000      8.555000      1.597000
C         -11.963000     11.876000      7.220000
C          -9.497000     10.479000      6.871000
C         -13.885000     10.807000      6.602000
C          -9.795000     13.380000      4.841000
C         -11.156000     10.147000      0.643000
C          -8.733000      9.616000      6.051000
C          -9.657000      7.647000      2.626000
C         -13.375000     12.936000      5.521000
C         -12.140000      8.099000      1.444000
C         -13.490000     12.993000      3.247000
C         -14.035000      8.339000      2.728000
C          -9.962000     10.780000      0.996000
C         -11.006000      8.765000      0.927000
C          -9.934000     13.317000      3.457000
C         -10.967000     13.431000      5.598000
C         -14.632000      9.183000      4.985000
C         -12.369000     10.819000      0.725000
C         -10.656000      7.002000      4.443000
C         -13.051000      9.863000      7.179000
C         -13.082000      7.351000      4.734000
C         -12.227000     13.627000      5.043000
C         -14.790000     11.317000      4.392000
$end

--------------------------------------------------------------

             Standard Nuclear Orientation (Angstroms)
    I     Atom           X                Y                Z
 ----------------------------------------------------------------
    1      O      -5.1851440760     5.7329116337     4.7176454873
    2      C      -5.8838978292     6.6588457583     5.5756747346
    3      H      -6.8406196356     7.0130923937     5.1714845485
    4      H      -5.1887390798     7.4880479186     5.7566280171
    5      H      -6.1236115162     6.2546122498     6.5660870825
    6      O      -3.7955057237     7.1682710530     3.4756210965
    7      C      -4.2579252227     6.0822539540     3.7145207985
    8      C      -3.9202526030     4.8753093880     2.8968344181
    9      H      -4.9389641996     4.4832432709     2.7886316326
   10      H      -3.3532939316     4.1390357557     3.4783127095
   11      C      -3.2423266135     5.1343208191     1.5670380309
   12      H      -3.7358360926     5.9383681547     1.0076264863
   13      H      -2.2780705212     5.6054180031     1.7950810789
   14      C      -3.0250883984     3.8729919460     0.6827190661
   15      H      -2.2588214159     4.0848131999    -0.0732873280
   16      H      -2.5040449292     3.2457504117     1.4176828480
   17      C      -4.2460841894     3.2667381294     0.0233659072
   18      C      -4.9842598489     4.2651477609    -0.8082252804
   19      C      -5.9266238506     5.1448123493    -0.1586167058
   20      H      -6.1362065505     5.0698045708     0.9042148543
   21      C      -6.6500230748     6.1444090160    -0.8510739727
   22      H      -7.3734007306     6.7459056567    -0.3097685521
   23      C      -6.4887510404     6.3865460957    -2.2057288976
   24      H      -7.0884400666     7.1440564154    -2.7022499822
   25      C      -5.5276296067     5.5791529894    -2.8391513170
   26      H      -5.3327372930     5.6311297973    -3.9064288805
   27      C      -4.7968999105     4.5566540478    -2.1827322241
   28      H      -4.0785005224     4.0117092451    -2.7882101190
   29      C      -8.4366038375    -0.4023719536     0.1282957813
   30      C      -7.8090633120    -0.4942971370    -2.1880961651
   31      C      -5.8140072818    -4.5837953041    -2.0248105954
   32      C      -4.5562568466    -1.1151517361     3.2684674665
   33      C      -2.6218548322    -3.3642305102    -1.5294698523
   34      C      -7.9844174760     0.2591509379    -0.9738865804
   35      C      -2.8005114551    -2.9601094253     1.9847501124
   36      C      -7.8555323505    -3.8142116760    -0.9907281841
   37      C      -3.8512836200     0.4251850604    -2.3961211597
   38      C      -3.3957576618    -0.6249511149     2.6348698078
   39      C      -4.0474491192     1.9092644021    -0.5699958615
   40      C      -2.7788818173     0.2004280804    -1.5183947367
   41      C      -2.0542156961    -0.9377583391     0.9168064228
   42      C      -2.6226237494    -3.6778963150     0.8154054475
   43      C      -6.1581513079     1.0433397843    -1.9647058052
   44      C      -4.1190127343    -5.0182640470    -0.5794423394
   45      C      -4.9899464463     2.0646669620     0.5963500703
   46      C      -4.6491899761     1.2730588199     1.8603301245
   47      C      -3.6096806560    -4.3736350517    -1.6920632508
   48      C      -6.6683998695    -3.8291741856     2.3392661996
   49      C      -6.2832361349    -4.9830668274     0.3775185939
   50      C      -7.4935427578    -4.3567410947     0.2812483741
   51      C      -8.5087110402    -2.5718909622    -1.0690917175
   52      C      -5.8347488930     0.6775978137     2.4107937879
   53      C      -4.7427998296     1.3171327727    -1.7840442637
   54      C      -8.0026147337    -1.8885772771    -2.1995738873
   55      C      -2.4665639965    -1.5685413327     2.0459329410
   56      C      -6.5859782216     0.0228847583    -2.7762183878
   57      C      -2.1918167700    -1.0689402732    -1.4539384485
   58      C      -6.7724531551    -1.4695675964     3.0400198353
   59      C      -7.0293118594    -3.8736305379    -2.1295091548
   60      C      -2.8803579833     0.9925378387    -0.4024109919
   61      C      -8.2690259724    -2.2942364535     1.3425755568
   62      C      -1.7940866089    -1.6705966959    -0.2958373009
   63      C      -4.2960773451    -0.6156511408    -3.2092875291
   64      C      -4.4473119890    -4.5417888821     1.8151031324
   65      C      -3.9716452910    -3.4059676632     2.5389458993
   66      C      -3.7624248692    -1.8652862956    -3.1254483083
   67      C      -5.8296807962    -0.4955034234     3.1449830019
   68      C      -3.4429489853     0.5662999936     1.8648725509
   69      C      -6.1636187550    -2.7313014992     3.1486441034
   70      C      -6.4503973361     1.6486319079     0.4200746258
   71      C      -5.9460778685    -2.1448834746    -3.4585338769
   72      C      -2.5347899535     0.3925943424     0.8168307963
   73      C      -2.6522507849    -2.1415501090    -2.2762052288
   74      C      -7.8001314007    -1.2930743200     2.1235065801
   75      C      -4.6544804976    -4.0808998129    -2.6246903848
   76      C      -8.6485439511    -1.7879648790     0.0950146578
   77      C      -5.4632430639    -5.1622486616    -0.7458011441
   78      C      -5.6753034284    -0.7924453951    -3.4267621312
   79      C      -4.7401005742    -2.8126227240    -3.3057200673
   80      C      -6.9551555041     1.1819069338    -0.8578772475
   81      C      -6.9240076889     0.8905625432     1.5133244014
   82      C      -5.7996948339    -4.6709795172     1.6552769126
   83      C      -7.1200315204    -2.6949861186    -2.8478212568
   84      C      -2.0602576646    -2.9838612104    -0.3037293344
   85      C      -4.8375962150    -2.4980009390     3.2669702291
   86      C      -3.6033274081    -4.6090594161     0.7190279969
   87      C      -7.9107400543    -0.0995492980     1.3684113892
   88      C      -7.7719284618    -3.6058066625     1.4732953020
   89      O       5.6290637495    -3.9222082715     3.7441627077
   90      C       4.8480318527    -3.2470988724     4.8017947209
   91      H       4.7884609793    -2.1537234157     4.7391814500
   92      H       5.2632788955    -3.5333157370     5.7765381743
   93      H       3.8165153785    -3.6175840564     4.7579370863
   94      O       7.3720717231    -2.4103211742     3.7397345456
   95      C       6.8787511622    -3.5059666668     3.3924223248
   96      C       7.5374001253    -4.4754481293     2.5186693637
   97      H       6.7143217017    -4.5706438233     1.8004488624
   98      H       7.5493106857    -5.5041336402     2.9000579559
   99      C       8.7662181691    -4.0180613193     1.6925625174
  100      H       9.3164719035    -3.3660547908     2.3826692588
  101      H       9.3862329702    -4.8865711570     1.4371348206
  102      C       8.4607995692    -3.2097881126     0.3262569506
  103      H       9.3108609611    -3.4627775099    -0.3192978455
  104      H       7.6222929220    -3.6649346138    -0.2148015168
  105      C       8.3778485518    -1.6161895987     0.4224021818
  106      C       9.6402046062    -0.9816011284     0.9002051382
  107      C       9.7705583625    -0.4162214814     2.1882857852
  108      H       8.9655799808    -0.6197172184     2.8869239534
  109      C      10.9553452537     0.2186183250     2.5209544528
  110      H      11.0883038648     0.4941804408     3.5633116508
  111      C      11.9641565653     0.4046690560     1.5896108733
  112      H      12.8923480323     0.8748484374     1.9008614957
  113      C      11.8491964299    -0.2402346255     0.3315296323
  114      H      12.5879966372    -0.3154938865    -0.4595103776
  115      C      10.7005314732    -0.9633736699    -0.0218380793
  116      H      10.6302270755    -1.4602046691    -0.9857827093
  117      C       5.2614827454     2.5864735268     1.9078276475
  118      C       6.3528420623     3.3000410164    -0.1723870720
  119      C       2.7381406488     3.2519292924    -2.8459298440
  120      C       2.8565333419    -1.8327827966     1.1791727810
  121      C       3.4348940637     0.1400619360    -4.2978520990
  122      C       6.3151701220     2.5639761522     1.0140050809
  123      C       1.9606214124    -1.8376894608    -1.5528769512
  124      C       2.9631992060     3.9955891749    -0.4944710148
  125      C       7.1270123368     0.2042925113    -2.5549240768
  126      C       3.6076753916    -2.4379074278     0.1467940705
  127      C       7.4177482300    -1.0276871498    -0.6022344561
  128      C       6.4276310070    -0.9824700723    -2.7932333837
  129      C       4.2672056721    -2.4503581626    -2.0635060875
  130      C       1.9788865723    -1.0729472720    -2.7436266178
  131      C       7.4572571204     1.4334805464    -0.5168727632
  132      C       1.6103740330     1.3313438630    -3.0809108400
  133      C       6.9900824733    -1.0338994987     0.8464040107
  134      C       5.6811209706    -1.7820880687     1.1625663870
  135      C       2.7242678036     1.3400669194    -4.0018346024
  136      C       1.1499435862     1.2985364425     0.9290923366
  137      C       1.1201979437     2.4824902264    -1.0431575548
  138      C       1.8463734676     3.2096004881    -0.1018298883
  139      C       4.0516402109     4.0561994563     0.3583100665
  140      C       4.9570356611    -0.9696152819     2.0818315475
  141      C       7.6177468398     0.2231804342    -1.2459027272
  142      C       5.1700784638     4.0346598623    -0.5144315449
  143      C       3.2011857246    -2.3714254598    -1.1509228858
  144      C       7.0678748830     2.5974357916    -1.1567381087
  145      C       5.3065148766    -1.0131109587    -3.6208714436
  146      C       2.7458279629     0.1379363493     2.3696194900
  147      C       3.3711605886     4.0141458827    -1.8441076915
  148      C       6.5995703440    -1.7807975536    -1.6282766905
  149      C       3.0093293731     2.5572111643     1.9424528056
  150      C       4.2532782295    -1.7056388149    -3.2371466285
  151      C       6.5530740893     1.3786819165    -3.1266630146
  152      C       0.7850843527     0.0147806090    -1.1727805662
  153      C       1.2798721911    -1.1433254552    -0.5477962951
  154      C       5.5039718336     1.3221743124    -4.0314886043
  155      C       3.5232941492    -1.0403707290     2.1332897240
  156      C       4.9589559653    -2.4449272638     0.1033483233
  157      C       1.6399690218     0.0926510518     1.5102992680
  158      C       6.7804760054     0.2474461600     1.5381636737
  159      C       5.4492716115     3.2951946838    -2.8054451712
  160      C       5.4229571840    -2.4429032735    -1.2329015682
  161      C       4.8137364323     0.1592094155    -4.2856415882
  162      C       3.4375222904     1.3715830965     2.5564527325
  163      C       3.3959461223     2.5063593398    -3.7881731272
  164      C       4.1019824868     3.2752542844     1.4971705907
  165      C       1.5608976396     2.5077567586    -2.3989733167
  166      C       6.6140415696     2.6064247466    -2.4592647005
  167      C       4.8073749800     2.5575090538    -3.8334863308
  168      C       7.0812705803     1.4102961337     0.8338565231
  169      C       5.6100540332     0.2475713792     2.2993117482
  170      C       0.7619258678     1.2604027733    -0.4068523005
  171      C       4.7644933236     4.0533907761    -1.8642255465
  172      C       3.1047944868    -0.9984332076    -3.6111818162
  173      C       1.6728631181    -1.0889175553     0.7875028893
  174      C       1.2102260830     0.1037119587    -2.4763494076
  175      C       4.8599696110     1.3921534754     2.5469933676
  176      C       1.8625124316     2.4864162532     1.0818280422
 ----------------------------------------------------------------

    9   -5804.2035830893      8.70E-06 Convergence criterion met
 Total energy in the final basis set = -5804.2035830893

                    Orbital Energies (a.u.)
 --------------------------------------------------------------

 Alpha MOs
 -- Occupied --
-19.197 -19.186 -19.144 -19.138 -10.324 -10.322 -10.252 -10.247
-10.245 -10.243 -10.240 -10.238 -10.235 -10.233 -10.231 -10.230
-10.229 -10.229 -10.225 -10.224 -10.222 -10.221 -10.221 -10.220
-10.219 -10.219 -10.219 -10.218 -10.217 -10.217 -10.217 -10.217
-10.217 -10.217 -10.217 -10.217 -10.217 -10.216 -10.216 -10.216
-10.216 -10.216 -10.216 -10.215 -10.215 -10.215 -10.215 -10.215
-10.215 -10.215 -10.215 -10.214 -10.214 -10.214 -10.214 -10.214
-10.214 -10.214 -10.214 -10.214 -10.214 -10.214 -10.214 -10.213
-10.213 -10.213 -10.213 -10.213 -10.213 -10.213 -10.213 -10.213
-10.212 -10.212 -10.212 -10.212 -10.212 -10.212 -10.212 -10.212
-10.212 -10.211 -10.211 -10.211 -10.211 -10.211 -10.211 -10.211
-10.210 -10.210 -10.210 -10.210 -10.210 -10.210 -10.209 -10.209
-10.209 -10.209 -10.209 -10.209 -10.209 -10.209 -10.209 -10.208
-10.208 -10.208 -10.208 -10.208 -10.208 -10.208 -10.207 -10.207
-10.207 -10.207 -10.207 -10.206 -10.206 -10.206 -10.206 -10.206
-10.205 -10.205 -10.205 -10.205 -10.204 -10.204 -10.204 -10.204
-10.204 -10.203 -10.203 -10.203 -10.203 -10.203 -10.202 -10.202
-10.201 -10.201 -10.200 -10.199 -10.199 -10.198 -10.197 -10.196
-10.194 -10.192 -10.190 -10.190  -1.086  -1.081  -1.017  -0.999
 -0.983  -0.982  -0.965  -0.965  -0.964  -0.962  -0.961  -0.960
 -0.936  -0.931  -0.929  -0.928  -0.926  -0.924  -0.924  -0.921
 -0.920  -0.919  -0.900  -0.895  -0.895  -0.890  -0.885  -0.884
 -0.873  -0.870  -0.850  -0.849  -0.842  -0.840  -0.838  -0.836
 -0.835  -0.831  -0.821  -0.816  -0.807  -0.804  -0.799  -0.797
 -0.795  -0.795  -0.793  -0.792  -0.790  -0.790  -0.784  -0.782
 -0.772  -0.768  -0.766  -0.766  -0.765  -0.764  -0.763  -0.762
 -0.749  -0.747  -0.742  -0.741  -0.736  -0.732  -0.716  -0.715
 -0.713  -0.711  -0.711  -0.711  -0.709  -0.708  -0.707  -0.707
 -0.706  -0.706  -0.705  -0.704  -0.703  -0.702  -0.674  -0.673
 -0.659  -0.658  -0.654  -0.653  -0.649  -0.647  -0.633  -0.632
 -0.627  -0.626  -0.625  -0.622  -0.621  -0.620  -0.616  -0.615
 -0.615  -0.613  -0.612  -0.610  -0.609  -0.608  -0.606  -0.605
 -0.604  -0.602  -0.601  -0.599  -0.565  -0.564  -0.563  -0.561
 -0.559  -0.559  -0.558  -0.555  -0.554  -0.554  -0.552  -0.549
 -0.538  -0.536  -0.535  -0.531  -0.526  -0.525  -0.524  -0.524
 -0.522  -0.522  -0.518  -0.518  -0.514  -0.512  -0.512  -0.511
 -0.508  -0.506  -0.503  -0.501  -0.492  -0.491  -0.489  -0.485
 -0.483  -0.483  -0.481  -0.479  -0.479  -0.476  -0.473  -0.471
 -0.471  -0.471  -0.470  -0.469  -0.468  -0.467  -0.466  -0.465
 -0.464  -0.463  -0.462  -0.461  -0.461  -0.459  -0.459  -0.457
 -0.456  -0.454  -0.451  -0.448  -0.446  -0.445  -0.444  -0.443
 -0.441  -0.441  -0.438  -0.438  -0.436  -0.435  -0.434  -0.431
 -0.430  -0.428  -0.427  -0.426  -0.426  -0.425  -0.424  -0.422
 -0.422  -0.420  -0.420  -0.419  -0.418  -0.418  -0.417  -0.416
 -0.416  -0.415  -0.415  -0.414  -0.412  -0.412  -0.411  -0.410
 -0.410  -0.409  -0.407  -0.406  -0.405  -0.400  -0.399  -0.395
 -0.394  -0.393  -0.389  -0.389  -0.387  -0.385  -0.382  -0.381
 -0.377  -0.376  -0.373  -0.372  -0.369  -0.369  -0.366  -0.365
 -0.364  -0.363  -0.362  -0.360  -0.360  -0.358  -0.357  -0.356
 -0.355  -0.353  -0.353  -0.352  -0.351  -0.350  -0.349  -0.348
 -0.347  -0.347  -0.346  -0.345  -0.344  -0.343  -0.342  -0.341
 -0.340  -0.339  -0.338  -0.337  -0.337  -0.336  -0.333  -0.332
 -0.330  -0.329  -0.329  -0.327  -0.325  -0.325  -0.324  -0.319
 -0.313  -0.303  -0.302  -0.298  -0.287  -0.285  -0.273  -0.273
 -0.269  -0.268  -0.267  -0.267  -0.265  -0.264  -0.263  -0.261
 -0.260  -0.259  -0.257  -0.256  -0.255  -0.255  -0.252  -0.251
 -0.247  -0.247  -0.245  -0.239  -0.221  -0.220  -0.211  -0.209
 -0.208  -0.204  -0.203  -0.202  -0.199  -0.196

          Ground-State Mulliken Net Atomic Charges

     Atom                 Charge (a.u.)
  ----------------------------------------
      1 O                    -0.499850
      2 C                    -0.082205
      3 H                     0.120948
      4 H                     0.130264
      5 H                     0.126052
      6 O                    -0.445127
      7 C                     0.598865
      8 C                    -0.255953
      9 H                     0.132958
     10 H                     0.137278
     11 C                    -0.195149
     12 H                     0.123593
     13 H                     0.114945
     14 C                    -0.194524
     15 H                     0.119444
     16 H                     0.109598
     17 C                     0.031751
     18 C                     0.090577
     19 C                    -0.104958
     20 H                     0.085358
     21 C                    -0.091061
     22 H                     0.087840
     23 C                    -0.069805
     24 H                     0.098140
     25 C                    -0.095455
     26 H                     0.087558
     27 C                    -0.116918
     28 H                     0.091366
     29 C                     0.002717
     30 C                    -0.022703
     31 C                    -0.019009
     32 C                    -0.017947
     33 C                    -0.000085
     34 C                    -0.013789
     35 C                    -0.013738
     36 C                     0.005173
     37 C                    -0.012617
     38 C                    -0.024125
     39 C                    -0.114167
     40 C                     0.025738
     41 C                     0.007524
     42 C                     0.012571
     43 C                     0.007727
     44 C                    -0.008440
     45 C                    -0.078688
     46 C                     0.024084
     47 C                    -0.001635
     48 C                     0.007670
     49 C                     0.034835
     50 C                    -0.014030
     51 C                    -0.032822
     52 C                     0.010385
     53 C                     0.032099
     54 C                     0.009460
     55 C                    -0.011390
     56 C                    -0.003361
     57 C                     0.015859
     58 C                     0.009139
     59 C                     0.002948
     60 C                     0.051825
     61 C                     0.020801
     62 C                     0.017957
     63 C                     0.001820
     64 C                    -0.037524
     65 C                    -0.005457
     66 C                     0.015301
     67 C                    -0.005423
     68 C                     0.013458
     69 C                    -0.005673
     70 C                     0.025420
     71 C                    -0.008684
     72 C                    -0.011056
     73 C                    -0.043371
     74 C                     0.006751
     75 C                    -0.012095
     76 C                     0.008514
     77 C                     0.006647
     78 C                    -0.015874
     79 C                     0.009304
     80 C                     0.020908
     81 C                    -0.006043
     82 C                     0.006494
     83 C                     0.022966
     84 C                    -0.015763
     85 C                     0.004957
     86 C                     0.023360
     87 C                    -0.005042
     88 C                    -0.036411
     89 O                    -0.480829
     90 C                    -0.087408
     91 H                     0.141244
     92 H                     0.126405
     93 H                     0.131541
     94 O                    -0.514125
     95 C                     0.637675
     96 C                    -0.272018
     97 H                     0.143159
     98 H                     0.140922
     99 C                    -0.186076
    100 H                     0.134428
    101 H                     0.098868
    102 C                    -0.194706
    103 H                     0.106415
    104 H                     0.105918
    105 C                     0.021472
    106 C                     0.067088
    107 C                    -0.102261
    108 H                     0.135452
    109 C                    -0.100695
    110 H                     0.093831
    111 C                    -0.082559
    112 H                     0.091896
    113 C                    -0.098211
    114 H                     0.086650
    115 C                    -0.092986
    116 H                     0.092088
    117 C                    -0.012658
    118 C                    -0.005461
    119 C                    -0.011623
    120 C                    -0.048988
    121 C                    -0.008984
    122 C                     0.005349
    123 C                    -0.035007
    124 C                     0.012392
    125 C                    -0.017258
    126 C                     0.051171
    127 C                    -0.075713
    128 C                     0.004140
    129 C                    -0.018197
    130 C                    -0.015984
    131 C                     0.009911
    132 C                     0.009203
    133 C                    -0.062663
    134 C                    -0.019739
    135 C                    -0.005352
    136 C                    -0.008279
    137 C                    -0.020089
    138 C                     0.005992
    139 C                     0.004866
    140 C                     0.023759
    141 C                     0.036745
    142 C                    -0.029821
    143 C                     0.008139
    144 C                    -0.008938
    145 C                     0.020331
    146 C                    -0.014284
    147 C                    -0.004977
    148 C                     0.004924
    149 C                    -0.011016
    150 C                     0.012907
    151 C                     0.006924
    152 C                    -0.005810
    153 C                     0.019189
    154 C                     0.009640
    155 C                    -0.017820
    156 C                    -0.009428
    157 C                     0.014309
    158 C                     0.017951
    159 C                     0.026474
    160 C                    -0.007962
    161 C                    -0.020366
    162 C                    -0.000295
    163 C                     0.036824
    164 C                     0.017845
    165 C                    -0.020996
    166 C                    -0.008000
    167 C                    -0.043440
    168 C                     0.017266
    169 C                     0.041534
    170 C                    -0.008956
    171 C                     0.001369
    172 C                     0.013926
    173 C                     0.013195
    174 C                     0.005696
    175 C                    -0.013846
    176 C                    -0.006176
  ----------------------------------------
  Sum of atomic charges =     0.000000

                    Cartesian Multipole Moments
 -----------------------------------------------------------------
    Charge (ESU x 10^10)
                 0.0000
    Dipole Moment (Debye)
         X       1.4438      Y      -0.9754      Z       1.6378
       Tot       2.3913
    Quadrupole Moments (Debye-Ang)
        XX    -771.9983     XY     -41.7236     YY    -803.7554
        XZ      -6.4668     YZ      -4.4840     ZZ    -790.3533

 Total job time:  884.83s(wall), 8397.68s(cpu)
        *  Thank you very much for using Q-Chem.  Have a nice day.  *
