 Q-Chem 4.4, Q-Chem, Inc., Pleasanton, CA (2016)
 Q-Chem 4.4.2 for Intel X86 Linux

User input:
--------------------------------------------------------------
$comment
SP
$end

$rem
MEM_STATIC 5000
MEM_TOTAL 20000
JOBTYPE SP
EXCHANGE B3LYP
BASIS 6-31g(d,p)
$end

$molecule
0 1
O         -12.846000      2.577000     -3.105000
C         -11.464000      2.249000     -3.363000
H         -11.378000      1.611000     -4.252000
H         -11.020000      1.831000     -2.452000
H         -10.830000      3.131000     -3.518000
O         -13.175000      0.406000     -2.559000
C         -13.584000      1.561000     -2.685000
C         -14.962000      1.991000     -2.626000
H         -15.518000      1.225000     -2.071000
H         -15.250000      2.175000     -3.670000
C         -15.187000      3.409000     -2.019000
H         -14.628000      3.491000     -1.080000
H         -14.836000      4.256000     -2.622000
C         -16.684000      3.630000     -1.679000
H         -17.221000      3.748000     -2.629000
H         -17.162000      2.729000     -1.275000
C         -16.858000      4.828000     -0.734000
C         -16.418000      4.553000      0.715000
C         -17.284000      3.885000      1.562000
H         -18.246000      3.492000      1.246000
C         -17.009000      3.603000      2.899000
H         -17.702000      3.106000      3.572000
C         -15.792000      4.019000      3.415000
H         -15.594000      3.889000      4.475000
C         -14.884000      4.706000      2.580000
H         -13.885000      4.962000      2.920000
C         -15.147000      4.946000      1.218000
H         -14.427000      5.457000      0.586000
C         -20.430000      8.822000      0.353000
C         -18.351000      9.942000      0.759000
C         -18.475000     12.619000     -2.984000
C         -20.538000      6.676000     -4.205000
C         -16.384000     10.439000     -4.796000
C         -19.133000      8.775000      0.853000
C         -19.010000      8.278000     -5.974000
C         -20.205000     11.983000     -1.466000
C         -15.529000      8.263000     -1.516000
C         -19.277000      6.246000     -4.560000
C         -16.717000      6.217000     -1.359000
C         -15.541000      7.686000     -2.773000
C         -17.192000      7.025000     -4.956000
C         -18.236000      9.394000     -6.108000
C         -17.092000      8.138000      0.287000
C         -18.459000     11.562000     -4.986000
C         -18.061000      5.686000     -1.033000
C         -19.018000      5.461000     -2.215000
C         -17.195000     11.530000     -4.477000
C         -21.856000      9.855000     -3.706000
C         -20.613000     11.801000     -3.835000
C         -20.975000     11.554000     -2.515000
C         -20.187000     11.132000     -0.264000
C         -20.244000      5.977000     -1.931000
C         -16.209000      7.437000     -0.609000
C         -18.896000     11.107000      0.205000
C         -18.453000      7.070000     -5.415000
C         -17.078000      9.553000      0.425000
C         -15.570000      8.517000     -3.925000
C         -21.828000      7.630000     -2.605000
C         -18.910000     12.412000     -1.675000
C         -16.288000      6.500000     -2.696000
C         -21.739000      9.598000     -1.251000
C         -16.374000      8.161000     -5.018000
C         -15.574000      9.699000     -1.439000
C         -20.367000     10.073000     -5.546000
C         -20.326000      8.632000     -5.674000
C         -15.500000     10.553000     -2.525000
C         -21.041000      6.498000     -2.948000
C         -18.480000      5.683000     -3.508000
C         -21.798000      8.424000     -3.765000
C         -18.867000      6.558000     -0.157000
C         -16.745000     11.540000     -0.894000
C         -17.234000      6.261000     -3.758000
C         -15.548000      9.934000     -3.806000
C         -21.792000      8.229000     -1.375000
C         -17.183000     12.150000     -3.273000
C         -20.952000      9.972000     -0.205000
C         -19.276000     12.262000     -4.078000
C         -16.324000     10.344000     -0.441000
C         -16.355000     11.643000     -2.216000
C         -18.340000      7.662000      0.611000
C         -20.131000      6.628000     -0.647000
C         -21.122000     10.739000     -4.532000
C         -18.088000     11.929000     -0.563000
C         -16.901000      9.308000     -5.566000
C         -21.021000      7.834000     -4.754000
C         -19.033000     10.509000     -5.786000
C         -20.971000      7.690000     -0.341000
C         -21.814000     10.373000     -2.403000
O          -9.263000     13.310000      9.667000
C         -10.546000     14.004000      9.905000
H         -11.129000     14.267000      9.014000
H         -10.347000     14.911000     10.490000
H         -11.184000     13.350000     10.512000
O          -8.610000     14.629000      7.890000
C          -8.356000     13.762000      8.755000
C          -7.077000     13.066000      8.885000
H          -7.489000     12.050000      8.866000
H          -6.658000     13.060000      9.899000
C          -6.070000     13.134000      7.709000
H          -6.153000     14.169000      7.354000
H          -5.053000     12.955000      8.080000
C          -6.330000     12.125000      6.473000
H          -5.324000     11.933000      6.080000
H          -6.624000     11.133000      6.837000
C          -7.231000     12.663000      5.267000
C          -6.665000     13.866000      4.591000
C          -7.219000     15.157000      4.740000
H          -7.973000     15.271000      5.512000
C          -6.674000     16.204000      4.016000
H          -7.008000     17.205000      4.274000
C          -5.678000     15.994000      3.076000
H          -5.252000     16.847000      2.556000
C          -5.080000     14.710000      3.001000
H          -4.212000     14.401000      2.428000
C          -5.545000     13.636000      3.774000
H          -5.071000     12.660000      3.713000
C         -12.319000     13.676000      3.634000
C         -11.189000     12.735000      1.668000
C         -13.325000      8.781000      1.528000
C         -11.827000     10.525000      7.593000
C         -10.764000      6.960000      3.078000
C         -11.192000     13.453000      2.866000
C         -11.759000      7.860000      6.516000
C         -14.201000     11.041000      2.036000
C          -8.303000     10.198000      2.714000
C         -10.611000      9.859000      7.321000
C          -8.011000     11.545000      4.589000
C          -8.202000      9.291000      3.773000
C          -9.427000      8.374000      6.012000
C         -11.785000      7.138000      5.299000
C          -9.248000     12.406000      2.641000
C         -13.202000      7.438000      3.316000
C          -8.776000     12.516000      5.457000
C          -9.553000     11.902000      6.637000
C         -12.034000      7.232000      2.490000
C         -14.724000     10.473000      5.499000
C         -14.774000      9.222000      3.569000
C         -14.825000     10.571000      3.223000
C         -13.595000     12.285000      2.065000
C         -10.819000     12.554000      6.677000
C          -8.294000     11.510000      3.197000
C         -12.422000     12.111000      1.286000
C         -10.598000      8.624000      6.748000
C          -9.967000     12.060000      1.510000
C          -8.857000      8.061000      3.743000
C         -13.259000     12.060000      6.641000
C         -13.487000     10.145000      1.214000
C          -7.997000     10.074000      4.943000
C         -14.144000     12.599000      4.398000
C          -9.474000      7.644000      4.830000
C          -9.197000      9.821000      1.668000
C         -13.761000      8.179000      5.595000
C         -12.955000      8.566000      6.680000
C          -9.758000      8.555000      1.597000
C         -11.963000     11.876000      7.220000
C          -9.497000     10.479000      6.871000
C         -13.885000     10.807000      6.602000
C          -9.795000     13.380000      4.841000
C         -11.156000     10.147000      0.643000
C          -8.733000      9.616000      6.051000
C          -9.657000      7.647000      2.626000
C         -13.375000     12.936000      5.521000
C         -12.140000      8.099000      1.444000
C         -13.490000     12.993000      3.247000
C         -14.035000      8.339000      2.728000
C          -9.962000     10.780000      0.996000
C         -11.006000      8.765000      0.927000
C          -9.934000     13.317000      3.457000
C         -10.967000     13.431000      5.598000
C         -14.632000      9.183000      4.985000
C         -12.369000     10.819000      0.725000
C         -10.656000      7.002000      4.443000
C         -13.051000      9.863000      7.179000
C         -13.082000      7.351000      4.734000
C         -12.227000     13.627000      5.043000
C         -14.790000     11.317000      4.392000
$end

--------------------------------------------------------------

             Standard Nuclear Orientation (Angstroms)
    I     Atom           X                Y                Z
 ----------------------------------------------------------------
    1      O       3.9285022996    -6.5221647640     3.1592544963
    2      C       3.2159330581    -7.2667092716     4.1701800882
    3      H       3.9173824429    -7.8140386903     4.8129555296
    4      H       2.4546700516    -7.8889887830     3.6853833837
    5      H       2.5902656913    -6.6358111317     4.8139291723
    6      O       4.4924682486    -8.4997797784     2.2155494242
    7      C       4.5016529955    -7.2681317223     2.2274113889
    8      C       5.3056870218    -6.4112281426     1.3868695757
    9      H       5.5864787987    -6.9952685010     0.5014488634
   10      H       6.1137721207    -6.0485217694     2.0366222669
   11      C       4.6380888405    -5.0600419716     0.9888663097
   12      H       3.6217379359    -5.2537793250     0.6277255110
   13      H       4.5075788857    -4.3274171058     1.7953692283
   14      C       5.4134757591    -4.3850588952    -0.1724359650
   15      H       6.3588499591    -4.0099156526     0.2402723696
   16      H       5.7768399886    -5.1081620783    -0.9131040576
   17      C       4.5641922434    -3.2878340591    -0.8307065544
   18      C       3.4202324637    -3.8230666289    -1.7103133522
   19      C       3.7048780269    -4.2382814903    -2.9987862941
   20      H       4.7087173972    -4.2585361299    -3.4130872331
   21      C       2.7508840270    -4.7150736779    -3.8961617218
   22      H       2.9699933388    -5.0116576647    -4.9180306215
   23      C       1.4326097451    -4.7761277713    -3.4732831158
   24      H       0.6612581941    -5.0596367666    -4.1834545277
   25      C       1.1047013533    -4.3581375913    -2.1650712461
   26      H       0.1021853210    -4.4809594296    -1.7663064019
   27      C       2.0791411086    -3.9225089816    -1.2471889673
   28      H       1.8105698466    -3.6254662496    -0.2379416772
   29      C       5.1584867299     1.5519678819    -3.3037452188
   30      C       3.0801329412     1.8747919493    -2.1558309579
   31      C       4.7050004186     4.7664292938     1.0363459089
   32      C       8.7926199776    -0.0154659571    -0.1846795416
   33      C       5.0528577456     2.1876368357     3.4105509840
   34      C       3.9381109997     1.0311253641    -2.8868229853
   35      C       8.3323176628     1.1393055455     2.3619208502
   36      C       5.1661017108     4.6082791805    -1.3011942811
   37      C       3.0476547823    -0.4352451757     1.1031602434
   38      C       8.2589893457    -0.8067400954     0.8103931123
   39      C       4.4272576857    -1.9745750778    -0.0584198363
   40      C       4.0326597210    -0.8595162356     1.9765910297
   41      C       6.7909631398    -0.7336799994     2.5280785554
   42      C       7.5212562334     1.9413690271     3.1111614852
   43      C       3.0505639552    -0.1950084942    -1.2741661696
   44      C       6.2919867526     3.9494565359     2.4290191975
   45      C       5.3377260367    -2.0551326143    -1.2242375172
   46      C       6.8344185266    -1.8412603840    -0.9453679061
   47      C       5.0845913423     3.4528648519     2.8206746869
   48      C       8.4180322424     3.3622159278    -0.9216429824
   49      C       7.0129361604     4.7868493776     0.2379821872
   50      C       6.5097497985     4.5564349013    -1.0380137588
   51      C       4.6570461754     3.6950820363    -2.3386249716
   52      C       7.3614441446    -0.9745053078    -1.8514405499
   53      C       3.2118783365    -1.0660816932    -0.1387740997
   54      C       3.4537017475     3.1996826734    -1.8983879228
   55      C       7.9604954115    -0.2303927362     2.1017885176
   56      C       2.5119129616     1.1161163165    -1.1633878417
   57      C       4.5240546542     0.0340592807     2.9658128533
   58      C       8.3944039848     1.1650560993    -2.0772988107
   59      C       4.2479889031     4.5988479550    -0.2707929397
   60      C       4.8825586820    -1.7311325415     1.2776698816
   61      C       6.8596151559     2.8606548190    -2.7727333742
   62      C       5.8968890300     0.0660212810     3.2523529152
   63      C       2.5828781926     0.9207275990     1.2271382897
   64      C       8.4619532507     3.2372396709     1.4516873528
   65      C       8.9634396883     1.8825037079     1.3636656322
   66      C       2.9523593258     1.7956630471     2.2331997460
   67      C       8.4076559754    -0.1285063411    -1.4899636443
   68      C       7.2036962721    -1.6953196940     0.4158492925
   69      C       8.8606398065     2.0049870110    -1.0506166679
   70      C       5.0812463316    -1.0473673520    -2.2711488491
   71      C       2.4923502684     2.9893901578     0.3496493081
   72      C       6.2997858154    -1.5448837584     1.4691369624
   73      C       3.9911568499     1.3461124368     3.0964667689
   74      C       7.4026577071     1.6044257294    -2.9117990496
   75      C       4.1197624205     3.9222784025     1.9942873259
   76      C       5.5229859830     2.8554848476    -3.0311066034
   77      C       6.0766565785     4.7965444058     1.3253761135
   78      C       2.2802362422     1.6857749843     0.0879985494
   79      C       3.0218906306     3.0754971740     1.6234489731
   80      C       3.8771860663    -0.2557068355    -2.3705546029
   81      C       6.2647505270    -0.5168192898    -2.6718140126
   82      C       8.1461625371     4.0222204306     0.3002280908
   83      C       3.1120262973     3.7716320353    -0.6840964364
   84      C       6.2595264953     1.3674844270     3.5137525106
   85      C       9.1213118079     1.2817697952     0.1065164127
   86      C       7.5336929728     3.2241956248     2.5312311033
   87      C       6.3342962446     0.7320104649    -3.2740329404
   88      C       7.4010392109     3.7169730202    -1.8204030056
   89      O     -10.0488951844     1.2085131758    -2.8430900594
   90      C      -9.5078793700     2.2654703052    -3.7231539862
   91      H      -8.6125493605     2.7867099368    -3.3631089606
   92      H     -10.3023344093     2.9978708062    -3.9152625408
   93      H      -9.2369189211     1.8091618761    -4.6831394301
   94      O      -9.7964332768     2.3895568544    -0.8770539930
   95      C     -10.2540122838     1.4131906018    -1.5108997101
   96      C     -11.0247750616     0.3225022568    -0.9163573025
   97      H     -10.4042135535    -0.4923685777    -1.3078288056
   98      H     -11.9620996168     0.0859894756    -1.4352767399
   99      C     -11.0136313643     0.1572546792     0.6244924813
  100      H     -11.0526894534     1.1884204682     0.9977358086
  101      H     -11.9128735495    -0.3826775800     0.9466844237
  102      C      -9.7316423695    -0.5918852871     1.2637659188
  103      H     -10.1348946328    -1.0714645573     2.1641771225
  104      H      -9.4448090358    -1.4580354817     0.6550734848
  105      C      -8.4973380456     0.3217253752     1.7081637065
  106      C      -8.8448161801     1.3235511310     2.7570417266
  107      C      -8.9496636625     2.7063160984     2.4872898958
  108      H      -8.9406568447     2.9946369799     1.4412086625
  109      C      -9.2032066552     3.5730253976     3.5370236437
  110      H      -9.4424309054     4.6005295865     3.2779331188
  111      C      -9.2471309734     3.1292045791     4.8488200209
  112      H      -9.4852039818     3.8350171440     5.6391584711
  113      C      -9.2225093295     1.7316942524     5.0901572568
  114      H      -9.3775129537     1.2044473934     6.0256884568
  115      C      -9.0482316068     0.8085983322     4.0486433599
  116      H      -9.0407532001    -0.2597951739     4.2472696162
  117      C      -4.1764853023     3.1131297387    -0.0578757184
  118      C      -3.4371201149     2.0310625256     2.0181798362
  119      C      -0.6031535588    -0.9569905902     0.2136344264
  120      C      -6.0509258123    -0.3653877119    -3.2564590174
  121      C      -2.8304885943    -3.6583862294     0.3503905620
  122      C      -4.4180906861     2.5979994485     1.2014691996
  123      C      -4.5854471781    -2.7924724128    -2.7785361919
  124      C      -1.0097446624     1.4101394902    -0.3900367232
  125      C      -5.3518503634    -1.4051356345     2.6393330222
  126      C      -6.5316968154    -1.3706985412    -2.3878938909
  127      C      -7.1668391441    -0.4069951629     1.5787533105
  128      C      -5.8115800446    -2.3856254921     1.7552406858
  129      C      -6.0772474539    -3.0406232983    -0.8629712425
  130      C      -3.5706589002    -3.3517996049    -1.9658819954
  131      C      -5.3251964970     0.9885388391     2.4314145620
  132      C      -1.4044533650    -2.4198041026    -1.2809615888
  133      C      -7.4781489135     0.6807759310     0.5780883942
  134      C      -7.4843724634     0.2566019471    -0.9028446559
  135      C      -1.6436307664    -2.9273912602     0.0509864011
  136      C      -2.6568697474     0.7387409722    -3.4600082189
  137      C      -1.0082849115    -0.2448633725    -2.1922970799
  138      C      -1.1736256469     1.0695860208    -1.7598583749
  139      C      -1.8450864173     2.3735645673     0.1481354365
  140      C      -6.8168200541     1.2863320971    -1.6263704667
  141      C      -6.0734668682    -0.2201415830     2.4667852953
  142      C      -2.1275671431     1.8901127956     1.4517937598
  143      C      -5.7926351364    -2.4826200450    -2.1211704311
  144      C      -3.9915739480     1.0050266755     2.8015727014
  145      C      -4.9452822390    -3.3195119104     1.1893703212
  146      C      -4.9126017021     1.6378939337    -3.1913908318
  147      C      -0.7148707599     0.4055936534     0.5545441592
  148      C      -6.9423271582    -1.8243711487     1.0991777869
  149      C      -3.0327869200     2.6406318303    -1.9401482111
  150      C      -5.0672773489    -3.6036273805    -0.0914663557
  151      C      -3.9385373256    -1.3671725313     2.8306078507
  152      C      -2.6840210659    -1.7437241390    -3.2711940832
  153      C      -4.0628694975    -1.7465313216    -3.5457830893
  154      C      -3.1015757958    -2.3624369014     2.3495026320
  155      C      -6.1396064598     0.9816614616    -2.8559340282
  156      C      -7.2285187051    -1.1188737480    -1.2570006477
  157      C      -4.0539575845     0.6735784470    -3.7356627505
  158      C      -6.6358614243     1.8864610203     0.5436173788
  159      C      -2.0038301350    -0.3167853590     2.4456703559
  160      C      -6.9806001427    -2.1092633843    -0.2779553195
  161      C      -3.5419825464    -3.3411601337     1.4883123345
  162      C      -4.3939294533     2.5997775164    -2.2743351783
  163      C      -1.1761249712    -1.9839568118     0.9160937777
  164      C      -2.8892552999     2.8966155861    -0.5904726980
  165      C      -0.7231231075    -1.2438129445    -1.2156326041
  166      C      -3.2702033469    -0.1517933667     3.0113650888
  167      C      -1.8589931636    -1.6895669400     2.1176871511
  168      C      -5.6407681398     1.9983876097     1.5110923366
  169      C      -6.3017877719     2.2561065798    -0.7606030608
  170      C      -1.9939702099    -0.4564190879    -3.1974884407
  171      C      -1.4066506903     0.7102927292     1.7258340470
  172      C      -3.7850466099    -3.7779950097    -0.6248866983
  173      C      -4.7156148468    -0.5421166856    -3.7982407957
  174      C      -2.3608621329    -2.6692751704    -2.3084534161
  175      C      -5.1192196469     2.9094582839    -1.0903077473
  176      C      -2.1718523319     1.6527747883    -2.5264980209
 ----------------------------------------------------------------

    9   -5804.2087190833      8.47E-06 Convergence criterion met
 Total energy in the final basis set = -5804.2087190833

                    Orbital Energies (a.u.)
 --------------------------------------------------------------

 Alpha MOs
 -- Occupied --
-19.198 -19.195 -19.139 -19.125 -10.325 -10.306 -10.253 -10.243
-10.238 -10.237 -10.237 -10.236 -10.233 -10.233 -10.231 -10.225
-10.225 -10.225 -10.223 -10.222 -10.222 -10.221 -10.221 -10.220
-10.220 -10.220 -10.220 -10.220 -10.220 -10.220 -10.220 -10.219
-10.218 -10.218 -10.218 -10.218 -10.218 -10.218 -10.218 -10.218
-10.217 -10.217 -10.217 -10.217 -10.217 -10.217 -10.217 -10.217
-10.217 -10.216 -10.216 -10.216 -10.216 -10.216 -10.216 -10.215
-10.215 -10.215 -10.215 -10.215 -10.215 -10.214 -10.214 -10.214
-10.214 -10.214 -10.213 -10.213 -10.213 -10.213 -10.213 -10.213
-10.213 -10.213 -10.212 -10.212 -10.212 -10.212 -10.212 -10.212
-10.212 -10.212 -10.212 -10.212 -10.212 -10.212 -10.211 -10.211
-10.211 -10.211 -10.211 -10.211 -10.211 -10.211 -10.211 -10.211
-10.211 -10.210 -10.210 -10.210 -10.210 -10.210 -10.210 -10.209
-10.209 -10.209 -10.209 -10.209 -10.209 -10.208 -10.208 -10.208
-10.208 -10.208 -10.207 -10.207 -10.207 -10.207 -10.206 -10.206
-10.206 -10.206 -10.206 -10.205 -10.205 -10.205 -10.205 -10.205
-10.204 -10.204 -10.204 -10.204 -10.203 -10.203 -10.202 -10.200
-10.198 -10.198 -10.197 -10.197 -10.195 -10.195 -10.194 -10.194
-10.194 -10.193 -10.193 -10.190  -1.106  -1.087  -1.000  -1.000
 -0.984  -0.983  -0.967  -0.965  -0.964  -0.963  -0.962  -0.961
 -0.938  -0.931  -0.929  -0.929  -0.925  -0.925  -0.923  -0.922
 -0.921  -0.920  -0.898  -0.896  -0.893  -0.891  -0.888  -0.885
 -0.874  -0.871  -0.853  -0.851  -0.844  -0.843  -0.841  -0.838
 -0.833  -0.832  -0.821  -0.817  -0.810  -0.805  -0.799  -0.799
 -0.796  -0.796  -0.793  -0.792  -0.791  -0.790  -0.786  -0.783
 -0.773  -0.772  -0.766  -0.766  -0.764  -0.764  -0.763  -0.763
 -0.749  -0.749  -0.744  -0.743  -0.733  -0.732  -0.720  -0.717
 -0.716  -0.714  -0.713  -0.712  -0.712  -0.709  -0.709  -0.708
 -0.707  -0.704  -0.704  -0.703  -0.701  -0.699  -0.675  -0.671
 -0.661  -0.658  -0.656  -0.654  -0.647  -0.645  -0.634  -0.634
 -0.629  -0.626  -0.623  -0.622  -0.622  -0.621  -0.617  -0.616
 -0.616  -0.614  -0.613  -0.612  -0.611  -0.609  -0.606  -0.604
 -0.604  -0.603  -0.602  -0.600  -0.568  -0.566  -0.565  -0.564
 -0.563  -0.560  -0.559  -0.556  -0.555  -0.554  -0.553  -0.550
 -0.537  -0.536  -0.534  -0.532  -0.529  -0.527  -0.526  -0.524
 -0.523  -0.522  -0.520  -0.519  -0.514  -0.513  -0.512  -0.512
 -0.508  -0.507  -0.504  -0.503  -0.494  -0.492  -0.488  -0.485
 -0.484  -0.483  -0.483  -0.480  -0.479  -0.478  -0.477  -0.474
 -0.472  -0.472  -0.470  -0.469  -0.469  -0.468  -0.466  -0.464
 -0.464  -0.463  -0.462  -0.462  -0.460  -0.460  -0.458  -0.457
 -0.455  -0.453  -0.451  -0.450  -0.449  -0.446  -0.446  -0.444
 -0.442  -0.441  -0.439  -0.437  -0.436  -0.436  -0.434  -0.432
 -0.431  -0.429  -0.427  -0.426  -0.426  -0.425  -0.425  -0.423
 -0.422  -0.422  -0.420  -0.420  -0.419  -0.418  -0.417  -0.416
 -0.416  -0.415  -0.414  -0.413  -0.412  -0.411  -0.410  -0.410
 -0.409  -0.408  -0.406  -0.405  -0.402  -0.400  -0.398  -0.396
 -0.396  -0.395  -0.390  -0.389  -0.387  -0.385  -0.381  -0.381
 -0.378  -0.377  -0.373  -0.372  -0.369  -0.368  -0.366  -0.365
 -0.364  -0.363  -0.363  -0.361  -0.361  -0.359  -0.358  -0.357
 -0.356  -0.355  -0.354  -0.354  -0.353  -0.352  -0.350  -0.349
 -0.348  -0.348  -0.347  -0.346  -0.344  -0.343  -0.343  -0.342
 -0.341  -0.340  -0.339  -0.339  -0.338  -0.337  -0.334  -0.332
 -0.332  -0.331  -0.330  -0.328  -0.326  -0.323  -0.321  -0.319
 -0.308  -0.304  -0.303  -0.300  -0.289  -0.285  -0.274  -0.272
 -0.269  -0.268  -0.268  -0.266  -0.265  -0.263  -0.263  -0.262
 -0.262  -0.260  -0.259  -0.257  -0.255  -0.254  -0.252  -0.251
 -0.248  -0.247  -0.244  -0.239  -0.225  -0.220  -0.214  -0.211
 -0.208  -0.206  -0.203  -0.200  -0.199  -0.195

          Ground-State Mulliken Net Atomic Charges

     Atom                 Charge (a.u.)
  ----------------------------------------
      1 O                    -0.440939
      2 C                    -0.086500
      3 H                     0.130827
      4 H                     0.133057
      5 H                     0.116991
      6 O                    -0.502277
      7 C                     0.604236
      8 C                    -0.255011
      9 H                     0.128945
     10 H                     0.145282
     11 C                    -0.194461
     12 H                     0.107858
     13 H                     0.120106
     14 C                    -0.187147
     15 H                     0.109209
     16 H                     0.106125
     17 C                     0.009157
     18 C                     0.096670
     19 C                    -0.111231
     20 H                     0.084292
     21 C                    -0.082250
     22 H                     0.093525
     23 C                    -0.085343
     24 H                     0.090654
     25 C                    -0.092514
     26 H                     0.090919
     27 C                    -0.110062
     28 H                     0.098778
     29 C                    -0.005602
     30 C                    -0.004393
     31 C                    -0.021745
     32 C                     0.041390
     33 C                    -0.021938
     34 C                    -0.020191
     35 C                     0.018188
     36 C                    -0.027629
     37 C                     0.013574
     38 C                    -0.067019
     39 C                    -0.080521
     40 C                    -0.013028
     41 C                     0.007209
     42 C                    -0.017851
     43 C                     0.011575
     44 C                     0.018690
     45 C                    -0.106527
     46 C                     0.011578
     47 C                     0.043818
     48 C                    -0.012132
     49 C                     0.005416
     50 C                     0.011814
     51 C                    -0.034046
     52 C                     0.012352
     53 C                     0.010983
     54 C                     0.045732
     55 C                     0.020045
     56 C                     0.008416
     57 C                     0.007831
     58 C                     0.006825
     59 C                     0.024679
     60 C                     0.031130
     61 C                     0.024569
     62 C                     0.000931
     63 C                     0.025348
     64 C                    -0.015177
     65 C                    -0.011933
     66 C                    -0.037366
     67 C                    -0.016155
     68 C                     0.008837
     69 C                    -0.014059
     70 C                     0.060248
     71 C                    -0.021417
     72 C                    -0.004327
     73 C                    -0.015216
     74 C                     0.004530
     75 C                    -0.000687
     76 C                     0.027757
     77 C                    -0.029772
     78 C                     0.017235
     79 C                     0.007168
     80 C                    -0.007688
     81 C                     0.029781
     82 C                     0.007950
     83 C                    -0.027319
     84 C                    -0.003524
     85 C                     0.011029
     86 C                    -0.006791
     87 C                    -0.051871
     88 C                    -0.003314
     89 O                    -0.481090
     90 C                    -0.087429
     91 H                     0.141508
     92 H                     0.126565
     93 H                     0.131079
     94 O                    -0.514014
     95 C                     0.637922
     96 C                    -0.272223
     97 H                     0.143011
     98 H                     0.140931
     99 C                    -0.185737
    100 H                     0.134498
    101 H                     0.098954
    102 C                    -0.195379
    103 H                     0.106623
    104 H                     0.105773
    105 C                     0.021517
    106 C                     0.067120
    107 C                    -0.101981
    108 H                     0.135445
    109 C                    -0.100658
    110 H                     0.094018
    111 C                    -0.082577
    112 H                     0.092145
    113 C                    -0.098290
    114 H                     0.086717
    115 C                    -0.093217
    116 H                     0.092038
    117 C                    -0.012077
    118 C                    -0.005784
    119 C                    -0.011583
    120 C                    -0.049242
    121 C                    -0.011806
    122 C                     0.005802
    123 C                    -0.031934
    124 C                     0.017595
    125 C                    -0.017352
    126 C                     0.051094
    127 C                    -0.074833
    128 C                     0.004199
    129 C                    -0.018336
    130 C                    -0.016334
    131 C                     0.008502
    132 C                    -0.000390
    133 C                    -0.061557
    134 C                    -0.021157
    135 C                    -0.005190
    136 C                    -0.006158
    137 C                    -0.009293
    138 C                     0.008799
    139 C                     0.001189
    140 C                     0.024287
    141 C                     0.037592
    142 C                    -0.030480
    143 C                     0.008221
    144 C                    -0.007942
    145 C                     0.020473
    146 C                    -0.013506
    147 C                     0.001485
    148 C                     0.004014
    149 C                    -0.010002
    150 C                     0.012517
    151 C                     0.006842
    152 C                    -0.012211
    153 C                     0.011000
    154 C                     0.008624
    155 C                    -0.018459
    156 C                    -0.008909
    157 C                     0.013934
    158 C                     0.017215
    159 C                     0.026400
    160 C                    -0.008215
    161 C                    -0.020602
    162 C                    -0.000850
    163 C                     0.030321
    164 C                     0.017647
    165 C                    -0.009014
    166 C                    -0.007966
    167 C                    -0.044306
    168 C                     0.017356
    169 C                     0.041813
    170 C                    -0.011605
    171 C                    -0.000615
    172 C                     0.015242
    173 C                     0.012768
    174 C                     0.010558
    175 C                    -0.013804
    176 C                    -0.003536
  ----------------------------------------
  Sum of atomic charges =     0.000000

                    Cartesian Multipole Moments
 -----------------------------------------------------------------
    Charge (ESU x 10^10)
                 0.0000
    Dipole Moment (Debye)
         X      -4.9832      Y       0.0409      Z      -0.5207
       Tot       5.0105
    Quadrupole Moments (Debye-Ang)
        XX    -760.2957     XY       5.4880     YY    -834.9827
        XZ      -2.9399     YZ      -2.3069     ZZ    -784.5663

 Total job time:  882.45s(wall), 8407.63s(cpu)
        *  Thank you very much for using Q-Chem.  Have a nice day.  *
