 Q-Chem 4.4, Q-Chem, Inc., Pleasanton, CA (2016)
 Q-Chem 4.4.2 for Intel X86 Linux

User input:
--------------------------------------------------------------
$comment
SP
$end

$rem
MEM_STATIC 5000
MEM_TOTAL 20000
JOBTYPE SP
EXCHANGE B3LYP
BASIS 6-31g(d,p)
$end

$molecule
0 1
O         -11.321000    -16.618000    -13.220000
C         -10.521000    -15.584000    -13.899000
H         -11.221000    -15.016000    -14.524000
H          -9.776000    -15.998000    -14.589000
H         -10.020000    -15.048000    -13.084000
O         -13.395000    -15.650000    -13.713000
C         -12.702000    -16.467000    -13.107000
C         -13.302000    -17.476000    -12.169000
H         -14.333000    -17.217000    -11.900000
H         -12.732000    -17.312000    -11.246000
C         -13.122000    -18.968000    -12.577000
H         -13.442000    -19.121000    -13.616000
H         -12.066000    -19.196000    -12.772000
C         -13.850000    -19.986000    -11.727000
H         -13.091000    -20.766000    -11.591000
H         -14.041000    -19.522000    -10.751000
C         -15.150000    -20.613000    -12.315000
C         -16.217000    -19.542000    -12.622000
C         -16.024000    -18.802000    -13.786000
H         -15.275000    -19.211000    -14.456000
C         -16.890000    -17.749000    -14.084000
H         -16.742000    -17.182000    -14.999000
C         -18.020000    -17.474000    -13.284000
H         -18.545000    -16.548000    -13.496000
C         -18.195000    -18.209000    -12.098000
H         -19.049000    -18.078000    -11.442000
C         -17.298000    -19.256000    -11.815000
H         -17.299000    -19.798000    -10.874000
C         -18.875000    -24.414000    -11.640000
C         -18.865000    -24.127000    -13.999000
C         -17.043000    -28.168000    -15.041000
C         -14.404000    -25.424000     -9.811000
C         -13.890000    -26.759000    -15.293000
C         -18.795000    -23.569000    -12.746000
C         -13.026000    -26.848000    -11.846000
C         -18.770000    -27.638000    -13.357000
C         -15.321000    -23.040000    -15.298000
C         -13.499000    -24.802000    -10.666000
C         -15.067000    -21.880000    -13.152000
C         -14.087000    -23.388000    -14.739000
C         -12.666000    -24.718000    -12.796000
C         -13.121000    -27.421000    -13.135000
C         -17.345000    -22.508000    -14.107000
C         -15.026000    -28.499000    -14.235000
C         -15.552000    -21.943000    -11.739000
C         -14.897000    -22.799000    -10.732000
C         -14.861000    -27.765000    -15.376000
C         -16.627000    -28.075000    -10.577000
C         -16.817000    -28.901000    -12.694000
C         -18.031000    -28.326000    -12.386000
C         -19.332000    -26.353000    -13.041000
C         -15.834000    -23.554000    -10.059000
C         -15.960000    -22.280000    -14.327000
C         -19.102000    -25.477000    -14.164000
C         -12.773000    -25.493000    -11.650000
C         -18.065000    -23.477000    -14.860000
C         -13.503000    -24.600000    -15.030000
C         -16.598000    -25.827000     -9.532000
C         -18.261000    -27.527000    -14.676000
C         -13.879000    -22.727000    -13.511000
C         -18.564000    -26.535000    -10.753000
C         -12.717000    -25.260000    -14.100000
C         -16.023000    -23.961000    -16.110000
C         -14.588000    -28.476000    -11.812000
C         -13.927000    -27.520000    -11.010000
C         -15.433000    -25.185000    -16.345000
C         -15.599000    -24.806000     -9.522000
C         -13.730000    -23.504000    -11.159000
C         -16.013000    -27.091000     -9.804000
C         -16.965000    -22.401000    -11.647000
C         -17.622000    -25.578000    -16.025000
C         -13.317000    -23.487000    -12.504000
C         -14.184000    -25.511000    -15.800000
C         -17.862000    -25.581000    -10.004000
C         -16.133000    -27.482000    -15.893000
C         -19.194000    -25.769000    -11.761000
C         -16.315000    -28.816000    -14.022000
C         -17.391000    -24.173000    -15.926000
C         -16.430000    -26.202000    -16.353000
C         -17.836000    -22.576000    -12.782000
C         -17.062000    -23.316000    -10.614000
C         -15.936000    -28.761000    -11.626000
C         -18.544000    -26.211000    -15.159000
C         -12.968000    -26.626000    -14.275000
C         -14.612000    -26.790000     -9.991000
C         -14.121000    -28.480000    -13.131000
C         -18.082000    -24.286000    -10.492000
C         -17.919000    -27.786000    -11.116000
O          -3.207000    -28.978000     -7.172000
C          -2.387000    -30.067000     -7.324000
H          -2.199000    -30.343000     -8.369000
H          -2.755000    -30.898000     -6.710000
H          -1.467000    -29.790000     -6.796000
O          -5.142000    -30.134000     -7.640000
C          -4.544000    -29.055000     -7.332000
C          -5.192000    -27.693000     -7.341000
H          -4.413000    -26.922000     -7.390000
H          -5.553000    -27.587000     -6.311000
C          -6.276000    -27.519000     -8.425000
H          -5.737000    -27.650000     -9.370000
H          -7.017000    -28.328000     -8.391000
C          -6.787000    -26.110000     -8.469000
H          -7.413000    -25.775000     -7.633000
H          -5.906000    -25.486000     -8.275000
C          -7.561000    -25.715000     -9.745000
C          -8.738000    -26.682000    -10.001000
C          -9.837000    -26.723000     -9.102000
H          -9.986000    -26.090000     -8.233000
C         -10.861000    -27.729000     -9.290000
H         -11.646000    -28.006000     -8.594000
C         -10.849000    -28.531000    -10.428000
H         -11.515000    -29.386000    -10.496000
C          -9.784000    -28.445000    -11.440000
H          -9.843000    -29.124000    -12.286000
C          -8.747000    -27.554000    -11.154000
H          -7.976000    -27.470000    -11.916000
C          -7.401000    -24.063000    -14.919000
C          -9.352000    -23.009000    -13.975000
C          -7.699000    -18.743000    -13.982000
C          -3.314000    -22.986000    -11.984000
C          -6.876000    -18.774000    -10.583000
C          -8.509000    -24.078000    -14.110000
C          -3.721000    -20.393000    -10.996000
C          -7.476000    -20.564000    -15.612000
C          -8.939000    -22.296000    -10.095000
C          -3.758000    -22.818000    -10.688000
C          -7.730000    -24.243000     -9.997000
C          -7.848000    -21.939000     -9.258000
C          -5.102000    -21.604000     -9.398000
C          -4.575000    -19.281000    -10.987000
C          -9.254000    -23.912000    -11.883000
C          -5.849000    -18.221000    -12.739000
C          -6.807000    -25.057000    -10.878000
C          -5.383000    -24.702000    -10.966000
C          -7.034000    -18.242000    -11.911000
C          -4.132000    -21.202000    -14.933000
C          -5.535000    -19.398000    -14.871000
C          -6.088000    -20.392000    -15.697000
C          -7.945000    -21.880000    -15.635000
C          -4.970000    -24.781000    -12.338000
C          -8.927000    -23.618000    -10.534000
C          -9.000000    -21.883000    -14.763000
C          -3.961000    -21.534000    -10.212000
C          -9.735000    -22.860000    -12.652000
C          -7.324000    -20.595000     -9.317000
C          -4.050000    -23.491000    -14.131000
C          -8.282000    -19.726000    -14.808000
C          -7.007000    -23.080000     -9.282000
C          -5.748000    -22.813000    -15.747000
C          -5.948000    -20.435000     -9.304000
C          -9.515000    -21.285000    -10.852000
C          -3.824000    -19.588000    -13.124000
C          -3.256000    -20.553000    -12.287000
C          -9.037000    -19.954000    -10.784000
C          -3.942000    -23.949000    -12.850000
C          -4.815000    -23.657000    -10.175000
C          -3.572000    -22.187000    -14.116000
C          -7.203000    -25.223000    -12.327000
C          -9.661000    -20.447000    -12.940000
C          -5.630000    -22.863000     -9.337000
C          -7.955000    -19.557000    -10.063000
C          -5.179000    -23.782000    -14.928000
C          -8.115000    -18.622000    -12.661000
C          -7.103000    -22.967000    -15.780000
C          -6.272000    -18.574000    -14.004000
C          -9.832000    -21.564000    -12.180000
C          -9.165000    -19.435000    -12.114000
C          -8.409000    -24.643000    -12.791000
C          -6.095000    -25.060000    -13.119000
C          -4.247000    -19.896000    -14.447000
C          -9.277000    -20.564000    -14.272000
C          -5.692000    -19.275000    -10.109000
C          -3.097000    -21.867000    -12.793000
C          -4.666000    -18.770000    -12.289000
C          -6.220000    -24.530000    -14.407000
C          -5.244000    -21.491000    -15.742000
$end

--------------------------------------------------------------

             Standard Nuclear Orientation (Angstroms)
    I     Atom           X                Y                Z
 ----------------------------------------------------------------
    1      O      -0.9762828124    -6.7616663763     1.0688879286
    2      C      -1.8636838051    -7.8303267318     0.5782948967
    3      H      -1.2089760021    -8.6526270416     0.2645611033
    4      H      -2.4304717423    -7.5446911197    -0.3159560364
    5      H      -2.5499209635    -8.0192796059     1.4124995321
    6      O       0.9292702853    -8.1129679645     1.2250942339
    7      C       0.3293804484    -7.0626127667     1.4528224536
    8      C       0.9855760570    -5.9112718284     2.1611630264
    9      H       1.9110259485    -6.2180152499     2.6630135735
   10      H       0.2871259922    -5.7071743041     2.9822822063
   11      C       1.1333502404    -4.6027678612     1.3299541727
   12      H       1.6000359830    -4.8174300090     0.3596683488
   13      H       0.1688195176    -4.2993822374     0.9024232988
   14      C       1.9267680183    -3.4874230546     1.9743936129
   15      H       1.3129199640    -2.6049012533     1.7568554863
   16      H       1.9091632720    -3.6563751852     3.0585975838
   17      C       3.3814640514    -3.2555261442     1.4655161478
   18      C       4.2631885581    -4.5071375391     1.6547509504
   19      C       4.0808625634    -5.5300048614     0.7272571916
   20      H       3.5068210954    -5.2424761015    -0.1473773636
   21      C       4.7687249759    -6.7338681319     0.8857738393
   22      H       4.6317212862    -7.5245831641     0.1532318768
   23      C       5.7231759277    -6.9089066761     1.9109127999
   24      H       6.0912335606    -7.9194173378     2.0573599964
   25      C       5.8843484304    -5.8815872676     2.8575300707
   26      H       6.6135146619    -5.9258831740     3.6595073020
   27      C       5.1669717879    -4.6835915501     2.6812234808
   28      H       5.1528312297    -3.8880675039     3.4202684973
   29      C       7.6301711416     0.0126427626     1.6809484065
   30      C       7.8549134275    -0.9700838813    -0.4710481661
   31      C       6.9457386789     2.7792523836    -2.8899338288
   32      C       3.2315101324     2.1421925379     2.3679571987
   33      C       3.6423013421     1.8145750955    -3.2732006960
   34      C       7.5317514216    -1.1074563329     0.8567199340
   35      C       2.3962462029     3.0616776936    -0.1864049950
   36      C       8.3281616444     2.5478319661    -0.8565533098
   37      C       4.3565813889    -1.8932594813    -2.0002066797
   38      C       2.3386864948     1.4234226900     1.5785461158
   39      C       3.6348031949    -2.3024674218     0.3078264873
   40      C       3.1486516455    -1.2238253582    -1.7786108996
   41      C       1.7699848681     0.8162342003    -0.5535293045
   42      C       2.7509284975     3.1988154146    -1.5481203527
   43      C       6.0883601489    -2.3171336200    -0.3817648237
   44      C       4.9408354593     3.6166511270    -2.5634182480
   45      C       3.9474660357    -1.8833755730     1.7086715788
   46      C       3.3429871606    -0.6802632442     2.3111132886
   47      C       4.7841235142     2.6024897905    -3.4660699803
   48      C       5.9795132893     4.0998278470     1.2851697558
   49      C       6.5740622212     4.2118158078    -0.9134742045
   50      C       7.6153075125     3.5933747050    -0.2557327311
   51      C       8.6021861692     1.3533622132    -0.1048368944
   52      C       4.3135770253     0.1043956368     2.8969364318
   53      C       4.7222950090    -2.4053466069    -0.7621508151
   54      C       8.3538292468     0.2198275522    -0.9620550762
   55      C       1.8770323149     1.8786613835     0.3325741457
   56      C       7.0601076243    -1.7317244047    -1.2404690187
   57      C       2.8367325661    -0.0875541139    -2.4901410446
   58      C       5.4116473726     2.3003422492     2.8931964609
   59      C       7.9718404685     2.1152629700    -2.1592744170
   60      C       2.6750240073    -1.4466157796    -0.4693323622
   61      C       7.6079128010     2.3241978729     1.8767762342
   62      C       2.0778858417     0.9257466447    -1.9282965630
   63      C       5.3091469493    -1.3684419275    -2.9044048817
   64      C       4.2144275076     4.3889690035    -0.3409964641
   65      C       3.2966527996     3.8224033239     0.5704605652
   66      C       4.9867598863    -0.2030805968    -3.5673532586
   67      C       4.2486463291     1.4801123612     3.0164583914
   68      C       2.3859211992     0.0181999202     1.5127293250
   69      C       5.1059790555     3.4915299868     2.1849989929
   70      C       5.3986163361    -1.6209221939     1.9088665571
   71      C       7.1551947380    -0.0412608413    -3.0014251174
   72      C       2.1436530118    -0.3470007507     0.1756363606
   73      C       3.7618665691     0.4434691019    -3.3554291012
   74      C       6.6569622189     1.7492097982     2.7305927861
   75      C       6.0359322799     2.0017430588    -3.6595646272
   76      C       8.2046365137     1.2091321596     1.2441078647
   77      C       6.2304342933     3.8000626729    -2.2307411489
   78      C       6.6600761419    -1.3038311232    -2.5564971919
   79      C       6.1468327864     0.6142618189    -3.6879527693
   80      C       6.4185046191    -1.9207816552     0.9355201678
   81      C       5.5353456657    -0.4592736888     2.6475145390
   82      C       5.5589951873     4.5258068875    -0.0149011588
   83      C       8.0652801911     0.6888351424    -2.2017793692
   84      C       2.5946104730     2.1257656060    -2.4308223315
   85      C       3.7068983687     3.3467007756     1.8533836566
   86      C       3.9201716662     4.0589699189    -1.6685431126
   87      C       6.6934085140     0.3498633035     2.6667958016
   88      C       7.2524086194     3.4839781342     1.0759507086
   89      O      -7.3600509768     7.8542034832     1.9681944799
   90      C      -7.9416627078     8.9494812851     1.3820892581
   91      H      -7.9472197044     8.9198819952     0.2854407265
   92      H      -7.5049894044     9.8673706356     1.7941287785
   93      H      -8.9541739454     8.9764093586     1.8016233718
   94      O      -5.2035005781     8.5325547933     1.5337812229
   95      C      -6.0222531010     7.6918035366     2.0231590224
   96      C      -5.6389035690     6.3144273396     2.5036868033
   97      H      -6.5342601619     5.6813677900     2.5391152980
   98      H      -5.4315801398     6.4756343835     3.5683399321
   99      C      -4.4814701767     5.6711973578     1.7118590866
  100      H      -4.8681868578     5.5841157942     0.6903043842
  101      H      -3.6143846388     6.3408533616     1.6452144585
  102      C      -4.2361208488     4.2580406129     2.1490429399
  103      H      -3.7886929649     4.1076619352     3.1390891722
  104      H      -5.2335876885     3.8513206141     2.3559529357
  105      C      -3.3982514939     3.3916268745     1.1843776207
  106      C      -2.0415795941     4.0616907774     0.8738784708
  107      C      -1.0714510900     4.2188750717     1.8994645390
  108      H      -1.1480026527     3.8640734519     2.9223558669
  109      C       0.1348516669     4.9676336650     1.6163563835
  110      H       0.8666860592     5.3297644765     2.3309539608
  111      C       0.4087871243     5.3812987420     0.3154979864
  112      H       1.2235668283     6.0739440393     0.1268673257
  113      C      -0.5226757264     5.1427606097    -0.7986122044
  114      H      -0.2375886843     5.5188606984    -1.7771376776
  115      C      -1.7324926029     4.5338899217    -0.4570487249
  116      H      -2.4072325203     4.3318195183    -1.2853207792
  117      C      -3.2275764548     0.2913582607    -3.2747909736
  118      C      -1.6326976112    -0.6892225828    -1.7571363082
  119      C      -4.0268518549    -4.4829806767    -0.8590054811
  120      C      -7.7691271901     0.7340342245    -0.8965399545
  121      C      -5.2377098234    -3.3108062466     2.2055207605
  122      C      -2.2424831703     0.3955495464    -2.3255252592
  123      C      -7.9680393665    -1.4688410967     0.8277617202
  124      C      -3.7119248031    -3.2278772020    -2.9442407724
  125      C      -2.6386441614    -0.1302947376     2.0387837650
  126      C      -7.5245918520     0.9056534078     0.4509485703
  127      C      -3.4727497453     1.9038893011     1.3842173652
  128      C      -3.8702477314    -0.0614691954     2.7435636534
  129      C      -6.5932873205    -0.0364162656     2.2368401124
  130      C      -7.3400745741    -2.6338031730     1.2908649272
  131      C      -1.8172900435     0.8086378379    -0.0472191190
  132      C      -6.0785210627    -4.3409955655     0.1462440848
  133      C      -4.1165447522     2.5337525765     0.1678760301
  134      C      -5.5600175740     2.3711616502    -0.0590499569
  135      C      -5.0195290341    -4.2361471840     1.1249129257
  136      C      -6.9394951344    -1.9542131826    -3.0490774177
  137      C      -5.9093928051    -3.8322471117    -2.2499862136
  138      C      -5.0870762195    -3.2220371137    -3.2130854771
  139      C      -3.0102227116    -2.0594546576    -3.2520539177
  140      C      -5.7813888405     2.0883115321    -1.4483607836
  141      C      -2.3544034639     0.9850940264     1.2541410876
  142      C      -2.0866989433    -1.9401254199    -2.2489176446
  143      C      -7.6200516372    -0.1893727491     1.2925221828
  144      C      -1.4474667910    -0.4830081169    -0.3997917914
  145      C      -4.6207554929    -1.2734181916     2.9722790454
  146      C      -6.6972072518     0.4580753514    -2.9413295149
  147      C      -3.1772891668    -3.8873295917    -1.8139384756
  148      C      -4.4783858205     1.1244851814     2.2604298408
  149      C      -4.9685360559    -0.9069778040    -3.9914103591
  150      C      -5.9939288849    -1.2282968016     2.7947856775
  151      C      -2.1700912692    -1.3929121212     1.7023294150
  152      C      -7.7562102957    -2.8858852334    -0.9425863698
  153      C      -8.2351356255    -1.6435600349    -0.5163509541
  154      C      -2.8888017112    -2.5606109069     2.0553221152
  155      C      -6.8744684717     1.2924482540    -1.8760646092
  156      C      -6.4020613570     1.7043717652     0.8825887831
  157      C      -7.4045134472    -0.7001961240    -2.6459481762
  158      C      -3.5234324477     2.1967299936    -1.1806811889
  159      C      -1.9272396850    -2.8349745257    -0.0137076270
  160      C      -5.8547136839     1.0954340254     2.0343310954
  161      C      -4.1048438843    -2.5658428625     2.6630951484
  162      C      -5.4455120694     0.3338141498    -3.5834738321
  163      C      -3.8040508657    -4.2555761986     0.4942812300
  164      C      -3.6145136251    -0.9608747907    -3.8347311593
  165      C      -5.4471646479    -4.4498133491    -1.0757668674
  166      C      -1.6480403114    -1.5757641290     0.4232899548
  167      C      -2.6972566950    -3.4701120878     0.9641011894
  168      C      -2.3969378871     1.3411883741    -1.2527266070
  169      C      -4.5377443882     1.9581334151    -2.0727237663
  170      C      -7.1260488177    -3.0546758521    -2.2069155352
  171      C      -2.1182205958    -3.0739439664    -1.3708328600
  172      C      -6.3584532670    -2.5297985944     2.3127316783
  173      C      -8.0876004235    -0.5354623943    -1.3871356480
  174      C      -7.1865624885    -3.5221280872     0.2175900852
  175      C      -4.3562559946     1.0513827125    -3.1216918909
  176      C      -5.7032890697    -2.0816170068    -3.7049042478
 ----------------------------------------------------------------

    9   -5804.2495245103      8.56E-06 Convergence criterion met
 Total energy in the final basis set = -5804.2495245103

                    Orbital Energies (a.u.)
 --------------------------------------------------------------

 Alpha MOs
 -- Occupied --
-19.199 -19.188 -19.135 -19.133 -10.322 -10.318 -10.245 -10.243
-10.242 -10.242 -10.241 -10.241 -10.241 -10.235 -10.234 -10.233
-10.228 -10.226 -10.225 -10.225 -10.224 -10.224 -10.224 -10.224
-10.223 -10.223 -10.222 -10.222 -10.222 -10.222 -10.221 -10.221
-10.221 -10.221 -10.221 -10.221 -10.220 -10.220 -10.220 -10.220
-10.220 -10.220 -10.220 -10.220 -10.219 -10.219 -10.219 -10.219
-10.219 -10.219 -10.219 -10.219 -10.219 -10.218 -10.218 -10.218
-10.218 -10.218 -10.218 -10.218 -10.217 -10.217 -10.217 -10.216
-10.216 -10.216 -10.216 -10.216 -10.216 -10.216 -10.215 -10.215
-10.215 -10.215 -10.215 -10.215 -10.215 -10.215 -10.215 -10.214
-10.214 -10.214 -10.214 -10.214 -10.213 -10.213 -10.213 -10.213
-10.213 -10.213 -10.212 -10.212 -10.212 -10.212 -10.212 -10.211
-10.211 -10.211 -10.211 -10.211 -10.211 -10.211 -10.211 -10.211
-10.211 -10.211 -10.211 -10.211 -10.210 -10.210 -10.210 -10.210
-10.210 -10.210 -10.210 -10.209 -10.208 -10.208 -10.208 -10.208
-10.208 -10.207 -10.207 -10.207 -10.206 -10.206 -10.206 -10.206
-10.206 -10.206 -10.205 -10.204 -10.204 -10.203 -10.203 -10.202
-10.202 -10.200 -10.200 -10.200 -10.200 -10.200 -10.198 -10.197
-10.195 -10.194 -10.194 -10.191  -1.108  -1.074  -1.001  -0.992
 -0.987  -0.984  -0.968  -0.968  -0.967  -0.967  -0.963  -0.962
 -0.938  -0.937  -0.930  -0.929  -0.928  -0.927  -0.925  -0.925
 -0.924  -0.919  -0.900  -0.895  -0.894  -0.891  -0.890  -0.888
 -0.875  -0.875  -0.854  -0.847  -0.846  -0.844  -0.841  -0.840
 -0.838  -0.837  -0.824  -0.821  -0.812  -0.805  -0.801  -0.800
 -0.799  -0.797  -0.796  -0.795  -0.794  -0.792  -0.789  -0.784
 -0.775  -0.774  -0.771  -0.770  -0.768  -0.767  -0.765  -0.761
 -0.750  -0.747  -0.746  -0.743  -0.736  -0.734  -0.719  -0.718
 -0.717  -0.717  -0.715  -0.714  -0.713  -0.712  -0.711  -0.711
 -0.710  -0.708  -0.706  -0.706  -0.703  -0.699  -0.676  -0.674
 -0.665  -0.660  -0.660  -0.657  -0.650  -0.647  -0.635  -0.633
 -0.629  -0.628  -0.627  -0.623  -0.622  -0.621  -0.619  -0.618
 -0.616  -0.615  -0.615  -0.613  -0.612  -0.612  -0.610  -0.609
 -0.607  -0.605  -0.605  -0.603  -0.570  -0.568  -0.566  -0.564
 -0.563  -0.563  -0.559  -0.559  -0.557  -0.557  -0.555  -0.553
 -0.537  -0.536  -0.535  -0.534  -0.531  -0.529  -0.526  -0.526
 -0.525  -0.524  -0.520  -0.518  -0.518  -0.517  -0.515  -0.512
 -0.509  -0.505  -0.502  -0.498  -0.496  -0.491  -0.489  -0.488
 -0.486  -0.485  -0.483  -0.483  -0.481  -0.480  -0.477  -0.475
 -0.474  -0.474  -0.472  -0.471  -0.470  -0.470  -0.468  -0.468
 -0.467  -0.467  -0.466  -0.464  -0.463  -0.462  -0.461  -0.458
 -0.456  -0.456  -0.454  -0.453  -0.452  -0.448  -0.445  -0.444
 -0.444  -0.444  -0.442  -0.439  -0.438  -0.437  -0.436  -0.434
 -0.432  -0.431  -0.429  -0.428  -0.428  -0.427  -0.427  -0.424
 -0.424  -0.422  -0.422  -0.420  -0.420  -0.420  -0.419  -0.419
 -0.418  -0.417  -0.417  -0.417  -0.416  -0.416  -0.415  -0.415
 -0.413  -0.412  -0.411  -0.410  -0.401  -0.400  -0.399  -0.398
 -0.397  -0.395  -0.394  -0.392  -0.388  -0.386  -0.384  -0.383
 -0.382  -0.381  -0.372  -0.371  -0.370  -0.369  -0.368  -0.368
 -0.366  -0.366  -0.365  -0.364  -0.361  -0.360  -0.359  -0.359
 -0.356  -0.356  -0.355  -0.354  -0.353  -0.352  -0.352  -0.350
 -0.349  -0.348  -0.346  -0.345  -0.345  -0.345  -0.343  -0.343
 -0.343  -0.341  -0.340  -0.338  -0.338  -0.336  -0.335  -0.335
 -0.334  -0.334  -0.331  -0.330  -0.329  -0.328  -0.325  -0.317
 -0.314  -0.312  -0.297  -0.295  -0.288  -0.287  -0.274  -0.273
 -0.271  -0.269  -0.268  -0.267  -0.267  -0.266  -0.265  -0.265
 -0.264  -0.262  -0.260  -0.260  -0.258  -0.258  -0.253  -0.253
 -0.250  -0.250  -0.246  -0.244  -0.224  -0.221  -0.217  -0.211
 -0.211  -0.209  -0.206  -0.205  -0.205  -0.198

          Ground-State Mulliken Net Atomic Charges

     Atom                 Charge (a.u.)
  ----------------------------------------
      1 O                    -0.487140
      2 C                    -0.094941
      3 H                     0.145616
      4 H                     0.126933
      5 H                     0.130384
      6 O                    -0.470846
      7 C                     0.583371
      8 C                    -0.233658
      9 H                     0.140364
     10 H                     0.121007
     11 C                    -0.202651
     12 H                     0.102028
     13 H                     0.123263
     14 C                    -0.176049
     15 H                     0.112190
     16 H                     0.110407
     17 C                    -0.009423
     18 C                     0.101095
     19 C                    -0.092392
     20 H                     0.096370
     21 C                    -0.095015
     22 H                     0.097084
     23 C                    -0.086901
     24 H                     0.097235
     25 C                    -0.100041
     26 H                     0.095395
     27 C                    -0.108787
     28 H                     0.084989
     29 C                     0.020666
     30 C                     0.054066
     31 C                    -0.022730
     32 C                     0.016533
     33 C                     0.016876
     34 C                    -0.006939
     35 C                     0.031545
     36 C                    -0.005186
     37 C                     0.020607
     38 C                    -0.000205
     39 C                    -0.055016
     40 C                     0.006168
     41 C                     0.009435
     42 C                    -0.023023
     43 C                    -0.017740
     44 C                     0.043757
     45 C                    -0.089014
     46 C                    -0.005613
     47 C                    -0.013723
     48 C                    -0.015907
     49 C                     0.003557
     50 C                     0.025963
     51 C                    -0.032378
     52 C                     0.031879
     53 C                     0.024625
     54 C                     0.014324
     55 C                    -0.003262
     56 C                    -0.021700
     57 C                     0.007477
     58 C                     0.001597
     59 C                    -0.009091
     60 C                    -0.006983
     61 C                    -0.009829
     62 C                    -0.033038
     63 C                     0.006528
     64 C                     0.006730
     65 C                     0.017091
     66 C                    -0.007733
     67 C                    -0.008380
     68 C                    -0.013958
     69 C                     0.001069
     70 C                     0.036829
     71 C                    -0.011617
     72 C                     0.026545
     73 C                     0.008945
     74 C                    -0.003075
     75 C                    -0.005051
     76 C                    -0.008037
     77 C                    -0.004134
     78 C                    -0.025599
     79 C                     0.009907
     80 C                    -0.010518
     81 C                     0.009470
     82 C                    -0.009347
     83 C                     0.000740
     84 C                    -0.005683
     85 C                    -0.038294
     86 C                    -0.033157
     87 C                    -0.021216
     88 C                    -0.005214
     89 O                    -0.428852
     90 C                    -0.080618
     91 H                     0.124856
     92 H                     0.125319
     93 H                     0.116870
     94 O                    -0.500697
     95 C                     0.581364
     96 C                    -0.265343
     97 H                     0.128426
     98 H                     0.134820
     99 C                    -0.171080
    100 H                     0.112069
    101 H                     0.143236
    102 C                    -0.179198
    103 H                     0.103226
    104 H                     0.100933
    105 C                     0.003335
    106 C                     0.084893
    107 C                    -0.121139
    108 H                     0.097666
    109 C                    -0.084806
    110 H                     0.099594
    111 C                    -0.096345
    112 H                     0.094138
    113 C                    -0.089156
    114 H                     0.104301
    115 C                    -0.104980
    116 H                     0.096321
    117 C                    -0.002167
    118 C                    -0.014696
    119 C                    -0.021073
    120 C                    -0.010333
    121 C                     0.003510
    122 C                     0.006425
    123 C                     0.012639
    124 C                    -0.016519
    125 C                     0.004894
    126 C                    -0.007668
    127 C                    -0.072364
    128 C                    -0.000560
    129 C                    -0.010841
    130 C                    -0.004660
    131 C                     0.012886
    132 C                    -0.019665
    133 C                    -0.076386
    134 C                     0.033574
    135 C                    -0.024797
    136 C                     0.003824
    137 C                     0.002904
    138 C                     0.002405
    139 C                     0.045106
    140 C                    -0.004657
    141 C                     0.032326
    142 C                     0.000438
    143 C                     0.024428
    144 C                     0.004637
    145 C                    -0.009222
    146 C                     0.006363
    147 C                    -0.006505
    148 C                     0.032769
    149 C                     0.009496
    150 C                    -0.013275
    151 C                    -0.021829
    152 C                    -0.001530
    153 C                    -0.007668
    154 C                    -0.003111
    155 C                    -0.010846
    156 C                    -0.031480
    157 C                     0.006474
    158 C                    -0.014624
    159 C                     0.010346
    160 C                     0.006812
    161 C                     0.001056
    162 C                    -0.007894
    163 C                     0.043069
    164 C                    -0.032106
    165 C                     0.012560
    166 C                     0.031661
    167 C                    -0.006295
    168 C                     0.009730
    169 C                     0.009565
    170 C                    -0.028860
    171 C                    -0.030873
    172 C                    -0.005142
    173 C                    -0.002139
    174 C                     0.013415
    175 C                     0.022430
    176 C                     0.004458
  ----------------------------------------
  Sum of atomic charges =     0.000000

                    Cartesian Multipole Moments
 -----------------------------------------------------------------
    Charge (ESU x 10^10)
                 0.0000
    Dipole Moment (Debye)
         X      -3.6208      Y       0.2741      Z       1.9550
       Tot       4.1240
    Quadrupole Moments (Debye-Ang)
        XX    -801.6832     XY     -11.7776     YY    -817.2968
        XZ      -0.5406     YZ       1.9521     ZZ    -797.4797

 Total job time:  877.85s(wall), 8404.31s(cpu)
        *  Thank you very much for using Q-Chem.  Have a nice day.  *
