 Q-Chem 4.4, Q-Chem, Inc., Pleasanton, CA (2016)
 Q-Chem 4.4.2 for Intel X86 Linux

User input:
--------------------------------------------------------------
$comment
SP
$end

$rem
MEM_STATIC 5000
MEM_TOTAL 20000
JOBTYPE SP
EXCHANGE B3LYP
BASIS 6-31g(d,p)
$end

$molecule
0 1
O         -23.213000     11.870000      5.867000
C         -24.498000     12.520000      5.777000
H         -25.337000     11.836000      5.597000
H         -24.405000     13.266000      4.978000
H         -24.776000     13.084000      6.675000
O         -22.449000     11.984000      3.645000
C         -22.345000     11.613000      4.786000
C         -21.223000     10.732000      5.238000
H         -21.821000     10.025000      5.826000
H         -20.559000     11.251000      5.939000
C         -20.417000     10.059000      4.146000
H         -21.062000      9.615000      3.378000
H         -19.938000     10.862000      3.572000
C         -19.346000      9.048000      4.647000
H         -18.611000      8.871000      3.852000
H         -18.819000      9.704000      5.352000
C         -19.840000      7.726000      5.196000
C         -20.703000      7.002000      4.214000
C         -22.102000      7.349000      4.135000
H         -22.543000      8.090000      4.795000
C         -22.994000      6.746000      3.217000
H         -24.043000      7.024000      3.237000
C         -22.592000      5.796000      2.292000
H         -23.318000      5.337000      1.627000
C         -21.219000      5.494000      2.315000
H         -20.777000      4.735000      1.676000
C         -20.299000      6.064000      3.231000
H         -19.264000      5.749000      3.135000
C         -21.420000      4.621000      9.543000
C         -20.191000      3.009000      8.255000
C         -16.550000      2.830000     10.983000
C         -18.819000      8.846000     10.443000
C         -14.717000      5.170000      9.226000
C         -21.067000      4.150000      8.314000
C         -16.087000      8.075000     10.719000
C         -18.898000      2.921000     11.538000
C         -17.380000      5.054000      6.141000
C         -17.940000      9.048000      9.359000
C         -18.820000      6.913000      5.926000
C         -16.650000      6.221000      6.417000
C         -16.193000      8.202000      8.319000
C         -15.240000      6.983000     10.653000
C         -19.692000      4.477000      6.601000
C         -15.373000      4.697000     11.512000
C         -20.003000      7.454000      6.688000
C         -19.693000      8.402000      7.848000
C         -14.962000      4.240000     10.273000
C         -18.893000      6.209000     12.837000
C         -17.427000      4.435000     12.658000
C         -18.699000      3.964000     12.495000
C         -20.034000      2.929000     10.710000
C         -20.515000      8.087000      8.983000
C         -18.733000      5.399000      6.017000
C         -19.640000      2.468000      9.432000
C         -16.537000      8.724000      9.524000
C         -19.288000      3.287000      7.152000
C         -15.550000      6.161000      7.281000
C         -20.374000      7.470000     11.325000
C         -17.866000      2.376000     10.750000
C         -17.457000      7.330000      6.372000
C         -20.680000      5.099000     11.618000
C         -15.259000      7.110000      8.217000
C         -16.979000      3.848000      6.713000
C         -16.576000      6.639000     12.434000
C         -16.974000      7.817000     11.731000
C         -15.938000      3.784000      7.588000
C         -20.131000      8.320000     10.292000
C         -18.357000      8.771000      8.031000
C         -19.273000      7.459000     12.198000
C         -20.928000      6.469000      7.403000
C         -17.474000      2.362000      8.347000
C         -17.227000      8.304000      7.354000
C         -15.143000      4.930000      7.879000
C         -21.032000      6.278000     11.054000
C         -15.688000      3.063000      9.906000
C         -20.882000      4.056000     10.708000
C         -16.344000      3.862000     11.976000
C         -17.947000      2.944000      7.189000
C         -16.201000      2.864000      8.573000
C         -20.731000      5.035000      7.300000
C         -21.247000      6.892000      8.712000
C         -17.563000      5.810000     12.892000
C         -18.327000      2.116000      9.472000
C         -14.809000      6.562000      9.354000
C         -18.348000      8.274000     11.644000
C         -15.538000      6.135000     11.668000
C         -21.506000      5.983000      9.752000
C         -19.651000      5.036000     12.578000
O         -10.541000      6.292000     -2.164000
C         -11.230000      7.408000     -2.822000
H         -10.561000      8.094000     -3.355000
H         -11.643000      7.909000     -1.938000
H         -12.115000      7.107000     -3.397000
O         -12.585000      5.502000     -1.370000
C         -11.341000      5.422000     -1.367000
C         -10.561000      4.371000     -0.684000
H          -9.806000      5.035000     -0.244000
H         -10.166000      3.751000     -1.498000
C         -11.348000      3.570000      0.412000
H         -11.258000      4.111000      1.362000
H         -12.400000      3.584000      0.101000
C         -10.783000      2.145000      0.645000
H         -10.671000      1.615000     -0.310000
H          -9.748000      2.274000      0.984000
C         -11.516000      1.301000      1.793000
C         -12.654000      0.629000      1.145000
C         -12.306000     -0.502000      0.386000
H         -11.269000     -0.806000      0.273000
C         -13.244000     -1.344000     -0.159000
H         -12.924000     -2.238000     -0.686000
C         -14.597000     -1.111000      0.104000
H         -15.420000     -1.695000     -0.298000
C         -14.913000      0.081000      0.726000
H         -15.956000      0.339000      0.882000
C         -13.967000      0.978000      1.344000
H         -14.258000      1.761000      2.037000
C         -13.766000      1.222000      6.768000
C         -13.220000     -1.051000      6.400000
C          -9.790000     -1.292000      9.340000
C          -9.630000      4.108000      6.076000
C          -7.298000     -0.889000      6.833000
C         -13.652000      0.160000      5.870000
C          -7.358000      2.748000      6.753000
C         -11.912000     -0.233000      9.564000
C         -10.045000     -1.444000      3.888000
C          -8.846000      3.618000      5.068000
C         -10.829000      0.529000      2.918000
C          -8.920000     -0.629000      3.681000
C          -7.641000      1.735000      4.616000
C          -6.924000      1.509000      7.280000
C         -12.381000     -0.846000      4.255000
C          -7.913000      0.042000      9.019000
C         -11.521000      1.779000      3.226000
C         -10.831000      2.985000      3.819000
C          -7.883000     -1.062000      8.134000
C         -10.556000      3.088000      9.306000
C          -9.845000      1.032000     10.104000
C         -11.243000      0.962000      9.929000
C         -12.927000     -0.146000      8.649000
C         -11.663000      3.547000      4.878000
C         -11.223000     -0.770000      3.444000
C         -12.881000     -1.191000      7.734000
C          -7.737000      2.886000      5.457000
C         -12.366000     -1.620000      5.418000
C          -7.885000     -0.674000      4.608000
C         -11.568000      4.055000      7.266000
C         -11.188000     -1.401000      9.267000
C          -9.342000      0.586000      3.220000
C         -12.675000      2.274000      8.519000
C          -7.114000      0.483000      5.060000
C         -10.067000     -2.315000      4.992000
C          -8.271000      2.450000      8.863000
C          -8.180000      3.323000      7.760000
C          -9.038000     -2.361000      5.925000
C         -11.047000      4.125000      6.021000
C          -9.442000      2.916000      3.991000
C         -10.482000      3.979000      8.184000
C         -12.691000      1.637000      4.156000
C         -10.972000     -2.529000      7.147000
C          -8.722000      1.777000      3.730000
C          -7.946000     -1.548000      5.761000
C         -12.626000      3.117000      7.420000
C          -8.991000     -1.930000      8.359000
C         -13.366000      1.070000      8.118000
C          -9.112000     -0.133000      9.785000
C         -11.230000     -2.404000      5.761000
C          -9.578000     -2.571000      7.251000
C         -13.113000      0.307000      4.596000
C         -12.814000      2.723000      5.100000
C          -9.428000      2.306000      9.715000
C         -11.741000     -1.958000      8.123000
C          -6.798000      0.383000      6.436000
C          -9.339000      4.045000      7.399000
C          -7.578000      1.327000      8.540000
C         -13.335000      2.490000      6.391000
C         -11.651000      2.237000      9.467000
$end

--------------------------------------------------------------

             Standard Nuclear Orientation (Angstroms)
    I     Atom           X                Y                Z
 ----------------------------------------------------------------
    1      O     -11.0220529612     3.5521793801     1.5206594822
    2      C     -12.3979737423     3.9184507857     1.2871808717
    3      H     -12.6674131246     4.0042689602     0.2268909773
    4      H     -12.5552815801     4.8628761278     1.8227936211
    5      H     -13.1244090510     3.2153896281     1.7111864744
    6      O      -9.9836619180     5.6528605108     1.7276832216
    7      C      -9.9445325828     4.4512651455     1.6571461872
    8      C      -8.6535201791     3.6945695456     1.6640557884
    9      H      -8.8812421170     3.0108168718     0.8371204827
   10      H      -8.5490169702     3.0820828713     2.5671599646
   11      C      -7.3976944510     4.5086377862     1.4290586812
   12      H      -7.5130723061     5.2023008117     0.5873315535
   13      H      -7.3216950665     5.2134850753     2.2663999453
   14      C      -6.0879535833     3.6777346213     1.3093014678
   15      H      -5.2236730936     4.3327876427     1.4751440870
   16      H      -6.1698979602     3.1076880961     2.2438719992
   17      C      -5.8885012082     2.8718397367     0.0428603183
   18      C      -5.9820859011     3.7242703633    -1.1810158732
   19      C      -7.2880708649     4.0167418713    -1.7220470102
   20      H      -8.1914134650     3.6019074347    -1.2849583041
   21      C      -7.4848146094     4.8396386457    -2.8561236380
   22      H      -8.4909030806     4.9868039699    -3.2358779736
   23      C      -6.4421025682     5.4629490823    -3.5224303982
   24      H      -6.6372952392     6.0611535509    -4.4078869104
   25      C      -5.1695494161     5.2379515931    -2.9684930325
   26      H      -4.2601532514     5.6280318498    -3.4163791887
   27      C      -4.9317249560     4.4063027344    -1.8450360009
   28      H      -3.9004223818     4.3247867189    -1.5142246656
   29      C      -6.4220977522    -1.9327325893    -2.7257482659
   30      C      -4.2702802597    -1.1982960554    -3.4991908664
   31      C      -1.8109685715    -4.2175451532    -1.1397784595
   32      C      -6.8051374075    -2.0155536567     2.3014027457
   33      C      -1.2167743365    -2.1232956380     1.5404435796
   34      C      -5.6137821939    -0.8945519947    -3.0802874190
   35      C      -4.2303532689    -2.7269668334     3.3008120371
   36      C      -3.8844742547    -4.5102104441    -2.3415817751
   37      C      -2.6453931783     1.0766008094    -0.5432936714
   38      C      -5.9676278250    -1.0026523152     2.8123915635
   39      C      -4.7773355562     1.8729906046     0.0862228026
   40      C      -2.7477436341     1.0261811515     0.8559730088
   41      C      -3.8659624953    -0.3694773234     2.9896407429
   42      C      -2.9354951141    -3.0092751650     2.9034792234
   43      C      -4.3059255997     0.7093144701    -2.2746532015
   44      C      -1.9862375132    -4.3834726595     1.1169022580
   45      C      -6.1956660555     1.3807094766    -0.0509336250
   46      C      -6.7108116115     0.4631163478     1.0594950788
   47      C      -1.1363400029    -3.3376802183     0.8056412871
   48      C      -5.9493822789    -4.9625350613     0.4921308589
   49      C      -3.7573079179    -5.3603387741    -0.1118850367
   50      C      -4.4973494180    -5.1982511843    -1.2487492289
   51      C      -4.6307758136    -3.6022060353    -3.1127535956
   52      C      -7.4516956978    -0.6319344160     0.4981675492
   53      C      -3.9032520836     1.4076931848    -1.0659587777
   54      C      -3.7840478200    -2.5181464813    -3.4427650928
   55      C      -4.6895173375    -1.3728995863     3.3868134815
   56      C      -3.4505227063    -0.1507755896    -2.9160953105
   57      C      -2.0101494250     0.0741312520     1.5698720013
   58      C      -7.5087183170    -3.0562483907     0.4275688752
   59      C      -2.5807827538    -3.9796068659    -2.2986712484
   60      C      -3.9953886528     1.4160138975     1.2737855713
   61      C      -6.5310306823    -3.8885886873    -1.6101903156
   62      C      -2.4927680035    -0.6252202330     2.6372823292
   63      C      -1.7882676778     0.1926206062    -1.1962376789
   64      C      -4.2172005251    -4.6865916030     2.1166922088
   65      C      -5.0283180344    -3.6832783793     2.7296750482
   66      C      -1.0987201663    -0.7654732160    -0.5180176135
   67      C      -7.5503044993    -1.8747016365     1.0990268837
   68      C      -5.8677408659     0.2508259775     2.1543514696
   69      C      -6.7989045565    -4.0051278125     1.1827134099
   70      C      -6.5648645952     0.5373219599    -1.2713699957
   71      C      -1.7352631188    -1.7004519819    -2.4358520112
   72      C      -4.5510188652     0.6840970538     2.3327817002
   73      C      -1.1401918843    -0.8416069015     0.9041306764
   74      C      -7.3354739144    -3.0235245155    -0.9494512862
   75      C      -1.0056147635    -3.2022402759    -0.6126890459
   76      C      -5.9307596693    -3.2456314225    -2.6978638266
   77      C      -2.4199774371    -4.9436754276    -0.0464569028
   78      C      -2.1846534971    -0.3962768017    -2.4115130079
   79      C      -1.0249010967    -1.9158816892    -1.2642783520
   80      C      -5.6031008434     0.2684452416    -2.3242184160
   81      C      -7.3368241567    -0.5929822493    -0.9240058782
   82      C      -4.6658782907    -5.2380346863     0.9480293881
   83      C      -2.5366383959    -2.7661050374    -2.9611435784
   84      C      -2.0759701882    -1.8986694849     2.6238814318
   85      C      -6.3721121127    -3.3586063655     2.2902440996
   86      C      -2.9356985789    -4.1677870378     2.1992184768
   87      C      -7.2776457116    -1.7941713836    -1.6510578539
   88      C      -5.8701526711    -4.9273541877    -0.9256346278
   89      O       4.0242977499     8.7515281372     3.1834077434
   90      C       3.0011917236     9.7236535909     3.5851130598
   91      H       3.2860009571    10.3425188573     4.4442611743
   92      H       2.2025753186     9.0314366332     3.8784959514
   93      H       2.5716819615    10.2884800390     2.7478894053
   94      O       2.6246125066     7.9846968985     1.4847838677
   95      C       3.6761805471     7.8452848701     2.1395463762
   96      C       4.7323214874     6.8563239362     1.8462673529
   97      H       4.8882548761     6.5225692832     2.8801017738
   98      H       5.5658989961     7.4536427881     1.4571918767
   99      C       4.2925186663     5.6770850454     0.9091680428
  100      H       3.8657346619     4.8836102050     1.5348948932
  101      H       3.4991803245     6.0796303263     0.2671457905
  102      C       5.4750716978     5.0514754678     0.1253823681
  103      H       6.0607515493     5.8334604711    -0.3755643019
  104      H       6.1708099387     4.6583818419     0.8765233013
  105      C       5.0911831140     3.8064777615    -0.8074301889
  106      C       4.6740524589     4.3750710258    -2.0994192432
  107      C       5.7354707581     4.7990851894    -2.9179234786
  108      H       6.7660929268     4.7364729185    -2.5796164453
  109      C       5.5506593791     5.2079846467    -4.2157982754
  110      H       6.4102970302     5.4685063878    -4.8261395989
  111      C       4.2699470758     5.1382165531    -4.7716538406
  112      H       4.0071512687     5.4612010651    -5.7749525841
  113      C       3.2309569596     4.8583071448    -3.9057703257
  114      H       2.2111760378     4.8687591683    -4.2781768598
  115      C       3.3765508520     4.3916087560    -2.5484037457
  116      H       2.5648591111     3.9410579029    -1.9861053850
  117      C       2.2330205181    -0.8031699396    -1.4410078457
  118      C       3.9913300028    -1.0537267689    -3.0048614294
  119      C       6.2673810012    -4.2728807830    -0.7860283384
  120      C       4.1672711287     0.1796810263     3.1641017680
  121      C       8.6114847408    -1.9891461541     0.6094127398
  122      C       3.0972594461    -0.2061508403    -2.3596499254
  123      C       6.6025405896    -1.0191856646     3.4836237700
  124      C       3.9224183154    -4.0312079627    -1.1284976801
  125      C       7.3231595431     0.9764428649    -1.8548435284
  126      C       5.2875732754     0.9593749010     3.0756678276
  127      C       5.8245523972     2.4676846055    -0.8655712235
  128      C       7.8370288824     1.2692199036    -0.5809051831
  129      C       7.3863614695     0.8230400171     2.1933306382
  130      C       7.5141070244    -1.8708834908     2.8166429249
  131      C       5.0243910640     0.9877736297    -2.6701496631
  132      C       7.1334888098    -3.8142077258     1.3223364997
  133      C       4.5170939145     2.5403674529    -0.2163428202
  134      C       4.2924988331     2.1972456892     1.2376205579
  135      C       7.9496389137    -3.2320802077     0.3233532363
  136      C       3.2720066269    -3.0996935365     2.2837723135
  137      C       4.7937750357    -4.4382948741     1.1604609723
  138      C       3.7361190991    -4.1549659835     0.2710692366
  139      C       3.2501037994    -3.0313405788    -1.7790954101
  140      C       3.0830881552     1.3904013679     1.3636247383
  141      C       6.0975627964     1.6801944144    -2.0591530266
  142      C       4.0536392083    -2.4073704746    -2.7258573421
  143      C       6.5006604203     0.3010537939     3.1854808457
  144      C       5.2057219307    -0.3249814386    -3.1124880488
  145      C       8.5001263845     0.2661329191     0.1167316884
  146      C       2.3670959160    -0.7995882486     2.1766029624
  147      C       5.2088567410    -4.0975174533    -1.6917811155
  148      C       6.9339592992     2.0502303091     0.0834125679
  149      C       2.1667100112    -2.3393016741     0.2907219862
  150      C       8.3983696928     0.0395381008     1.5574587146
  151      C       7.5400002985    -0.2995430675    -2.4050989121
  152      C       5.5676183978    -3.0426267112     3.0263542785
  153      C       5.4054235031    -1.7736079346     3.6182184191
  154      C       8.1974778536    -1.3081009937    -1.7108509923
  155      C       3.0209328829     0.3701899203     2.3511946468
  156      C       5.4190869636     1.8837555358     2.0097533884
  157      C       3.0903514760    -1.8063461634     2.8774851892
  158      C       3.4443255433     1.7181153529    -0.8698208271
  159      C       6.4561516238    -2.3466833301    -2.7836947330
  160      C       6.6787223046     1.7901474916     1.4727260691
  161      C       8.6763702126    -1.0542127143    -0.4512749327
  162      C       1.9859054616    -1.0775108084     0.8348217253
  163      C       7.4744773687    -3.5567574517    -0.9806863311
  164      C       2.3478548634    -2.1809214958    -1.1340587905
  165      C       6.0906411701    -4.4834841452     0.6015592286
  166      C       6.4789324091    -0.9541248983    -3.0355817118
  167      C       7.5868292215    -2.5884228050    -1.9969633962
  168      C       3.7300996002     1.0087069520    -2.1170805872
  169      C       2.5497837714     1.0833961604     0.0696404893
  170      C       4.5233592274    -3.7913016815     2.3673417036
  171      C       5.3108943281    -3.0771441009    -2.6262438234
  172      C       8.4111896497    -1.3427254791     1.8614571429
  173      C       4.1511708628    -1.1400495447     3.4755997639
  174      C       6.8100782007    -3.0699487017     2.4774880409
  175      C       1.9746223231    -0.1705396812    -0.2290988850
  176      C       2.8119932782    -3.3596725377     0.9915085486
 ----------------------------------------------------------------

   10   -5804.2142596567      3.31E-06 Convergence criterion met
 Total energy in the final basis set = -5804.2142596567

                    Orbital Energies (a.u.)
 --------------------------------------------------------------

 Alpha MOs
 -- Occupied --
-19.187 -19.187 -19.145 -19.140 -10.323 -10.321 -10.248 -10.247
-10.245 -10.243 -10.241 -10.239 -10.236 -10.234 -10.234 -10.232
-10.230 -10.230 -10.229 -10.228 -10.227 -10.227 -10.226 -10.225
-10.224 -10.222 -10.221 -10.221 -10.221 -10.221 -10.221 -10.220
-10.220 -10.220 -10.220 -10.219 -10.219 -10.218 -10.218 -10.218
-10.218 -10.217 -10.217 -10.217 -10.217 -10.217 -10.217 -10.217
-10.217 -10.217 -10.216 -10.216 -10.216 -10.216 -10.216 -10.216
-10.216 -10.216 -10.216 -10.216 -10.215 -10.215 -10.215 -10.215
-10.215 -10.215 -10.215 -10.215 -10.215 -10.215 -10.215 -10.215
-10.215 -10.215 -10.215 -10.214 -10.214 -10.214 -10.214 -10.213
-10.213 -10.213 -10.213 -10.213 -10.213 -10.213 -10.213 -10.212
-10.212 -10.212 -10.212 -10.212 -10.212 -10.212 -10.212 -10.212
-10.212 -10.212 -10.211 -10.211 -10.211 -10.211 -10.211 -10.210
-10.210 -10.210 -10.210 -10.210 -10.210 -10.210 -10.210 -10.210
-10.210 -10.210 -10.209 -10.209 -10.209 -10.209 -10.208 -10.208
-10.207 -10.207 -10.207 -10.207 -10.207 -10.207 -10.207 -10.207
-10.206 -10.205 -10.205 -10.205 -10.205 -10.204 -10.204 -10.202
-10.201 -10.201 -10.200 -10.200 -10.199 -10.197 -10.196 -10.194
-10.194 -10.193 -10.192 -10.190  -1.083  -1.070  -1.018  -0.995
 -0.984  -0.982  -0.966  -0.966  -0.965  -0.964  -0.963  -0.957
 -0.937  -0.935  -0.931  -0.928  -0.927  -0.925  -0.925  -0.920
 -0.920  -0.915  -0.901  -0.897  -0.896  -0.889  -0.886  -0.880
 -0.874  -0.871  -0.854  -0.850  -0.842  -0.841  -0.841  -0.837
 -0.836  -0.835  -0.822  -0.817  -0.809  -0.806  -0.800  -0.798
 -0.796  -0.795  -0.794  -0.791  -0.791  -0.787  -0.786  -0.785
 -0.770  -0.770  -0.769  -0.768  -0.767  -0.767  -0.765  -0.763
 -0.748  -0.748  -0.742  -0.741  -0.737  -0.734  -0.717  -0.717
 -0.713  -0.713  -0.712  -0.712  -0.710  -0.710  -0.708  -0.707
 -0.706  -0.706  -0.705  -0.705  -0.704  -0.697  -0.674  -0.674
 -0.660  -0.658  -0.657  -0.655  -0.650  -0.648  -0.633  -0.631
 -0.630  -0.628  -0.626  -0.625  -0.623  -0.621  -0.618  -0.617
 -0.614  -0.613  -0.612  -0.610  -0.609  -0.609  -0.607  -0.607
 -0.606  -0.605  -0.602  -0.601  -0.566  -0.563  -0.562  -0.562
 -0.560  -0.559  -0.558  -0.556  -0.555  -0.553  -0.553  -0.547
 -0.539  -0.538  -0.536  -0.531  -0.529  -0.527  -0.526  -0.525
 -0.523  -0.521  -0.521  -0.519  -0.515  -0.515  -0.513  -0.511
 -0.507  -0.504  -0.502  -0.495  -0.493  -0.492  -0.490  -0.487
 -0.485  -0.483  -0.482  -0.482  -0.480  -0.478  -0.473  -0.473
 -0.472  -0.471  -0.471  -0.469  -0.469  -0.467  -0.467  -0.466
 -0.466  -0.465  -0.464  -0.463  -0.461  -0.460  -0.458  -0.457
 -0.456  -0.455  -0.452  -0.450  -0.448  -0.447  -0.445  -0.445
 -0.444  -0.442  -0.439  -0.439  -0.438  -0.436  -0.435  -0.433
 -0.432  -0.431  -0.430  -0.428  -0.428  -0.427  -0.426  -0.424
 -0.422  -0.422  -0.421  -0.420  -0.419  -0.418  -0.418  -0.417
 -0.417  -0.416  -0.416  -0.414  -0.413  -0.412  -0.412  -0.411
 -0.410  -0.409  -0.408  -0.407  -0.406  -0.401  -0.401  -0.398
 -0.395  -0.394  -0.391  -0.390  -0.388  -0.386  -0.383  -0.380
 -0.378  -0.376  -0.374  -0.370  -0.370  -0.368  -0.367  -0.366
 -0.364  -0.364  -0.362  -0.361  -0.361  -0.359  -0.358  -0.357
 -0.355  -0.354  -0.354  -0.353  -0.351  -0.351  -0.350  -0.349
 -0.349  -0.348  -0.347  -0.346  -0.346  -0.345  -0.344  -0.344
 -0.340  -0.340  -0.339  -0.338  -0.338  -0.337  -0.334  -0.333
 -0.332  -0.331  -0.330  -0.328  -0.327  -0.326  -0.326  -0.321
 -0.315  -0.305  -0.300  -0.291  -0.290  -0.288  -0.275  -0.273
 -0.271  -0.270  -0.269  -0.268  -0.266  -0.265  -0.265  -0.263
 -0.262  -0.260  -0.259  -0.258  -0.257  -0.255  -0.254  -0.253
 -0.249  -0.247  -0.245  -0.239  -0.224  -0.222  -0.213  -0.210
 -0.209  -0.208  -0.205  -0.204  -0.198  -0.196

          Ground-State Mulliken Net Atomic Charges

     Atom                 Charge (a.u.)
  ----------------------------------------
      1 O                    -0.499681
      2 C                    -0.082466
      3 H                     0.121217
      4 H                     0.130285
      5 H                     0.126500
      6 O                    -0.446001
      7 C                     0.599397
      8 C                    -0.255571
      9 H                     0.133372
     10 H                     0.137045
     11 C                    -0.194568
     12 H                     0.124037
     13 H                     0.113739
     14 C                    -0.191907
     15 H                     0.117189
     16 H                     0.108179
     17 C                     0.031527
     18 C                     0.090039
     19 C                    -0.105219
     20 H                     0.085539
     21 C                    -0.090913
     22 H                     0.088161
     23 C                    -0.070281
     24 H                     0.098474
     25 C                    -0.094763
     26 H                     0.087820
     27 C                    -0.116902
     28 H                     0.090968
     29 C                     0.003312
     30 C                    -0.022072
     31 C                    -0.025991
     32 C                    -0.018087
     33 C                     0.003691
     34 C                    -0.014670
     35 C                    -0.012881
     36 C                     0.003435
     37 C                    -0.010564
     38 C                    -0.023031
     39 C                    -0.111847
     40 C                     0.020925
     41 C                     0.002636
     42 C                     0.010946
     43 C                     0.007934
     44 C                    -0.013082
     45 C                    -0.078711
     46 C                     0.023462
     47 C                     0.004728
     48 C                     0.008300
     49 C                     0.034326
     50 C                    -0.013330
     51 C                    -0.033517
     52 C                     0.011366
     53 C                     0.031892
     54 C                     0.008928
     55 C                    -0.010273
     56 C                    -0.003001
     57 C                    -0.002296
     58 C                     0.009711
     59 C                     0.003169
     60 C                     0.047713
     61 C                     0.020414
     62 C                     0.010130
     63 C                    -0.004920
     64 C                    -0.037632
     65 C                    -0.004079
     66 C                     0.020445
     67 C                    -0.006066
     68 C                     0.016768
     69 C                    -0.005079
     70 C                     0.025163
     71 C                    -0.012422
     72 C                    -0.017820
     73 C                    -0.029418
     74 C                     0.006787
     75 C                    -0.003037
     76 C                     0.009528
     77 C                     0.008466
     78 C                    -0.016419
     79 C                     0.017439
     80 C                     0.021404
     81 C                    -0.006700
     82 C                     0.007562
     83 C                     0.022925
     84 C                    -0.006740
     85 C                     0.005399
     86 C                     0.025520
     87 C                    -0.005059
     88 C                    -0.036125
     89 O                    -0.502384
     90 C                    -0.078891
     91 H                     0.127004
     92 H                     0.125128
     93 H                     0.135677
     94 O                    -0.478998
     95 C                     0.590468
     96 C                    -0.258542
     97 H                     0.140536
     98 H                     0.146178
     99 C                    -0.181231
    100 H                     0.111183
    101 H                     0.140974
    102 C                    -0.194868
    103 H                     0.110913
    104 H                     0.102034
    105 C                     0.004798
    106 C                     0.095785
    107 C                    -0.085522
    108 H                     0.085824
    109 C                    -0.094898
    110 H                     0.088035
    111 C                    -0.071550
    112 H                     0.091537
    113 C                    -0.106859
    114 H                     0.080354
    115 C                    -0.106857
    116 H                     0.101275
    117 C                     0.009072
    118 C                     0.011625
    119 C                     0.028550
    120 C                     0.044158
    121 C                    -0.001213
    122 C                    -0.004128
    123 C                     0.005283
    124 C                     0.007994
    125 C                    -0.002422
    126 C                    -0.021666
    127 C                    -0.073707
    128 C                     0.007891
    129 C                    -0.017609
    130 C                    -0.006287
    131 C                    -0.003957
    132 C                    -0.012758
    133 C                    -0.075445
    134 C                     0.008547
    135 C                    -0.011088
    136 C                     0.000292
    137 C                     0.004232
    138 C                     0.011547
    139 C                    -0.001339
    140 C                    -0.008221
    141 C                     0.039762
    142 C                    -0.004673
    143 C                     0.015010
    144 C                    -0.014991
    145 C                    -0.004499
    146 C                    -0.027490
    147 C                    -0.029525
    148 C                     0.026579
    149 C                    -0.006170
    150 C                    -0.033465
    151 C                     0.005277
    152 C                     0.020355
    153 C                    -0.040504
    154 C                     0.003070
    155 C                     0.001645
    156 C                    -0.012801
    157 C                    -0.002286
    158 C                    -0.000925
    159 C                     0.014775
    160 C                     0.034919
    161 C                     0.008652
    162 C                     0.030267
    163 C                     0.000359
    164 C                    -0.006255
    165 C                    -0.019283
    166 C                    -0.010537
    167 C                    -0.028369
    168 C                     0.013119
    169 C                    -0.022737
    170 C                    -0.027675
    171 C                     0.023522
    172 C                    -0.002779
    173 C                     0.010819
    174 C                     0.025653
    175 C                     0.007894
    176 C                    -0.007943
  ----------------------------------------
  Sum of atomic charges =     0.000000

                    Cartesian Multipole Moments
 -----------------------------------------------------------------
    Charge (ESU x 10^10)
                 0.0000
    Dipole Moment (Debye)
         X      -0.8787      Y       3.2293      Z      -0.3909
       Tot       3.3694
    Quadrupole Moments (Debye-Ang)
        XX    -776.3397     XY      13.4223     YY    -807.2990
        XZ       4.1599     YZ      -1.9280     ZZ    -796.3048

 Total job time:  927.37s(wall), 8838.64s(cpu)
        *  Thank you very much for using Q-Chem.  Have a nice day.  *
