 Q-Chem 4.4, Q-Chem, Inc., Pleasanton, CA (2016)
 Q-Chem 4.4.2 for Intel X86 Linux

User input:
--------------------------------------------------------------
$comment
SP
$end

$rem
MEM_STATIC 5000
MEM_TOTAL 20000
JOBTYPE SP
EXCHANGE B3LYP
BASIS 6-31g(d,p)
$end

$molecule
0 1
O         -22.553000     -7.897000    -14.015000
C         -22.642000     -6.856000    -15.048000
H         -21.922000     -6.960000    -15.869000
H         -22.577000     -5.831000    -14.662000
H         -23.661000     -6.861000    -15.454000
O         -22.015000     -9.498000    -15.501000
C         -22.267000     -9.157000    -14.379000
C         -22.319000    -10.128000    -13.329000
H         -21.587000     -9.813000    -12.577000
H         -22.050000    -11.113000    -13.730000
C         -23.781000    -10.102000    -12.706000
H         -24.035000     -9.070000    -12.435000
H         -24.401000    -10.464000    -13.536000
C         -23.970000    -10.984000    -11.449000
H         -23.756000    -12.004000    -11.791000
H         -23.190000    -10.686000    -10.737000
C         -25.399000    -10.928000    -10.905000
C         -26.405000    -11.817000    -11.532000
C         -27.207000    -11.299000    -12.619000
H         -27.019000    -10.285000    -12.959000
C         -28.045000    -12.149000    -13.291000
H         -28.483000    -11.838000    -14.235000
C         -28.361000    -13.424000    -12.796000
H         -29.080000    -14.061000    -13.303000
C         -27.617000    -13.934000    -11.661000
H         -27.844000    -14.919000    -11.267000
C         -26.674000    -13.112000    -11.063000
H         -26.134000    -13.574000    -10.241000
C         -29.519000     -7.720000     -8.941000
C         -29.802000     -9.851000     -7.706000
C         -28.348000     -8.377000     -3.682000
C         -24.675000     -6.075000     -8.341000
C         -25.136000     -9.745000     -4.064000
C         -29.404000     -9.115000     -8.856000
C         -23.743000     -6.969000     -5.831000
C         -29.682000     -7.336000     -5.368000
C         -26.292000    -11.766000     -7.282000
C         -23.818000     -7.235000     -8.300000
C         -25.632000    -10.837000     -9.383000
C         -24.990000    -11.329000     -7.157000
C         -23.407000     -9.027000     -7.004000
C         -24.133000     -7.622000     -4.658000
C         -28.091000    -10.956000     -8.737000
C         -26.216000     -7.672000     -3.542000
C         -25.901000     -9.642000    -10.223000
C         -25.177000     -8.335000    -10.018000
C         -26.209000     -9.083000     -3.470000
C         -27.256000     -4.941000     -6.313000
C         -27.849000     -6.168000     -4.463000
C         -28.900000     -6.175000     -5.359000
C         -30.192000     -7.742000     -6.553000
C         -26.044000     -7.239000    -10.063000
C         -26.790000    -11.435000     -8.578000
C         -30.181000     -9.183000     -6.552000
C         -23.483000     -7.652000     -7.001000
C         -29.002000    -10.972000     -7.611000
C         -24.538000    -10.848000     -5.883000
C         -26.800000     -5.387000     -8.637000
C         -29.435000     -8.413000     -4.573000
C         -24.550000    -10.672000     -8.324000
C         -29.058000     -5.837000     -7.740000
C         -23.713000     -9.703000     -5.813000
C         -27.170000    -11.806000     -6.233000
C         -25.462000     -5.849000     -4.859000
C         -24.598000     -5.787000     -5.949000
C         -26.745000    -11.313000     -4.965000
C         -25.762000     -6.112000     -9.172000
C         -24.107000     -8.359000     -9.056000
C         -26.350000     -4.924000     -7.403000
C         -27.334000     -9.134000    -10.191000
C         -28.815000    -10.685000     -5.188000
C         -23.756000     -9.481000     -8.248000
C         -25.450000    -10.885000     -4.772000
C         -28.178000     -5.873000     -8.796000
C         -27.549000     -9.528000     -3.539000
C         -29.924000     -6.971000     -7.751000
C         -27.560000     -7.268000     -3.653000
C         -28.493000    -11.344000     -6.376000
C         -27.780000    -10.659000     -4.317000
C         -28.374000     -9.809000     -9.523000
C         -27.353000     -7.712000    -10.148000
C         -26.830000     -5.483000     -5.081000
C         -29.673000     -9.603000     -5.300000
C         -24.083000     -9.040000     -4.656000
C         -25.050000     -5.362000     -7.188000
C         -25.197000     -6.957000     -4.122000
C         -28.467000     -7.042000     -9.514000
C         -28.566000     -5.409000     -6.518000
O         -11.400000    -12.884000    -10.418000
C         -10.943000    -13.055000     -9.148000
H         -11.262000    -12.220000     -8.514000
H          -9.846000    -13.026000     -9.122000
H         -11.284000    -14.011000     -8.730000
O         -10.903000    -10.697000    -10.744000
C         -11.487000    -11.661000    -11.063000
C         -12.383000    -11.749000    -12.362000
H         -12.168000    -12.722000    -12.820000
H         -12.061000    -10.956000    -13.048000
C         -13.881000    -11.654000    -12.032000
H         -14.515000    -11.951000    -12.878000
H         -14.025000    -12.064000    -11.025000
C         -14.191000    -10.135000    -11.864000
H         -13.436000     -9.560000    -11.312000
H         -14.035000     -9.679000    -12.850000
C         -15.686000     -9.989000    -11.487000
C         -16.766000    -10.369000    -12.480000
C         -17.390000     -9.304000    -13.147000
H         -17.151000     -8.286000    -12.857000
C         -18.425000     -9.595000    -14.084000
H         -19.026000     -8.827000    -14.562000
C         -18.752000    -10.902000    -14.430000
H         -19.530000    -11.097000    -15.161000
C         -18.163000    -11.960000    -13.704000
H         -18.463000    -12.992000    -13.860000
C         -17.203000    -11.707000    -12.760000
H         -16.686000    -12.508000    -12.239000
C         -19.130000     -6.724000     -8.595000
C         -20.069000     -8.917000     -8.306000
C         -18.877000     -9.215000     -3.949000
C         -14.258000     -6.599000     -7.338000
C         -16.028000    -11.231000     -4.570000
C         -19.395000     -8.025000     -9.129000
C         -13.872000     -8.378000     -5.233000
C         -19.830000     -7.331000     -5.115000
C         -17.166000    -11.722000     -8.476000
C         -13.788000     -7.905000     -7.563000
C         -16.034000    -10.292000    -10.032000
C         -15.858000    -11.599000     -8.084000
C         -13.792000    -10.040000     -6.976000
C         -14.564000     -9.278000     -4.400000
C         -18.471000    -10.051000     -9.602000
C         -16.736000     -9.213000     -3.383000
C         -15.963000     -8.881000    -10.447000
C         -15.021000     -8.052000     -9.661000
C         -16.994000    -10.548000     -3.803000
C         -16.814000     -5.520000     -5.111000
C         -17.840000     -7.006000     -3.773000
C         -18.811000     -6.501000     -4.657000
C         -20.203000     -7.268000     -6.456000
C         -15.667000     -6.892000     -9.289000
C         -17.359000    -10.899000     -9.588000
C         -20.435000     -8.561000     -6.991000
C         -13.525000     -8.786000     -6.531000
C         -19.503000    -10.132000     -8.559000
C         -15.461000    -11.663000     -6.709000
C         -16.190000     -5.442000     -7.407000
C         -19.887000     -8.715000     -4.759000
C         -15.102000    -10.779000     -8.918000
C         -18.503000     -5.561000     -6.813000
C         -14.545000    -10.862000     -6.174000
C         -18.171000    -11.859000     -7.479000
C         -15.462000     -7.260000     -4.056000
C         -14.494000     -7.126000     -5.011000
C         -17.808000    -12.008000     -6.097000
C         -15.253000     -6.129000     -8.185000
C         -14.086000     -8.614000     -8.737000
C         -15.823000     -5.453000     -6.102000
C         -17.279000     -8.120000    -10.268000
C         -19.664000    -10.714000     -6.171000
C         -14.079000     -9.962000     -8.396000
C         -16.418000    -11.933000     -5.734000
C         -17.534000     -5.413000     -7.768000
C         -18.333000    -10.521000     -4.193000
C         -19.526000     -6.346000     -7.285000
C         -17.925000     -8.409000     -3.391000
C         -19.295000    -11.032000     -7.466000
C         -18.727000    -11.254000     -5.348000
C         -18.524000     -8.683000     -9.938000
C         -16.996000     -6.898000     -9.643000
C         -16.614000     -6.446000     -4.090000
C         -20.213000     -9.420000     -5.927000
C         -14.823000    -10.591000     -4.834000
C         -14.666000     -6.182000     -6.063000
C         -15.528000     -8.602000     -3.688000
C         -17.908000     -6.159000     -8.889000
C         -18.162000     -5.571000     -5.483000
$end

--------------------------------------------------------------

             Standard Nuclear Orientation (Angstroms)
    I     Atom           X                Y                Z
 ----------------------------------------------------------------
    1      O      -0.7902131662     5.2776579648     3.1122889723
    2      C      -0.8706394792     5.8949631482     4.4431371675
    3      H      -0.0885853035     6.6343390739     4.6552020322
    4      H      -0.8983391257     5.1769486774     5.2723138370
    5      H      -1.8556034872     6.3670814439     4.5439945800
    6      O      -0.0471262322     7.1681290481     2.1454477796
    7      C      -0.3998424240     6.0243807146     2.0673450414
    8      C      -0.4654121547     5.3797405308     0.7913416543
    9      H       0.1895053321     4.5033521286     0.8511701925
   10      H      -0.1066924724     6.0683478312     0.0164047696
   11      C      -1.9669730207     4.9183133108     0.5491663329
   12      H      -2.3044250047     4.3338459419     1.4137500785
   13      H      -2.5018485860     5.8737859254     0.4761991324
   14      C      -2.1893590589     4.0617773404    -0.7199217576
   15      H      -1.8873999771     4.7120946377    -1.5500230320
   16      H      -1.4827232104     3.2243510456    -0.6604997223
   17      C      -3.6543111250     3.6610162925    -0.9054454124
   18      C      -4.5546534791     4.6415775499    -1.5561137349
   19      C      -5.3079075618     5.5520615446    -0.7214136797
   20      H      -5.1605025992     5.5058469365     0.3534239764
   21      C      -6.0402606094     6.5463908341    -1.3141162002
   22      H      -6.4283342561     7.3616683102    -0.7104420483
   23      C      -6.3096838024     6.5484725591    -2.6917637638
   24      H      -6.9488519075     7.3049092466    -3.1379102321
   25      C      -5.6181063623     5.5955186552    -3.5376127464
   26      H      -5.8100313034     5.5847648662    -4.6053389159
   27      C      -4.7741663750     4.6706451256    -2.9418684623
   28      H      -4.2662834987     4.0121290909    -3.6412536323
   29      C      -8.0987965083     1.0916771684     1.2781310446
   30      C      -8.3342530411     0.6920687601    -1.1573049207
   31      C      -7.2681023171    -3.7058108607    -1.1206242100
   32      C      -3.4238302445    -0.4643039605     2.7794551798
   33      C      -3.9569880737    -3.1656879950    -2.1594128106
   34      C      -7.9022558605     1.4799606250    -0.0549416207
   35      C      -2.6192775499    -2.5883537840     1.1034279399
   36      C      -8.5410941658    -2.3669821534     0.3935958684
   37      C      -4.7496335800     0.6393059139    -2.9779697446
   38      C      -2.5003799923    -0.1814409892     1.7075605156
   39      C      -4.0009509264     2.2271494571    -1.3559126659
   40      C      -3.4901453217     0.2567680216    -2.5666887115
   41      C      -2.0707959660    -0.8160337418    -0.4072800464
   42      C      -3.0502025881    -3.4269090642     0.0711650598
   43      C      -6.4874400853     1.8826403788    -1.7764399037
   44      C      -5.2004154213    -4.2680886471    -0.4346478315
   45      C      -4.2841022542     2.6272064461     0.0461450116
   46      C      -3.6606757082     1.9231809736     1.2251859252
   47      C      -5.1094396243    -3.8525515480    -1.7819437617
   48      C      -6.2098718493    -2.5198013007     3.0500172994
   49      C      -6.8550617156    -3.7767516909     1.2379787366
   50      C      -7.8366759225    -2.8428358830     1.5057488105
   51      C      -8.9382788850    -1.0742159154     0.4062746982
   52      C      -4.5897497228     1.6668794315     2.2381326143
   53      C      -5.1734985664     1.7822725162    -2.2355771130
   54      C      -8.8363430308    -0.5823534751    -0.9443856667
   55      C      -2.2335505815    -1.2832357679     0.8778826678
   56      C      -7.4738724272     0.9161388784    -2.2133370136
   57      C      -3.1618060488    -1.1397710475    -2.5419308741
   58      C      -5.5614062405    -0.2340819558     3.4535113272
   59      C      -8.2840774332    -2.7634296602    -0.8830147902
   60      C      -3.0101310256     1.0838907848    -1.5310284342
   61      C      -7.8448658386    -0.7178039551     2.6426486438
   62      C      -2.4179399873    -1.6710187592    -1.4644388086
   63      C      -5.6961880000    -0.2498960999    -3.4095245018
   64      C      -4.4707782296    -3.7281745531     1.7568029071
   65      C      -3.5366150025    -2.8069204547     2.2227105711
   66      C      -5.3950541281    -1.6425324704    -3.3723717016
   67      C      -4.4440373377     0.4223059575     2.9953239829
   68      C      -2.6629140920     0.9364711866     0.9061317704
   69      C      -5.2310569525    -1.5868657828     3.4751969287
   70      C      -5.7449461108     2.5507569483     0.4616780439
   71      C      -7.4793157826    -1.4649181968    -2.7779648331
   72      C      -2.3004596031     0.5340284926    -0.4135710830
   73      C      -4.1468330262    -2.0849591379    -2.9933456805
   74      C      -6.8910169660     0.2038090228     3.0054624353
   75      C      -6.4102575492    -3.5162630117    -2.2214534280
   76      C      -8.6344632393    -0.2418548573     1.5535933647
   77      C      -6.5558572991    -4.1830848411    -0.0639394974
   78      C      -7.0321001327    -0.1567084844    -2.9726299583
   79      C      -6.5130394364    -2.3805396322    -3.0198106719
   80      C      -6.7853599442     2.2498887531    -0.4385810213
   81      C      -5.8567945787     2.0249669460     1.7789968337
   82      C      -5.8397631407    -3.5242025442     2.1295491110
   83      C      -8.3937499809    -1.6545629758    -1.7545993291
   84      C      -2.9109699055    -2.9473344638    -1.2569352612
   85      C      -3.9247105035    -1.7535668171     3.0350393200
   86      C      -4.1897328384    -4.0613582096     0.4718670569
   87      C      -7.0534277602     1.3016021828     2.1486783833
   88      C      -7.4696377535    -2.0511101994     2.6371401771
   89      O      10.3694623196     2.6297629368    -2.4238000779
   90      C      10.7442653835     1.4599357518    -3.0086222908
   91      H      10.3285731905     0.6092691569    -2.4567995431
   92      H      11.8325591440     1.3280391367    -2.9525333101
   93      H      10.4353107419     1.4269462463    -4.0614279339
   94      O      10.7493305644     2.1410079519    -0.2436457987
   95      C      10.2517507545     2.8216553336    -1.0568164294
   96      C       9.4583959648     4.1464290115    -0.7198833796
   97      H       9.7666845087     4.8890391187    -1.4656758457
   98      H       9.7779225783     4.4876059849     0.2724018698
   99      C       7.9376141744     3.9385855120    -0.7970379363
  100      H       7.3858405656     4.8879949098    -0.8040150352
  101      H       7.7480930735     3.1501154839    -1.5354699015
  102      C       7.5210176018     3.2885549348     0.5578024766
  103      H       8.1967176572     2.5080735285     0.9314764114
  104      H       7.7180737938     4.0405544902     1.3324853316
  105      C       5.9966348332     3.0190126918     0.5122595949
  106      C       5.0166670954     4.1740404601     0.4630347318
  107      C       4.3759682346     4.4884467278     1.6709849247
  108      H       4.5287881407     3.8471255643     2.5329003739
  109      C       3.4311620907     5.5565990862     1.6873216774
  110      H       2.8185959764     5.7939699957     2.5521492943
  111      C       3.2130151951     6.3571555814     0.5708919976
  112      H       2.5032217093     7.1768790276     0.6146718929
  113      C       3.8142080637     5.9882872934    -0.6521633245
  114      H       3.5919590095     6.5145141649    -1.5757707290
  115      C       4.6862570428     4.9332851941    -0.7091383062
  116      H       5.2142140617     4.6744839489    -1.6227105812
  117      C       2.1550268394    -0.4979242660     2.4508744243
  118      C       1.3382060355     0.0668324670     0.2626457784
  119      C       2.2316895245    -4.0119609851    -1.4861390084
  120      C       6.9068828387    -2.1499982376     2.3006274487
  121      C       5.2395190224    -2.9939617928    -3.0619998385
  122      C       2.0116756987     0.4708813629     1.4073955775
  123      C       7.2528464389    -3.5434233941    -0.0833896487
  124      C       1.2474622987    -3.4822302868     0.6511263367
  125      C       4.4173608586     0.9285961038    -2.2072738580
  126      C       7.4733691353    -1.5338880526     1.1707325351
  127      C       5.5652138762     1.7930515704    -0.2882610399
  128      C       5.6835500633     0.4034131490    -2.1826819552
  129      C       7.5622783554    -1.3509288378    -1.0341327842
  130      C       6.5612486861    -3.9524811436    -1.2397275343
  131      C       3.0933381699     1.5252359581    -0.2956968117
  132      C       4.3222626205    -4.7325570734    -1.6064985010
  133      C       5.5764357199     1.6913564544     1.1806566480
  134      C       6.4054797496     0.5883496015     1.7177440519
  135      C       4.1798671578    -3.8593404786    -2.7211308667
  136      C       4.1349568475    -4.3749856233     2.4515030029
  137      C       3.1117639408    -5.0258063191     0.5592491358
  138      C       2.1765715558    -4.2856772961     1.3055374396
  139      C       0.9681826211    -2.2164708347     1.1622377444
  140      C       5.6625003131    -0.0995453507     2.6537366222
  141      C       4.2528406103     1.7037420724    -1.0569678921
  142      C       0.8572467561    -1.2524085856     0.1277450119
  143      C       7.7169614829    -2.2205716591    -0.0037811484
  144      C       1.9965077477     0.6694019586    -0.7689252873
  145      C       5.9843493411    -0.8959377694    -2.7056895895
  146      C       4.9155385183    -2.3099615637     3.3422576766
  147      C       1.2526939200    -3.3358544799    -0.7715428987
  148      C       6.4439822207     0.8351225330    -1.0987714691
  149      C       2.5781047271    -2.6188339348     2.9448068871
  150      C       6.8072496277    -1.7522924876    -2.1087191423
  151      C       3.3542387039     0.1325686450    -2.7161103437
  152      C       5.5152075501    -4.8857637017     0.5014920407
  153      C       6.5386817216    -4.1246946674     0.9916752160
  154      C       3.6260634372    -1.1411762600    -3.3223934717
  155      C       5.9473631013    -1.4303433972     3.0004508436
  156      C       7.3055750485    -0.1664526114     0.9029145775
  157      C       5.1881367992    -3.5593370462     2.8921620412
  158      C       4.2055468693     1.3803200539     1.7864108199
  159      C       1.7020726674    -1.3501729150    -2.1479881262
  160      C       7.3733131667    -0.0240807753    -0.4785975678
  161      C       4.9789871113    -1.6300884451    -3.3299039535
  162      C       3.6016896604    -1.8626511860     3.4481472637
  163      C       2.8731978327    -3.3846680828    -2.6068881799
  164      C       1.6431723743    -1.8173574500     2.3372915046
  165      C       3.0884628838    -4.8947437017    -0.8912120499
  166      C       2.1821852724    -0.0629247171    -1.9842995082
  167      C       2.6099988330    -2.0182332492    -2.9071083193
  168      C       2.9781884942     1.3754291427     1.1012382156
  169      C       4.3652934856     0.3518764487     2.7249110968
  170      C       4.3194680840    -5.0303542623     1.2364455760
  171      C       1.0563454930    -1.9729088191    -1.0386597663
  172      C       6.4174698045    -3.0736208622    -2.3289190873
  173      C       6.3831242846    -3.4489940142     2.2353208694
  174      C       5.5079672545    -4.7642014272    -0.8862810645
  175      C       3.3567868255    -0.5253398299     3.1246446542
  176      C       2.8229689647    -3.8896186449     2.4860817779
 ----------------------------------------------------------------

    9   -5804.2126590801      8.78E-06 Convergence criterion met
 Total energy in the final basis set = -5804.2126590801

                    Orbital Energies (a.u.)
 --------------------------------------------------------------

 Alpha MOs
 -- Occupied --
-19.199 -19.184 -19.146 -19.130 -10.321 -10.310 -10.253 -10.241
-10.240 -10.240 -10.240 -10.238 -10.237 -10.235 -10.232 -10.229
-10.228 -10.226 -10.225 -10.224 -10.224 -10.224 -10.223 -10.223
-10.222 -10.221 -10.221 -10.221 -10.220 -10.220 -10.219 -10.219
-10.218 -10.218 -10.218 -10.218 -10.217 -10.217 -10.217 -10.217
-10.216 -10.216 -10.216 -10.216 -10.216 -10.216 -10.216 -10.216
-10.215 -10.215 -10.215 -10.215 -10.215 -10.215 -10.214 -10.214
-10.214 -10.214 -10.214 -10.214 -10.214 -10.214 -10.214 -10.214
-10.213 -10.213 -10.213 -10.213 -10.213 -10.213 -10.212 -10.212
-10.212 -10.212 -10.212 -10.212 -10.212 -10.212 -10.212 -10.211
-10.211 -10.211 -10.211 -10.211 -10.211 -10.211 -10.211 -10.211
-10.211 -10.210 -10.210 -10.210 -10.210 -10.210 -10.210 -10.210
-10.210 -10.210 -10.210 -10.210 -10.209 -10.209 -10.209 -10.209
-10.209 -10.208 -10.208 -10.208 -10.208 -10.208 -10.208 -10.208
-10.208 -10.208 -10.208 -10.207 -10.206 -10.206 -10.206 -10.206
-10.206 -10.205 -10.205 -10.205 -10.205 -10.204 -10.204 -10.204
-10.204 -10.203 -10.203 -10.203 -10.203 -10.202 -10.202 -10.202
-10.202 -10.202 -10.202 -10.201 -10.201 -10.200 -10.200 -10.199
-10.199 -10.199 -10.198 -10.196  -1.108  -1.104  -1.038  -1.018
 -0.986  -0.985  -0.968  -0.967  -0.965  -0.964  -0.963  -0.962
 -0.935  -0.934  -0.930  -0.929  -0.929  -0.927  -0.927  -0.925
 -0.923  -0.920  -0.898  -0.898  -0.896  -0.894  -0.888  -0.884
 -0.877  -0.875  -0.854  -0.851  -0.842  -0.841  -0.841  -0.839
 -0.837  -0.836  -0.823  -0.822  -0.810  -0.807  -0.801  -0.800
 -0.797  -0.796  -0.795  -0.793  -0.793  -0.792  -0.785  -0.784
 -0.772  -0.771  -0.769  -0.768  -0.767  -0.766  -0.764  -0.761
 -0.756  -0.751  -0.745  -0.743  -0.733  -0.731  -0.718  -0.717
 -0.716  -0.713  -0.713  -0.712  -0.712  -0.712  -0.710  -0.710
 -0.709  -0.709  -0.706  -0.704  -0.703  -0.700  -0.675  -0.672
 -0.660  -0.659  -0.659  -0.658  -0.649  -0.643  -0.633  -0.631
 -0.629  -0.628  -0.625  -0.622  -0.621  -0.619  -0.618  -0.616
 -0.614  -0.614  -0.613  -0.613  -0.611  -0.610  -0.609  -0.608
 -0.607  -0.605  -0.604  -0.604  -0.572  -0.571  -0.565  -0.564
 -0.563  -0.562  -0.559  -0.558  -0.557  -0.556  -0.555  -0.554
 -0.535  -0.535  -0.533  -0.531  -0.529  -0.528  -0.526  -0.526
 -0.523  -0.522  -0.520  -0.519  -0.517  -0.516  -0.514  -0.514
 -0.509  -0.508  -0.505  -0.502  -0.494  -0.492  -0.489  -0.488
 -0.486  -0.485  -0.484  -0.481  -0.480  -0.478  -0.478  -0.477
 -0.476  -0.474  -0.473  -0.470  -0.470  -0.469  -0.469  -0.467
 -0.467  -0.466  -0.465  -0.464  -0.463  -0.461  -0.460  -0.459
 -0.458  -0.456  -0.452  -0.452  -0.451  -0.450  -0.444  -0.442
 -0.442  -0.441  -0.439  -0.439  -0.438  -0.436  -0.435  -0.433
 -0.433  -0.431  -0.431  -0.428  -0.428  -0.427  -0.426  -0.425
 -0.424  -0.423  -0.423  -0.422  -0.420  -0.419  -0.419  -0.418
 -0.418  -0.417  -0.416  -0.416  -0.416  -0.414  -0.414  -0.413
 -0.412  -0.410  -0.410  -0.409  -0.405  -0.405  -0.400  -0.399
 -0.398  -0.395  -0.392  -0.391  -0.390  -0.389  -0.386  -0.384
 -0.382  -0.377  -0.376  -0.375  -0.373  -0.369  -0.368  -0.367
 -0.366  -0.365  -0.364  -0.363  -0.362  -0.361  -0.361  -0.360
 -0.358  -0.356  -0.356  -0.355  -0.353  -0.353  -0.353  -0.352
 -0.350  -0.349  -0.347  -0.347  -0.346  -0.346  -0.344  -0.344
 -0.343  -0.341  -0.340  -0.339  -0.338  -0.337  -0.336  -0.334
 -0.333  -0.333  -0.331  -0.329  -0.328  -0.327  -0.326  -0.324
 -0.305  -0.303  -0.301  -0.294  -0.290  -0.288  -0.274  -0.273
 -0.272  -0.270  -0.268  -0.267  -0.266  -0.265  -0.264  -0.264
 -0.263  -0.262  -0.261  -0.259  -0.258  -0.257  -0.255  -0.253
 -0.250  -0.247  -0.246  -0.243  -0.222  -0.220  -0.212  -0.211
 -0.209  -0.207  -0.204  -0.203  -0.200  -0.198

          Ground-State Mulliken Net Atomic Charges

     Atom                 Charge (a.u.)
  ----------------------------------------
      1 O                    -0.469470
      2 C                    -0.097664
      3 H                     0.142827
      4 H                     0.128072
      5 H                     0.126205
      6 O                    -0.483487
      7 C                     0.611735
      8 C                    -0.248635
      9 H                     0.131498
     10 H                     0.132483
     11 C                    -0.211415
     12 H                     0.129439
     13 H                     0.113101
     14 C                    -0.190492
     15 H                     0.113134
     16 H                     0.115198
     17 C                     0.029668
     18 C                     0.061948
     19 C                    -0.091494
     20 H                     0.094058
     21 C                    -0.087909
     22 H                     0.089609
     23 C                    -0.089652
     24 H                     0.091797
     25 C                    -0.095545
     26 H                     0.093900
     27 C                    -0.094067
     28 H                     0.091770
     29 C                    -0.032010
     30 C                     0.009923
     31 C                    -0.004237
     32 C                    -0.019283
     33 C                     0.004631
     34 C                     0.013716
     35 C                    -0.013405
     36 C                     0.032737
     37 C                     0.019936
     38 C                    -0.034854
     39 C                    -0.109526
     40 C                     0.018860
     41 C                     0.009252
     42 C                    -0.014950
     43 C                    -0.008210
     44 C                    -0.004347
     45 C                    -0.058849
     46 C                     0.010573
     47 C                    -0.009027
     48 C                    -0.014695
     49 C                     0.001873
     50 C                    -0.003030
     51 C                    -0.007301
     52 C                    -0.000678
     53 C                     0.027438
     54 C                    -0.018751
     55 C                     0.040757
     56 C                    -0.015207
     57 C                    -0.045912
     58 C                     0.000357
     59 C                    -0.001736
     60 C                     0.022078
     61 C                    -0.000781
     62 C                     0.013940
     63 C                    -0.021409
     64 C                    -0.001799
     65 C                    -0.030119
     66 C                     0.006767
     67 C                     0.005326
     68 C                     0.014729
     69 C                    -0.021865
     70 C                     0.022416
     71 C                     0.019523
     72 C                    -0.023217
     73 C                    -0.008316
     74 C                     0.004883
     75 C                    -0.011989
     76 C                    -0.028753
     77 C                     0.003619
     78 C                     0.011232
     79 C                     0.014061
     80 C                     0.016612
     81 C                     0.003921
     82 C                     0.001550
     83 C                    -0.011686
     84 C                    -0.001005
     85 C                     0.031725
     86 C                     0.040997
     87 C                     0.016783
     88 C                     0.009202
     89 O                    -0.454278
     90 C                    -0.080854
     91 H                     0.114474
     92 H                     0.111895
     93 H                     0.119054
     94 O                    -0.419701
     95 C                     0.566762
     96 C                    -0.239794
     97 H                     0.120122
     98 H                     0.122861
     99 C                    -0.190025
    100 H                     0.120248
    101 H                     0.120211
    102 C                    -0.216481
    103 H                     0.135798
    104 H                     0.107843
    105 C                     0.017657
    106 C                     0.069264
    107 C                    -0.102395
    108 H                     0.098266
    109 C                    -0.109504
    110 H                     0.097268
    111 C                    -0.088297
    112 H                     0.115256
    113 C                    -0.097555
    114 H                     0.092169
    115 C                    -0.090418
    116 H                     0.092659
    117 C                    -0.019576
    118 C                     0.004863
    119 C                     0.029066
    120 C                    -0.024970
    121 C                     0.000213
    122 C                     0.016699
    123 C                    -0.013172
    124 C                    -0.004358
    125 C                     0.012693
    126 C                     0.022617
    127 C                    -0.074716
    128 C                     0.020267
    129 C                    -0.030056
    130 C                    -0.013963
    131 C                     0.017024
    132 C                    -0.015077
    133 C                    -0.106629
    134 C                     0.030201
    135 C                    -0.002157
    136 C                    -0.017390
    137 C                    -0.018305
    138 C                     0.017147
    139 C                    -0.014259
    140 C                     0.015357
    141 C                     0.020840
    142 C                     0.014996
    143 C                     0.005812
    144 C                    -0.032473
    145 C                     0.005734
    146 C                     0.012436
    147 C                    -0.027612
    148 C                     0.024064
    149 C                     0.027364
    150 C                     0.049144
    151 C                    -0.017604
    152 C                     0.015470
    153 C                    -0.002753
    154 C                    -0.024476
    155 C                    -0.009167
    156 C                     0.018223
    157 C                     0.022885
    158 C                     0.001891
    159 C                     0.002876
    160 C                    -0.039844
    161 C                    -0.028186
    162 C                    -0.016062
    163 C                    -0.000709
    164 C                    -0.002676
    165 C                    -0.004801
    166 C                    -0.000646
    167 C                     0.010553
    168 C                    -0.005913
    169 C                     0.024815
    170 C                     0.006761
    171 C                     0.007943
    172 C                    -0.009333
    173 C                    -0.016593
    174 C                     0.017179
    175 C                    -0.014170
    176 C                    -0.009076
  ----------------------------------------
  Sum of atomic charges =     0.000000

                    Cartesian Multipole Moments
 -----------------------------------------------------------------
    Charge (ESU x 10^10)
                 0.0000
    Dipole Moment (Debye)
         X      -0.8898      Y       3.4625      Z      -1.0625
       Tot       3.7295
    Quadrupole Moments (Debye-Ang)
        XX    -821.8913     XY      -4.9736     YY    -799.6300
        XZ      -9.9218     YZ      -1.6043     ZZ    -789.3693

 Total job time:  876.30s(wall), 8393.16s(cpu)
        *  Thank you very much for using Q-Chem.  Have a nice day.  *
