 Q-Chem 4.4, Q-Chem, Inc., Pleasanton, CA (2016)
 Q-Chem 4.4.2 for Intel X86 Linux

User input:
--------------------------------------------------------------
$comment
SP
$end

$rem
MEM_STATIC 5000
MEM_TOTAL 20000
JOBTYPE SP
EXCHANGE B3LYP
BASIS 6-31g(d,p)
$end

$molecule
0 1
O         -17.394000    -12.805000     -1.380000
C         -18.712000    -13.379000     -1.811000
H         -18.690000    -13.599000     -2.886000
H         -19.573000    -12.743000     -1.571000
H         -18.849000    -14.312000     -1.251000
O         -16.179000    -14.449000     -2.348000
C         -16.236000    -13.415000     -1.743000
C         -14.968000    -12.604000     -1.386000
H         -15.148000    -11.589000     -1.759000
H         -14.149000    -13.184000     -1.828000
C         -14.650000    -12.445000      0.090000
H         -15.248000    -11.630000      0.516000
H         -14.802000    -13.334000      0.714000
C         -13.150000    -11.996000      0.264000
H         -12.973000    -10.967000     -0.074000
H         -12.940000    -11.958000      1.340000
C         -12.023000    -13.022000     -0.191000
C         -11.994000    -14.359000      0.374000
C         -11.339000    -14.537000      1.579000
H         -11.084000    -13.626000      2.114000
C         -11.239000    -15.757000      2.229000
H         -10.730000    -15.976000      3.163000
C         -11.884000    -16.886000      1.662000
H         -11.752000    -17.828000      2.186000
C         -12.561000    -16.769000      0.433000
H         -12.987000    -17.616000     -0.098000
C         -12.701000    -15.473000     -0.133000
H         -13.312000    -15.296000     -1.012000
C          -6.514000    -13.328000     -0.824000
C          -7.412000    -14.901000     -2.477000
C          -6.481000    -12.575000     -6.247000
C          -8.670000     -8.744000     -1.609000
C          -9.717000    -11.378000     -6.441000
C          -7.454000    -14.277000     -1.279000
C          -9.281000     -8.441000     -4.417000
C          -5.222000    -12.893000     -4.185000
C         -11.041000    -13.860000     -3.657000
C          -9.939000     -9.041000     -2.088000
C         -11.474000    -12.907000     -1.580000
C         -11.700000    -12.630000     -3.884000
C         -11.213000     -9.808000     -3.713000
C          -9.218000     -9.129000     -5.653000
C          -9.638000    -14.655000     -1.920000
C          -7.444000    -10.519000     -6.582000
C         -10.651000    -12.340000     -0.422000
C         -10.263000    -10.873000     -0.439000
C          -8.409000    -11.527000     -6.896000
C          -5.544000     -9.564000     -3.122000
C          -5.525000    -10.674000     -5.102000
C          -4.963000    -11.516000     -4.061000
C          -5.408000    -13.674000     -3.012000
C          -8.896000    -10.653000     -0.139000
C         -10.850000    -14.032000     -2.342000
C          -6.369000    -14.572000     -3.387000
C         -10.255000     -8.829000     -3.456000
C          -8.764000    -15.164000     -2.918000
C         -11.345000    -11.900000     -5.039000
C          -6.694000     -9.784000     -0.918000
C          -5.900000    -13.437000     -5.296000
C         -11.837000    -11.922000     -2.663000
C          -5.227000    -11.589000     -1.647000
C         -11.126000    -10.503000     -4.945000
C         -10.149000    -14.448000     -4.625000
C          -7.080000     -8.821000     -4.865000
C          -7.948000     -8.324000     -3.869000
C          -9.877000    -13.718000     -5.802000
C          -8.062000     -9.604000     -0.675000
C         -10.744000    -10.012000     -1.501000
C          -6.435000     -9.096000     -2.147000
C          -9.314000    -12.958000     -0.226000
C          -7.971000    -14.793000     -5.220000
C         -11.590000    -10.488000     -2.560000
C         -10.479000    -12.440000     -6.000000
C          -6.125000    -11.075000     -0.682000
C          -7.792000    -12.763000     -6.716000
C          -5.488000    -12.989000     -1.744000
C          -6.290000    -11.204000     -6.150000
C          -8.975000    -15.134000     -4.265000
C          -8.531000    -13.874000     -6.172000
C          -8.799000    -14.035000     -0.980000
C          -8.343000    -11.958000      0.041000
C          -5.902000     -9.519000     -4.456000
C          -6.667000    -14.484000     -4.786000
C         -10.158000    -10.187000     -5.900000
C          -7.674000     -8.471000     -2.491000
C          -7.850000     -9.313000     -5.925000
C          -6.953000    -12.162000     -0.269000
C          -4.961000    -10.868000     -2.831000
O          -7.345000    -29.030000     -4.883000
C          -7.043000    -30.478000     -4.535000
H          -6.571000    -30.486000     -3.545000
H          -6.444000    -30.891000     -5.355000
H          -7.945000    -31.094000     -4.434000
O          -8.652000    -28.799000     -3.064000
C          -8.093000    -28.314000     -4.026000
C          -8.040000    -26.802000     -4.351000
H          -8.513000    -26.688000     -5.334000
H          -6.979000    -26.526000     -4.383000
C          -8.773000    -26.022000     -3.237000
H          -9.850000    -26.177000     -3.377000
H          -8.444000    -26.374000     -2.252000
C          -8.443000    -24.522000     -3.494000
H          -7.375000    -24.338000     -3.327000
H          -8.381000    -24.250000     -4.554000
C          -9.388000    -23.657000     -2.766000
C          -8.964000    -23.428000     -1.252000
C          -9.851000    -23.890000     -0.293000
H         -10.839000    -24.230000     -0.588000
C          -9.507000    -23.955000      1.021000
H         -10.228000    -24.323000      1.746000
C          -8.238000    -23.435000      1.410000
H          -7.959000    -23.366000      2.457000
C          -7.284000    -22.914000      0.447000
H          -6.264000    -22.590000      0.631000
C          -7.731000    -22.882000     -0.890000
H          -7.113000    -22.317000     -1.584000
C         -14.673000    -22.207000     -2.445000
C         -13.470000    -20.167000     -1.679000
C         -14.327000    -17.567000     -5.317000
C         -12.897000    -23.633000     -7.029000
C         -11.136000    -18.146000     -6.768000
C         -13.565000    -21.550000     -1.810000
C         -12.148000    -21.280000     -8.376000
C         -15.812000    -19.094000     -4.080000
C          -9.878000    -19.939000     -3.480000
C         -11.527000    -23.227000     -7.071000
C          -9.765000    -22.283000     -3.397000
C          -9.348000    -20.331000     -4.685000
C         -10.121000    -21.512000     -7.111000
C         -12.061000    -19.852000     -8.299000
C         -11.389000    -21.043000     -1.931000
C         -13.567000    -18.197000     -7.391000
C         -10.725000    -23.407000     -3.401000
C         -11.213000    -23.947000     -4.773000
C         -12.489000    -17.625000     -6.651000
C         -15.712000    -21.466000     -6.715000
C         -15.592000    -19.248000     -6.584000
C         -16.144000    -19.693000     -5.330000
C         -15.490000    -19.898000     -2.980000
C         -12.634000    -24.211000     -4.691000
C         -10.211000    -21.083000     -2.688000
C         -14.445000    -19.294000     -2.272000
C         -11.204000    -22.076000     -7.788000
C         -12.076000    -19.877000     -1.824000
C          -9.606000    -19.524000     -5.813000
C         -14.760000    -23.544000     -5.657000
C         -14.890000    -17.991000     -4.074000
C          -9.358000    -21.698000     -4.765000
C         -15.917000    -21.899000     -4.331000
C          -9.929000    -20.123000     -7.050000
C         -10.594000    -18.793000     -3.341000
C         -14.227000    -20.420000     -8.219000
C         -13.483000    -21.632000     -8.352000
C         -10.817000    -17.995000     -4.417000
C         -13.482000    -24.061000     -5.813000
C         -10.699000    -23.392000     -5.977000
C         -15.008000    -22.706000     -6.762000
C         -12.034000    -23.258000     -2.705000
C         -12.672000    -17.878000     -3.140000
C          -9.787000    -22.280000     -5.970000
C         -10.364000    -18.330000     -5.675000
C         -15.198000    -23.076000     -4.418000
C         -12.956000    -17.246000     -5.387000
C         -15.536000    -21.308000     -3.102000
C         -14.691000    -18.158000     -6.574000
C         -11.687000    -18.758000     -2.564000
C         -12.071000    -17.406000     -4.290000
C         -12.283000    -22.112000     -1.943000
C         -13.089000    -23.797000     -3.413000
C         -15.303000    -20.327000     -7.393000
C         -14.035000    -18.170000     -2.987000
C         -10.954000    -19.251000     -7.592000
C         -13.859000    -22.786000     -7.632000
C         -13.360000    -19.300000     -8.254000
C         -14.366000    -23.270000     -3.313000
C         -16.209000    -21.074000     -5.445000
$end

--------------------------------------------------------------

             Standard Nuclear Orientation (Angstroms)
    I     Atom           X                Y                Z
 ----------------------------------------------------------------
    1      O       3.0880159767    -7.2773145204    -2.2252556825
    2      C       2.2271283634    -8.4749680316    -1.9480200705
    3      H       1.8984230666    -8.4644026237    -0.9009526419
    4      H       2.7079913077    -9.4319302950    -2.1855301865
    5      H       1.3526804448    -8.3949115893    -2.6051272183
    6      O       1.6122041020    -5.8104203262    -1.3385845295
    7      C       2.6761263836    -6.0411181879    -1.8418517301
    8      C       3.7503354920    -4.9433186175    -2.0259845483
    9      H       4.6643206402    -5.3404110927    -1.5691446253
   10      H       3.2937414880    -4.0488876544    -1.5854846417
   11      C       4.1291803435    -4.5885772943    -3.4527347619
   12      H       4.8557001664    -5.3142873702    -3.8385052022
   13      H       3.3017993258    -4.5286964018    -4.1701300018
   14      C       4.8749041432    -3.2010194727    -3.4740960906
   15      H       5.8751158668    -3.2497244976    -3.0250767943
   16      H       5.0709103326    -2.9482695053    -4.5233906287
   17      C       4.0412729083    -1.9170823009    -3.0423620253
   18      C       2.8053907212    -1.5939325102    -3.7321478125
   19      C       2.8906455122    -0.8561254432    -4.8988124397
   20      H       3.8869775641    -0.7605663910    -5.3223238444
   21      C       1.7918798650    -0.4824385671    -5.6564219507
   22      H       1.7791992472     0.1068391008    -6.5685562785
   23      C       0.5043798903    -0.9179425452    -5.2504230587
   24      H      -0.3310291397    -0.5746621331    -5.8534274627
   25      C       0.3527656433    -1.6663665623    -4.0674887365
   26      H      -0.6136358114    -1.9418101494    -3.6539127957
   27      C       1.5271921005    -2.0900442866    -3.3886723529
   28      H       1.4853431270    -2.7679914381    -2.5425474666
   29      C       4.7336037669     3.5031453297    -2.0497813412
   30      C       2.8448299060     2.8530736277    -0.6274304405
   31      C       4.8768206407     3.1095098385     3.4092998111
   32      C       8.7019569428     0.4411297887    -0.9756068219
   33      C       5.3997351140    -0.3055407828     3.4875986462
   34      C       3.5771734630     2.7488202704    -1.7584247606
   35      C       8.5704767749    -0.3601034960     1.7976101168
   36      C       5.0362320510     4.5099318364     1.4214730504
   37      C       3.0313649375    -0.9657674656     0.3861668100
   38      C       8.1153154824    -0.7661220879    -0.6200710245
   39      C       4.1060787985    -1.4733866833    -1.6130680053
   40      C       4.0788748885    -1.8669913362     0.6848781047
   41      C       6.9431762828    -1.9431099117     0.8265731472
   42      C       7.7755834393    -0.2244995870     2.9615539147
   43      C       2.7175733613     0.6539378948    -1.3155065993
   44      C       6.6593452308     1.7409314877     3.8744120376
   45      C       4.9449413835    -0.7217734598    -2.6480410125
   46      C       6.4482214673    -0.6347730096    -2.4596215034
   47      C       5.4561041280     0.9810567504     4.0182391289
   48      C       8.3374411176     3.5866051724     0.6695551228
   49      C       7.0406306553     3.7252231228     2.5274917979
   50      C       6.4424541685     4.4957668605     1.4518820923
   51      C       4.3680929763     4.5430037057     0.1672870880
   52      C       6.9589266354     0.6745953510    -2.6380135647
   53      C       3.0452712001    -0.6776633490    -0.9223027670
   54      C       3.2661628071     3.7620529786     0.3827305002
   55      C       8.1105131954    -1.1872185826     0.7359815852
   56      C       2.2795508268     1.5597612880    -0.3122213758
   57      C       4.7317980878    -1.7236022649     1.9282931078
   58      C       8.1443404540     2.6171066519    -1.6220165546
   59      C       4.2528854371     3.8980451671     2.4224244910
   60      C       4.8773733592    -2.0797607765    -0.4675121754
   61      C       6.5863737511     4.3748300634    -0.9703240188
   62      C       6.1465177181    -1.7824212148     1.9875780025
   63      C       2.5230793995    -0.0250829566     1.3532192731
   64      C       8.5742652930     1.8467746973     2.3625696614
   65      C       9.0015213149     0.9491090188     1.3605229452
   66      C       3.1576022841     0.0359550566     2.6125318117
   67      C       8.0832965488     1.2548261373    -1.9434795249
   68      C       7.0782033470    -1.3308925781    -1.3555081135
   69      C       8.7296787336     2.6711301148    -0.3161350271
   70      C       4.6212850218     0.7196615576    -2.8074795594
   71      C       2.5403758426     2.1448373830     2.0658766613
   72      C       6.3345527376    -2.1180795422    -0.4115306484
   73      C       4.2660834581    -0.8175569019     2.8912410212
   74      C       7.0210167632     3.4428432077    -1.9420806513
   75      C       4.3894815377     1.8399764701     3.7625866991
   76      C       5.1603136872     4.3929883328    -1.0299308258
   77      C       6.2611284651     3.0286132211     3.4610548543
   78      C       2.1198060625     1.2787054460     1.0126632320
   79      C       3.2238236956     1.3654632164     3.0608339171
   80      C       3.5871816331     1.3995657687    -2.1277513453
   81      C       5.8127029208     1.4846069522    -2.9050086996
   82      C       8.1654584775     3.1593601887     1.9724859327
   83      C       3.1404986078     3.3816645702     1.7586891362
   84      C       6.5357803787    -0.9465481316     3.0357648989
   85      C       9.0627217373     1.3166779501    -0.0020909359
   86      C       7.8295324012     1.1371001587     3.3114105169
   87      C       5.8471988184     2.8697820067    -2.5178186928
   88      C       7.2101947180     4.4314301240     0.2946253218
   89      O     -11.1844421612     5.6071460423     0.3808236925
   90      C     -12.4999137359     6.2085118428    -0.0849076788
   91      H     -12.3078025152     6.7224504112    -1.0345962735
   92      H     -12.8776544384     6.8351604027     0.7314216322
   93      H     -13.2630749648     5.4534351235    -0.3100855789
   94      O     -11.0104063613     4.3746632585    -1.4956274068
   95      C     -10.5358529103     4.7762745276    -0.4531987949
   96      C      -9.0871068335     4.5107801617     0.0213805415
   97      H      -9.1752792746     3.9751303147     0.9744381799
   98      H      -8.6172711153     5.4926251050     0.1561243919
   99      C      -8.3449136513     3.6949415010    -1.0603964965
  100      H      -8.7187896771     2.6646066371    -1.0136976147
  101      H      -8.5163126157     4.1371132683    -2.0490706204
  102      C      -6.8470576845     3.7063927708    -0.6346672735
  103      H      -6.4436620611     4.7235245784    -0.7059684450
  104      H      -6.6866637229     3.6589845110     0.4485936526
  105      C      -6.1053103891     2.6465079972    -1.3401381915
  106      C      -5.6336186688     3.0929981052    -2.7901611239
  107      C      -6.1492128388     2.3656493368    -3.8508309222
  108      H      -6.7034241770     1.4513317004    -3.6620398941
  109      C      -6.0016301535     2.7821534509    -5.1368716191
  110      H      -6.4193883824     2.1866504179    -5.9441783761
  111      C      -5.2074564450     3.9404563358    -5.3812167595
  112      H      -4.9711348760     4.2530914793    -6.3937494172
  113      C      -4.6218752625     4.7214351420    -4.3059992080
  114      H      -4.0893331598     5.6646022206    -4.3838886856
  115      C      -4.8239964311     4.2095207901    -3.0077339310
  116      H      -4.2305561255     4.6666039093    -2.2192615942
  117      C      -5.6733822660    -2.7979821960    -1.8948729321
  118      C      -3.3682379183    -1.9874854378    -2.3691824735
  119      C      -1.3987062611    -3.5287309504     1.4354200447
  120      C      -7.2269635978    -1.0095315129     2.6425864010
  121      C      -1.5088822175    -0.3644318371     3.0473119082
  122      C      -4.7495129848    -1.8119787441    -2.3814946992
  123      C      -4.9367679063    -0.8132169336     4.2638461829
  124      C      -3.0372642752    -4.6152939641    -0.0483695132
  125      C      -2.6528770784     1.3908907435    -0.3020873508
  126      C      -6.5719868757     0.2483541942     2.8221108873
  127      C      -4.9076073274     1.9720539130    -0.6061183931
  128      C      -3.0658332615     1.9262291151     0.8935166885
  129      C      -4.6334595117     1.2811450435     3.1305192545
  130      C      -3.5191019497    -1.0082554871     4.3335971550
  131      C      -3.8496052473     0.2106107943    -2.0559741576
  132      C      -2.0951886944    -2.7651906280     3.4867353291
  133      C      -6.1888483605     1.2559352784    -0.7810112640
  134      C      -6.9604721007     0.8159138108     0.4930004752
  135      C      -1.2484108282    -1.7862905022     2.8854119644
  136      C      -5.6212069446    -4.1796742644     2.3418364943
  137      C      -3.4209144485    -4.4968395067     2.4377747075
  138      C      -3.8229507062    -4.8846904554     1.1099255108
  139      C      -3.6380859768    -4.0841908711    -1.1959943593
  140      C      -7.4823960122    -0.5180995065     0.2840389953
  141      C      -3.7452422467     1.3329165446    -1.2241862237
  142      C      -2.7699823151    -3.1455831892    -1.7647796017
  143      C      -5.4664591664     0.2989676110     3.6697344865
  144      C      -2.8330987074    -0.6882771480    -2.0970706497
  145      C      -2.4528511710     1.4557393692     2.0738087522
  146      C      -7.3476573875    -2.7806718085     1.1561244733
  147      C      -1.7835946478    -3.9320855328     0.1197605102
  148      C      -4.4095269341     2.1843375718     0.8382325234
  149      C      -5.8202695809    -4.1727730662    -0.0816519914
  150      C      -3.2353731279     1.1958129625     3.2198439393
  151      C      -1.6579297014     0.4692293114    -0.3789828743
  152      C      -4.4810820643    -3.0110096223     4.0435107322
  153      C      -5.5343350484    -2.0485086053     4.1099858679
  154      C      -1.0412580705     0.0374317947     0.7513162030
  155      C      -7.6229614426    -1.4349961112     1.3517608580
  156      C      -6.4529821317     1.1472357195     1.7792806641
  157      C      -6.6999887838    -3.2463711591     2.3173404285
  158      C      -6.2188619759    -0.0193700466    -1.5509421122
  159      C      -1.1435741718    -1.7362867731    -0.6375311096
  160      C      -5.1923514059     1.8189176365     1.9465845059
  161      C      -1.4192940193     0.4833724910     1.9996045177
  162      C      -6.8391392802    -3.2393603756    -0.0591957038
  163      C      -0.8295046053    -2.2543812239     1.6344784519
  164      C      -5.0352650995    -3.8548986118    -1.2163796219
  165      C      -2.1835227767    -3.8313934160     2.5991573299
  166      C      -1.7486031971    -0.5678750783    -1.2250300373
  167      C      -0.6943218523    -1.3005566420     0.5932396271
  168      C      -5.0653927728    -0.4522643426    -2.2128124364
  169      C      -7.0255093229    -0.9806965227    -0.9765019813
  170      C      -4.5065299225    -4.0405207163     3.1557267980
  171      C      -1.6738150573    -3.0043505751    -0.9155613189
  172      C      -2.6420992142    -0.0084233642     3.7699475049
  173      C      -6.6526596626    -2.1502427432     3.2552974905
  174      C      -3.2259393250    -2.3870986706     4.2500678145
  175      C      -6.7464306205    -2.3302343916    -1.1155006076
  176      C      -5.1947382981    -4.6794064385     1.0840744947
 ----------------------------------------------------------------

    9   -5804.2785837065      8.16E-06 Convergence criterion met
 Total energy in the final basis set = -5804.2785837065

                    Orbital Energies (a.u.)
 --------------------------------------------------------------

 Alpha MOs
 -- Occupied --
-19.191 -19.190 -19.134 -19.131 -10.314 -10.311 -10.253 -10.252
-10.245 -10.244 -10.243 -10.238 -10.238 -10.236 -10.235 -10.234
-10.232 -10.225 -10.225 -10.223 -10.223 -10.221 -10.221 -10.220
-10.220 -10.220 -10.219 -10.219 -10.219 -10.219 -10.219 -10.219
-10.219 -10.219 -10.219 -10.218 -10.218 -10.218 -10.218 -10.218
-10.217 -10.217 -10.217 -10.217 -10.217 -10.217 -10.217 -10.217
-10.217 -10.217 -10.217 -10.216 -10.216 -10.216 -10.216 -10.216
-10.216 -10.216 -10.216 -10.216 -10.215 -10.215 -10.215 -10.215
-10.215 -10.215 -10.215 -10.214 -10.214 -10.214 -10.214 -10.214
-10.214 -10.214 -10.214 -10.213 -10.213 -10.213 -10.213 -10.213
-10.213 -10.213 -10.212 -10.212 -10.212 -10.212 -10.212 -10.212
-10.212 -10.212 -10.212 -10.212 -10.212 -10.212 -10.212 -10.211
-10.211 -10.211 -10.211 -10.211 -10.211 -10.210 -10.210 -10.210
-10.210 -10.210 -10.210 -10.210 -10.210 -10.210 -10.210 -10.210
-10.209 -10.209 -10.209 -10.209 -10.208 -10.208 -10.208 -10.208
-10.208 -10.208 -10.207 -10.207 -10.206 -10.205 -10.205 -10.204
-10.204 -10.204 -10.204 -10.203 -10.203 -10.203 -10.203 -10.202
-10.202 -10.200 -10.200 -10.200 -10.198 -10.196 -10.196 -10.195
-10.194 -10.192 -10.192 -10.189  -1.090  -1.088  -1.010  -1.002
 -0.981  -0.977  -0.964  -0.961  -0.960  -0.959  -0.957  -0.955
 -0.933  -0.931  -0.926  -0.923  -0.921  -0.920  -0.920  -0.919
 -0.917  -0.916  -0.894  -0.893  -0.888  -0.885  -0.884  -0.883
 -0.873  -0.872  -0.853  -0.849  -0.839  -0.837  -0.836  -0.836
 -0.833  -0.831  -0.818  -0.818  -0.805  -0.802  -0.797  -0.794
 -0.792  -0.792  -0.790  -0.790  -0.788  -0.788  -0.781  -0.778
 -0.769  -0.767  -0.766  -0.763  -0.762  -0.761  -0.761  -0.758
 -0.755  -0.746  -0.740  -0.738  -0.732  -0.730  -0.713  -0.713
 -0.712  -0.711  -0.711  -0.710  -0.708  -0.706  -0.706  -0.705
 -0.705  -0.705  -0.704  -0.703  -0.702  -0.700  -0.670  -0.670
 -0.657  -0.655  -0.653  -0.652  -0.646  -0.644  -0.629  -0.629
 -0.626  -0.626  -0.623  -0.622  -0.620  -0.619  -0.615  -0.614
 -0.612  -0.611  -0.610  -0.609  -0.609  -0.607  -0.606  -0.605
 -0.603  -0.603  -0.601  -0.598  -0.569  -0.564  -0.562  -0.560
 -0.557  -0.556  -0.555  -0.555  -0.553  -0.553  -0.551  -0.550
 -0.535  -0.533  -0.531  -0.531  -0.526  -0.525  -0.524  -0.524
 -0.521  -0.520  -0.516  -0.514  -0.514  -0.513  -0.512  -0.510
 -0.507  -0.502  -0.500  -0.495  -0.491  -0.488  -0.485  -0.485
 -0.482  -0.481  -0.479  -0.478  -0.475  -0.474  -0.473  -0.472
 -0.471  -0.470  -0.469  -0.468  -0.465  -0.464  -0.463  -0.463
 -0.462  -0.462  -0.461  -0.460  -0.459  -0.458  -0.457  -0.455
 -0.454  -0.454  -0.452  -0.450  -0.449  -0.445  -0.444  -0.442
 -0.440  -0.439  -0.438  -0.437  -0.435  -0.434  -0.434  -0.433
 -0.430  -0.429  -0.428  -0.426  -0.425  -0.424  -0.424  -0.421
 -0.420  -0.419  -0.419  -0.417  -0.417  -0.417  -0.416  -0.416
 -0.415  -0.414  -0.414  -0.413  -0.412  -0.412  -0.411  -0.410
 -0.409  -0.409  -0.408  -0.403  -0.401  -0.397  -0.395  -0.395
 -0.392  -0.392  -0.391  -0.389  -0.387  -0.384  -0.383  -0.379
 -0.378  -0.375  -0.372  -0.369  -0.367  -0.367  -0.365  -0.364
 -0.363  -0.362  -0.361  -0.360  -0.358  -0.358  -0.357  -0.357
 -0.356  -0.355  -0.354  -0.352  -0.351  -0.351  -0.349  -0.349
 -0.349  -0.348  -0.346  -0.346  -0.345  -0.345  -0.343  -0.342
 -0.342  -0.341  -0.340  -0.339  -0.338  -0.336  -0.336  -0.334
 -0.330  -0.329  -0.327  -0.327  -0.325  -0.324  -0.323  -0.319
 -0.310  -0.307  -0.301  -0.298  -0.286  -0.284  -0.269  -0.267
 -0.267  -0.266  -0.266  -0.266  -0.265  -0.264  -0.263  -0.260
 -0.259  -0.259  -0.258  -0.258  -0.257  -0.254  -0.253  -0.249
 -0.247  -0.247  -0.241  -0.238  -0.221  -0.218  -0.211  -0.209
 -0.207  -0.205  -0.205  -0.202  -0.200  -0.196

          Ground-State Mulliken Net Atomic Charges

     Atom                 Charge (a.u.)
  ----------------------------------------
      1 O                    -0.480992
      2 C                    -0.090976
      3 H                     0.139846
      4 H                     0.130791
      5 H                     0.134396
      6 O                    -0.463130
      7 C                     0.586557
      8 C                    -0.238831
      9 H                     0.130976
     10 H                     0.136237
     11 C                    -0.192892
     12 H                     0.114943
     13 H                     0.117994
     14 C                    -0.190382
     15 H                     0.114734
     16 H                     0.109398
     17 C                     0.006846
     18 C                     0.101399
     19 C                    -0.114302
     20 H                     0.089100
     21 C                    -0.087849
     22 H                     0.092962
     23 C                    -0.091740
     24 H                     0.090368
     25 C                    -0.083897
     26 H                     0.102003
     27 C                    -0.129730
     28 H                     0.103864
     29 C                    -0.030046
     30 C                    -0.006477
     31 C                     0.005237
     32 C                    -0.031041
     33 C                     0.032944
     34 C                     0.027227
     35 C                    -0.030850
     36 C                    -0.006012
     37 C                     0.041698
     38 C                     0.028597
     39 C                    -0.095247
     40 C                    -0.013944
     41 C                    -0.004063
     42 C                    -0.006707
     43 C                    -0.008048
     44 C                    -0.022121
     45 C                    -0.086631
     46 C                     0.009925
     47 C                    -0.012718
     48 C                    -0.024831
     49 C                    -0.007488
     50 C                    -0.004190
     51 C                    -0.007561
     52 C                     0.007331
     53 C                     0.045037
     54 C                     0.005406
     55 C                     0.015904
     56 C                    -0.011512
     57 C                    -0.027841
     58 C                    -0.007176
     59 C                     0.007961
     60 C                     0.046316
     61 C                     0.007402
     62 C                     0.011203
     63 C                     0.002114
     64 C                     0.002707
     65 C                    -0.007201
     66 C                    -0.017335
     67 C                     0.001255
     68 C                    -0.012397
     69 C                     0.006332
     70 C                     0.049078
     71 C                    -0.018479
     72 C                    -0.043461
     73 C                     0.005441
     74 C                    -0.024652
     75 C                    -0.000881
     76 C                    -0.016563
     77 C                     0.013421
     78 C                     0.004735
     79 C                     0.002790
     80 C                     0.011896
     81 C                    -0.036451
     82 C                     0.017753
     83 C                     0.002647
     84 C                    -0.004353
     85 C                     0.023192
     86 C                     0.000960
     87 C                     0.037675
     88 C                     0.002604
     89 O                    -0.477971
     90 C                    -0.093447
     91 H                     0.137945
     92 H                     0.130822
     93 H                     0.139435
     94 O                    -0.477741
     95 C                     0.593081
     96 C                    -0.271822
     97 H                     0.138604
     98 H                     0.130921
     99 C                    -0.164060
    100 H                     0.115668
    101 H                     0.134649
    102 C                    -0.204599
    103 H                     0.105281
    104 H                     0.103885
    105 C                     0.022717
    106 C                     0.101842
    107 C                    -0.094914
    108 H                     0.093283
    109 C                    -0.081189
    110 H                     0.094553
    111 C                    -0.107204
    112 H                     0.086935
    113 C                    -0.087542
    114 H                     0.100840
    115 C                    -0.120047
    116 H                     0.091921
    117 C                    -0.058074
    118 C                    -0.012863
    119 C                     0.012771
    120 C                    -0.017750
    121 C                     0.007309
    122 C                    -0.007390
    123 C                     0.016638
    124 C                    -0.013893
    125 C                    -0.010837
    126 C                    -0.004002
    127 C                    -0.103054
    128 C                     0.023784
    129 C                    -0.006967
    130 C                     0.002462
    131 C                     0.007385
    132 C                     0.015148
    133 C                    -0.069758
    134 C                     0.009491
    135 C                    -0.014182
    136 C                    -0.013009
    137 C                    -0.013675
    138 C                     0.012430
    139 C                     0.014712
    140 C                    -0.008657
    141 C                     0.049435
    142 C                    -0.013457
    143 C                     0.026816
    144 C                    -0.019433
    145 C                    -0.016700
    146 C                    -0.008103
    147 C                    -0.007801
    148 C                     0.020418
    149 C                     0.021283
    150 C                    -0.033313
    151 C                     0.024858
    152 C                    -0.009595
    153 C                     0.002763
    154 C                     0.005079
    155 C                     0.005179
    156 C                    -0.005721
    157 C                    -0.000616
    158 C                     0.027775
    159 C                     0.002968
    160 C                    -0.010043
    161 C                     0.022131
    162 C                     0.004824
    163 C                    -0.002076
    164 C                     0.006518
    165 C                    -0.016849
    166 C                    -0.002800
    167 C                    -0.013100
    168 C                     0.011336
    169 C                     0.016341
    170 C                     0.045125
    171 C                     0.027825
    172 C                    -0.016430
    173 C                    -0.013811
    174 C                    -0.024485
    175 C                     0.016161
    176 C                    -0.020572
  ----------------------------------------
  Sum of atomic charges =     0.000000

                    Cartesian Multipole Moments
 -----------------------------------------------------------------
    Charge (ESU x 10^10)
                 0.0000
    Dipole Moment (Debye)
         X      -1.7134      Y      -0.1266      Z      -2.8164
       Tot       3.2991
    Quadrupole Moments (Debye-Ang)
        XX    -804.8402     XY     -43.8583     YY    -763.9619
        XZ     -13.7993     YZ       7.6436     ZZ    -797.7041

 Total job time:  857.70s(wall), 8163.60s(cpu)
        *  Thank you very much for using Q-Chem.  Have a nice day.  *
