 Q-Chem 4.4, Q-Chem, Inc., Pleasanton, CA (2016)
 Q-Chem 4.4.2 for Intel X86 Linux

User input:
--------------------------------------------------------------
$comment
SP
$end

$rem
MEM_STATIC 5000
MEM_TOTAL 20000
JOBTYPE SP
EXCHANGE B3LYP
BASIS 6-31g(d,p)
$end

$molecule
0 1
O           6.231000    -30.838000     13.934000
C           7.302000    -31.497000     14.634000
H           6.868000    -32.316000     15.220000
H           7.763000    -30.719000     15.255000
H           8.052000    -31.892000     13.936000
O           5.938000    -32.429000     12.278000
C           5.616000    -31.393000     12.851000
C           4.441000    -30.583000     12.413000
H           4.653000    -29.564000     12.759000
H           3.550000    -30.991000     12.906000
C           4.149000    -30.667000     10.844000
H           5.065000    -30.557000     10.252000
H           3.755000    -31.672000     10.649000
C           3.027000    -29.585000     10.394000
H           2.088000    -29.817000     10.911000
H           3.283000    -28.611000     10.830000
C           2.754000    -29.461000      8.915000
C           1.859000    -30.521000      8.366000
C           0.469000    -30.394000      8.378000
H          -0.030000    -29.550000      8.845000
C          -0.369000    -31.417000      7.838000
H          -1.450000    -31.329000      7.889000
C           0.182000    -32.573000      7.310000
H          -0.508000    -33.264000      6.834000
C           1.587000    -32.698000      7.240000
H           1.909000    -33.627000      6.779000
C           2.424000    -31.709000      7.762000
H           3.486000    -31.932000      7.805000
C           4.956000    -28.321000      4.015000
C           2.672000    -27.547000      3.776000
C           3.652000    -23.112000      3.855000
C           7.243000    -26.280000      8.111000
C           2.843000    -22.765000      7.192000
C           3.611000    -28.489000      4.277000
C           6.178000    -23.697000      8.488000
C           4.775000    -24.976000      2.803000
C           1.232000    -26.416000      7.318000
C           6.193000    -26.074000      9.028000
C           2.584000    -28.076000      8.333000
C           1.863000    -25.855000      8.441000
C           4.299000    -24.945000      9.535000
C           5.227000    -22.803000      7.964000
C           1.998000    -28.197000      5.904000
C           4.668000    -22.251000      5.669000
C           3.813000    -28.829000      8.043000
C           5.149000    -28.271000      8.488000
C           3.316000    -22.358000      5.930000
C           7.658000    -24.855000      4.903000
C           6.126000    -23.368000      4.073000
C           6.044000    -24.483000      3.312000
C           4.465000    -26.323000      2.774000
C           6.105000    -28.408000      7.503000
C           1.655000    -27.725000      7.156000
C           3.092000    -26.439000      3.030000
C           5.687000    -24.803000      9.243000
C           1.653000    -27.339000      4.758000
C           2.112000    -24.445000      8.490000
C           7.514000    -27.027000      6.023000
C           3.576000    -24.223000      2.974000
C           2.734000    -26.772000      9.061000
C           6.666000    -26.770000      3.784000
C           3.335000    -24.012000      9.050000
C           0.882000    -25.590000      6.234000
C           6.834000    -23.111000      6.406000
C           7.150000    -23.877000      7.517000
C           1.143000    -24.208000      6.260000
C           7.110000    -27.452000      7.337000
C           5.175000    -27.000000      9.137000
C           7.883000    -25.662000      6.017000
C           4.100000    -29.120000      6.626000
C           1.493000    -24.923000      4.102000
C           4.031000    -26.338000      9.417000
C           1.792000    -23.709000      7.365000
C           6.955000    -27.561000      4.870000
C           2.684000    -22.896000      4.799000
C           5.407000    -27.180000      3.339000
C           4.879000    -22.751000      4.371000
C           1.120000    -26.022000      4.927000
C           1.575000    -23.792000      4.944000
C           3.153000    -28.928000      5.576000
C           5.455000    -28.879000      6.360000
C           7.098000    -23.607000      5.069000
C           2.527000    -25.178000      3.155000
C           3.821000    -22.993000      8.236000
C           7.696000    -25.175000      7.333000
C           5.617000    -22.437000      6.692000
C           5.881000    -28.512000      5.043000
C           6.972000    -25.395000      3.780000
O           3.659000    -18.546000     -0.578000
C           3.383000    -19.458000     -1.676000
H           2.655000    -18.914000     -2.292000
H           3.027000    -20.404000     -1.250000
H           4.312000    -19.643000     -2.230000
O           4.470000    -16.813000     -1.836000
C           4.077000    -17.276000     -0.743000
C           4.136000    -16.534000      0.527000
H           4.715000    -15.628000      0.312000
H           4.720000    -17.076000      1.283000
C           2.818000    -15.928000      1.132000
H           2.989000    -15.318000      2.026000
H           2.269000    -15.447000      0.312000
C           1.898000    -17.135000      1.651000
H           1.923000    -17.822000      0.795000
H           2.456000    -17.682000      2.421000
C           0.470000    -16.712000      2.220000
C          -0.378000    -16.189000      1.173000
C          -1.142000    -17.091000      0.356000
H          -1.089000    -18.172000      0.447000
C          -1.995000    -16.586000     -0.636000
H          -2.698000    -17.196000     -1.194000
C          -1.995000    -15.192000     -0.910000
H          -2.675000    -14.921000     -1.712000
C          -1.195000    -14.302000     -0.245000
H          -1.296000    -13.246000     -0.475000
C          -0.408000    -14.794000      0.844000
H           0.260000    -14.141000      1.396000
C          -2.627000    -14.319000      6.021000
C          -3.863000    -16.374000      5.576000
C          -2.792000    -18.542000      9.446000
C           2.350000    -15.307000      7.140000
C          -0.181000    -20.446000      8.097000
C          -3.090000    -15.299000      5.113000
C           2.352000    -17.780000      8.460000
C          -3.418000    -16.186000      9.083000
C          -1.334000    -19.276000      4.363000
C           2.759000    -16.451000      6.460000
C          -0.036000    -17.534000      3.424000
C          -0.031000    -19.525000      4.699000
C           2.210000    -18.664000      6.234000
C           1.641000    -18.945000      8.922000
C          -2.413000    -17.171000      4.023000
C          -0.633000    -18.983000     10.038000
C           0.317000    -16.085000      3.638000
C           1.399000    -15.701000      4.541000
C          -1.079000    -19.960000      9.149000
C          -0.163000    -14.946000      9.733000
C          -1.459000    -16.721000     10.497000
C          -2.331000    -15.787000      9.823000
C          -3.694000    -15.564000      7.889000
C           0.957000    -14.565000      5.260000
C          -1.400000    -18.064000      3.625000
C          -4.210000    -16.515000      6.971000
C           2.691000    -17.689000      7.106000
C          -3.452000    -17.534000      4.918000
C           0.307000    -20.183000      5.873000
C           0.554000    -13.938000      7.607000
C          -3.680000    -17.577000      8.957000
C           0.778000    -18.456000      4.278000
C          -1.822000    -14.017000      8.189000
C           1.465000    -19.754000      6.674000
C          -2.348000    -19.625000      5.301000
C           0.971000    -17.101000     10.094000
C           2.009000    -16.699000      9.156000
C          -2.018000    -20.326000      6.472000
C           1.452000    -14.378000      6.581000
C           2.221000    -16.654000      5.166000
C           0.865000    -14.601000      8.799000
C          -0.868000    -15.272000      4.023000
C          -3.784000    -18.925000      6.929000
C           1.920000    -18.020000      5.027000
C          -0.652000    -20.623000      6.805000
C          -0.827000    -13.675000      7.286000
C          -2.394000    -19.702000      8.802000
C          -2.917000    -14.488000      7.403000
C          -1.732000    -18.119000     10.253000
C          -3.409000    -18.775000      5.576000
C          -2.875000    -19.868000      7.499000
C          -2.160000    -15.821000      4.153000
C          -0.396000    -14.339000      4.959000
C          -0.125000    -16.207000     10.373000
C          -4.099000    -17.772000      7.646000
C           1.187000    -19.915000      7.997000
C           1.934000    -15.495000      8.510000
C           0.721000    -18.500000      9.925000
C          -1.276000    -13.919000      5.983000
C          -1.491000    -14.684000      9.399000
$end

--------------------------------------------------------------

             Standard Nuclear Orientation (Angstroms)
    I     Atom           X                Y                Z
 ----------------------------------------------------------------
    1      O     -11.3312026891    -4.6139048144    -2.5064643098
    2      C     -12.4773358040    -4.7567814443    -3.3651185775
    3      H     -13.1901626546    -5.4251066626    -2.8673914600
    4      H     -12.0853501796    -5.1661184470    -4.3043930255
    5      H     -12.9502823855    -3.7861513331    -3.5649377912
    6      O     -12.2834046171    -3.1525667804    -0.9842065660
    7      C     -11.3606643984    -3.8643941122    -1.3678227003
    8      C     -10.0996259407    -4.0108216030    -0.5823865169
    9      H      -9.3364879718    -4.2902999162    -1.3189551240
   10      H     -10.2529643881    -4.8113534149     0.1518002023
   11      C      -9.7122447371    -2.7111504686     0.2631143674
   12      H      -9.8144740371    -1.7940184721    -0.3285257861
   13      H     -10.4302948247    -2.6460600936     1.0898267205
   14      C      -8.2225016333    -2.8393389897     0.8926707096
   15      H      -8.2048919929    -3.6916431797     1.5826717736
   16      H      -7.5365242694    -3.1790694757     0.1063334708
   17      C      -7.6748449262    -1.6245135015     1.6009200755
   18      C      -8.1784860983    -1.4484715519     2.9942544940
   19      C      -7.5569945307    -2.0550331415     4.0870510302
   20      H      -6.7185332326    -2.7353481815     3.9705173532
   21      C      -8.0501934865    -1.8650370916     5.4140888183
   22      H      -7.5860331531    -2.3738384263     6.2534828774
   23      C      -9.1753781069    -1.0902715593     5.6430406478
   24      H      -9.4378174858    -0.9138435064     6.6823460479
   25      C      -9.7874006558    -0.4250245460     4.5579485730
   26      H     -10.6390200978     0.1796092786     4.8552838454
   27      C      -9.3204262654    -0.5972863594     3.2527915762
   28      H      -9.9207595901    -0.1740529381     2.4528569725
   29      C      -6.3414764041     3.6755188400     1.0622276186
   30      C      -4.7514822962     2.8814748759     2.7097305533
   31      C      -1.1272254933     2.9795695306    -0.0272396813
   32      C      -6.2681399982     0.8275084196    -3.1870928467
   33      C      -1.2749221263    -0.3995684870    -0.7128568942
   34      C      -6.0593902131     2.8782965595     2.1534457527
   35      C      -3.6327149229    -0.1074045767    -3.5458620791
   36      C      -2.9819924944     4.5095769496     0.2202389428
   37      C      -4.0069909749    -0.9936603452     2.1373804065
   38      C      -5.9054332933    -0.4577316430    -2.7371741567
   39      C      -6.2308002053    -1.2469387828     1.3600442245
   40      C      -3.9870606711    -1.7728949288     0.9684461711
   41      C      -4.3074462721    -1.7807900042    -1.8344670873
   42      C      -2.3584952477    -0.0858546406    -2.9507882857
   43      C      -5.5738184443     0.7078783883     2.7760748715
   44      C      -1.1346098143     1.7219785870    -1.8934078115
   45      C      -7.2949765372    -0.4225411295     0.7689035950
   46      C      -7.3823500342    -0.2899880830    -0.7374431652
   47      C      -0.7946927193     0.9193190590    -0.8221151107
   48      C      -4.4064730743     3.8250462791    -2.9795427433
   49      C      -2.3147475236     3.8443931092    -2.0460530965
   50      C      -3.1179735233     4.5594843818    -1.2259662322
   51      C      -4.0770875572     4.4790780355     1.0635577554
   52      C      -7.6329033548     1.0131076337    -1.1143975213
   53      C      -5.3063605500    -0.5955708013     2.4053681343
   54      C      -3.7364564757     3.6725439855     2.1579042693
   55      C      -4.6219475337    -0.9367914848    -2.9393324437
   56      C      -4.4130897872     1.5504800905     3.1095960195
   57      C      -2.8172979753    -1.7898017421     0.1414809995
   58      C      -6.5675748513     2.8715977194    -2.3366625421
   59      C      -1.9018062371     3.8054841710     0.8295845003
   60      C      -5.2744898742    -1.9138555105     0.4147439394
   61      C      -5.5166055192     4.5227318553    -0.9339888351
   62      C      -3.0021241244    -1.8021684083    -1.2594131293
   63      C      -2.8873732045    -0.2074649911     2.4662951574
   64      C      -2.8719639799     2.0205185514    -3.5865703532
   65      C      -3.9311089169     1.1921889656    -3.9227475380
   66      C      -1.7420530310    -0.1969430830     1.6496850977
   67      C      -7.1011452510     1.5359106201    -2.2956796030
   68      C      -6.3924203419    -0.9361617565    -1.5373286496
   69      C      -5.4699271042     2.9577342696    -3.2238896370
   70      C      -7.3411451346     0.9963641801     1.1682971139
   71      C      -2.0256925863     1.9421259826     2.4463162140
   72      C      -5.4392437621    -1.7104813523    -0.9740671018
   73      C      -1.7805765404    -0.9488466786     0.4988662927
   74      C      -6.5827333408     3.7069563708    -1.2280633612
   75      C      -0.7916888158     1.7040904690     0.3407063763
   76      C      -5.3239297597     4.4145961255     0.4452822462
   77      C      -1.3684938856     3.0126674213    -1.3847374133
   78      C      -3.0677606043     1.0990320526     2.9267762761
   79      C      -1.2264148853     1.1529089542     1.5900798923
   80      C      -6.5823891146     1.5340778358     2.2505754176
   81      C      -7.5601253511     1.7973971968     0.0390248832
   82      C      -3.1128192083     3.3686957637    -3.1094037544
   83      C      -2.4199344568     3.2504283627     2.0414604006
   84      C      -2.0761632924    -0.9167352013    -1.8032491095
   85      C      -5.2606570890     1.6616538061    -3.7533945877
   86      C      -1.8825574749     1.2091931432    -2.9701396192
   87      C      -7.0862708191     3.1483249287     0.0057060337
   88      C      -4.3872908800     4.5798252141    -1.7740279974
   89      O       3.9960433948     6.7380761348    -0.3816942015
   90      C       3.5235909076     7.6644831019     0.6342205481
   91      H       4.4211422524     7.8830377135     1.2275260894
   92      H       2.7038947576     7.1808939341     1.1795348963
   93      H       3.1418057709     8.5690919761     0.1442155540
   94      O       5.5478288179     8.1230883833    -1.3394400302
   95      C       5.0260995325     6.9939912395    -1.2113572732
   96      C       5.3856913393     5.8295712429    -2.0370477745
   97      H       6.0396466233     6.2190320347    -2.8263289527
   98      H       4.5109651720     5.4233325994    -2.5625763624
   99      C       6.2783726280     4.6907964776    -1.4232911853
  100      H       6.5631430666     3.9210954285    -2.1492685213
  101      H       7.0997548603     5.1731035406    -0.8775136431
  102      C       5.4088650815     3.8987051080    -0.3328060233
  103      H       4.9741350159     4.7213174557     0.2499878473
  104      H       4.5359827329     3.4690731943    -0.8397239893
  105      C       6.1849351668     2.7560258199     0.4633555603
  106      C       7.2053588558     3.3146308485     1.3209906323
  107      C       6.8570711888     3.7797311454     2.6352076672
  108      H       5.8416493001     3.7797377440     3.0206546648
  109      C       7.8506043106     4.2874841919     3.4847821369
  110      H       7.6846250954     4.5280667806     4.5298868772
  111      C       9.1705346496     4.4580646867     2.9877930073
  112      H       9.8463880307     4.8802414880     3.7253795824
  113      C       9.5292952854     4.1463131606     1.7038822658
  114      H      10.5713079960     4.2530454734     1.4191811514
  115      C       8.5496738382     3.5221815242     0.8683252536
  116      H       8.7686441398     3.2698208131    -0.1640037049
  117      C       8.6168075384    -2.1249172126     0.6302413960
  118      C       7.3168436847    -2.1322475111     2.6939240863
  119      C       4.0897236981    -5.0578951890     1.3336126305
  120      C       5.6466396083    -0.9742046849    -3.4749744504
  121      C       1.7207161905    -2.6269418926     0.4730270744
  122      C       8.1084396226    -1.4457400596     1.7613972018
  123      C       3.1150367050    -2.0299972554    -2.8966823201
  124      C       6.5273383004    -5.1252139998     0.9760035860
  125      C       4.0465841345     0.1962547074     2.2788410916
  126      C       4.6188438810    -0.1228039944    -3.0785279761
  127      C       5.3555337943     1.4985796349     0.7984054897
  128      C       3.2679306586     0.4580637193     1.1843728162
  129      C       2.8747367611    -0.0284547145    -1.5956137615
  130      C       2.2197332725    -2.6843605476    -1.9766657737
  131      C       6.4186005964    -0.0698162920     2.3955035427
  132      C       2.7658904622    -4.6544063213    -0.4804679347
  133      C       6.4849042505     1.3743663816    -0.1910890481
  134      C       6.2297140668     0.9948573492    -1.5783308671
  135      C       2.2496840549    -3.9853753096     0.6284479550
  136      C       6.3051920279    -4.4030578073    -2.4858263444
  137      C       5.0054540083    -5.5444742711    -0.9296173171
  138      C       6.3208443952    -5.3560516143    -0.3628183823
  139      C       7.4607314485    -4.1969239279     1.3706563110
  140      C       7.2535391463     0.0946599403    -1.9581305929
  141      C       5.3318154001     0.7685064683     2.0822386600
  142      C       7.0002304524    -3.5327562908     2.5369329430
  143      C       3.3801647215    -0.6671807519    -2.7265167751
  144      C       6.2688853420    -1.2990064138     3.0875960127
  145      C       2.2838640806    -0.4238917924     0.7609918467
  146      C       7.4343154706    -2.2328770596    -2.7416090130
  147      C       5.3969612185    -5.0452414149     1.8334725583
  148      C       4.0313814238     1.1221734211     0.2093937226
  149      C       8.1020780588    -3.7610096722    -0.9501724822
  150      C       2.0645613626    -0.6814769240    -0.6715451399
  151      C       3.8905748440    -1.0620031552     2.9286789578
  152      C       3.8631314044    -4.1299139173    -2.6342659830
  153      C       4.0581607776    -2.8644257822    -3.3266497809
  154      C       2.8713253866    -1.9422537500     2.5313989128
  155      C       6.9409501136    -0.9004992743    -2.9261085030
  156      C       4.9266342418     0.8306166301    -2.0778565981
  157      C       6.4515514815    -3.1422661438    -3.1469982522
  158      C       7.5655217516     0.4793829279     0.3035718802
  159      C       4.6791438453    -3.1809502790     3.2298467128
  160      C       3.8360630140     0.9044428843    -1.1940681159
  161      C       2.0269463555    -1.6483937274     1.4063547631
  162      C       8.2507938703    -2.5420579371    -1.5939412877
  163      C       3.0433541271    -4.2428185074     1.7329880478
  164      C       8.2569833302    -3.4879812407     0.4427100802
  165      C       3.8995763325    -5.3620774628    -0.0173481845
  166      C       4.9840788230    -1.8070577162     3.3445981193
  167      C       3.3656721161    -3.2591682226     2.6738755177
  168      C       7.5143771741    -0.1549475726     1.5615758739
  169      C       8.0218289146    -0.2186983137    -0.8250712668
  170      C       5.0082590500    -4.8958439369    -2.2096168567
  171      C       5.6721979437    -4.0264944525     2.7382965034
  172      C       1.7209465796    -1.9865540152    -0.8510908635
  173      C       5.3185927774    -2.3787289512    -3.5456629362
  174      C       2.7308962155    -4.0055358245    -1.7677582987
  175      C       8.4910036253    -1.5405373310    -0.6462062250
  176      C       7.1042868528    -4.6779826569    -1.3769314946
 ----------------------------------------------------------------

    9   -5804.3267422132      9.04E-06 Convergence criterion met
 Total energy in the final basis set = -5804.3267422132

                    Orbital Energies (a.u.)
 --------------------------------------------------------------

 Alpha MOs
 -- Occupied --
-19.195 -19.195 -19.134 -19.131 -10.318 -10.317 -10.254 -10.250
-10.238 -10.238 -10.237 -10.236 -10.235 -10.235 -10.229 -10.229
-10.229 -10.227 -10.226 -10.225 -10.225 -10.225 -10.225 -10.225
-10.224 -10.224 -10.224 -10.223 -10.222 -10.221 -10.221 -10.221
-10.221 -10.220 -10.220 -10.220 -10.220 -10.220 -10.220 -10.220
-10.220 -10.220 -10.220 -10.220 -10.220 -10.219 -10.219 -10.219
-10.219 -10.219 -10.219 -10.219 -10.219 -10.219 -10.218 -10.218
-10.218 -10.218 -10.218 -10.218 -10.218 -10.218 -10.218 -10.218
-10.218 -10.217 -10.217 -10.217 -10.217 -10.217 -10.217 -10.217
-10.217 -10.217 -10.217 -10.217 -10.217 -10.216 -10.216 -10.216
-10.216 -10.216 -10.216 -10.216 -10.216 -10.216 -10.216 -10.216
-10.215 -10.215 -10.215 -10.215 -10.215 -10.215 -10.214 -10.214
-10.214 -10.214 -10.214 -10.214 -10.214 -10.214 -10.214 -10.213
-10.213 -10.213 -10.213 -10.213 -10.213 -10.213 -10.213 -10.213
-10.213 -10.212 -10.212 -10.212 -10.212 -10.212 -10.212 -10.212
-10.211 -10.211 -10.211 -10.211 -10.210 -10.210 -10.210 -10.209
-10.209 -10.208 -10.207 -10.206 -10.206 -10.205 -10.204 -10.204
-10.204 -10.203 -10.202 -10.201 -10.201 -10.200 -10.199 -10.198
-10.198 -10.197 -10.195 -10.194  -1.092  -1.091  -1.009  -0.995
 -0.982  -0.979  -0.968  -0.963  -0.961  -0.960  -0.959  -0.956
 -0.936  -0.930  -0.927  -0.923  -0.923  -0.922  -0.920  -0.920
 -0.919  -0.918  -0.896  -0.894  -0.890  -0.885  -0.884  -0.883
 -0.874  -0.871  -0.850  -0.848  -0.839  -0.839  -0.838  -0.838
 -0.837  -0.834  -0.820  -0.814  -0.802  -0.797  -0.796  -0.796
 -0.795  -0.795  -0.793  -0.792  -0.791  -0.789  -0.784  -0.781
 -0.772  -0.770  -0.769  -0.767  -0.766  -0.764  -0.762  -0.762
 -0.747  -0.747  -0.745  -0.742  -0.734  -0.730  -0.717  -0.716
 -0.713  -0.712  -0.712  -0.712  -0.711  -0.710  -0.710  -0.707
 -0.707  -0.706  -0.705  -0.703  -0.702  -0.702  -0.672  -0.672
 -0.658  -0.658  -0.656  -0.653  -0.647  -0.646  -0.634  -0.630
 -0.628  -0.626  -0.624  -0.623  -0.623  -0.620  -0.617  -0.616
 -0.616  -0.615  -0.612  -0.612  -0.610  -0.610  -0.608  -0.608
 -0.607  -0.606  -0.602  -0.601  -0.564  -0.563  -0.562  -0.561
 -0.560  -0.559  -0.559  -0.558  -0.556  -0.553  -0.553  -0.552
 -0.537  -0.535  -0.535  -0.530  -0.528  -0.527  -0.526  -0.525
 -0.523  -0.523  -0.518  -0.518  -0.516  -0.516  -0.513  -0.512
 -0.506  -0.506  -0.502  -0.496  -0.493  -0.489  -0.487  -0.487
 -0.485  -0.484  -0.481  -0.481  -0.480  -0.479  -0.475  -0.474
 -0.473  -0.472  -0.470  -0.469  -0.468  -0.466  -0.466  -0.464
 -0.463  -0.463  -0.463  -0.461  -0.460  -0.460  -0.458  -0.457
 -0.455  -0.453  -0.452  -0.451  -0.450  -0.448  -0.446  -0.443
 -0.442  -0.442  -0.441  -0.439  -0.438  -0.436  -0.431  -0.430
 -0.429  -0.428  -0.428  -0.427  -0.426  -0.425  -0.424  -0.423
 -0.422  -0.421  -0.421  -0.420  -0.420  -0.419  -0.418  -0.418
 -0.416  -0.416  -0.416  -0.415  -0.414  -0.414  -0.414  -0.413
 -0.411  -0.410  -0.409  -0.409  -0.403  -0.401  -0.398  -0.397
 -0.394  -0.391  -0.390  -0.389  -0.389  -0.388  -0.386  -0.385
 -0.378  -0.374  -0.374  -0.373  -0.368  -0.367  -0.366  -0.364
 -0.363  -0.363  -0.361  -0.360  -0.360  -0.359  -0.358  -0.357
 -0.356  -0.355  -0.354  -0.353  -0.353  -0.352  -0.351  -0.351
 -0.350  -0.350  -0.347  -0.347  -0.347  -0.346  -0.345  -0.345
 -0.344  -0.344  -0.340  -0.339  -0.339  -0.336  -0.335  -0.335
 -0.334  -0.332  -0.331  -0.330  -0.328  -0.326  -0.326  -0.325
 -0.305  -0.301  -0.297  -0.296  -0.290  -0.286  -0.271  -0.270
 -0.270  -0.269  -0.268  -0.267  -0.266  -0.265  -0.265  -0.264
 -0.263  -0.261  -0.260  -0.259  -0.256  -0.255  -0.253  -0.253
 -0.249  -0.247  -0.244  -0.238  -0.223  -0.222  -0.215  -0.211
 -0.210  -0.208  -0.206  -0.204  -0.199  -0.197

          Ground-State Mulliken Net Atomic Charges

     Atom                 Charge (a.u.)
  ----------------------------------------
      1 O                    -0.473287
      2 C                    -0.084180
      3 H                     0.129062
      4 H                     0.128836
      5 H                     0.136088
      6 O                    -0.478285
      7 C                     0.602368
      8 C                    -0.263273
      9 H                     0.125578
     10 H                     0.140409
     11 C                    -0.184769
     12 H                     0.114229
     13 H                     0.126480
     14 C                    -0.191963
     15 H                     0.107053
     16 H                     0.104616
     17 C                     0.025948
     18 C                     0.077278
     19 C                    -0.108707
     20 H                     0.090249
     21 C                    -0.088083
     22 H                     0.088900
     23 C                    -0.078709
     24 H                     0.090102
     25 C                    -0.091610
     26 H                     0.092740
     27 C                    -0.110370
     28 H                     0.098883
     29 C                    -0.005184
     30 C                    -0.010663
     31 C                     0.012820
     32 C                    -0.033542
     33 C                    -0.011854
     34 C                    -0.002713
     35 C                    -0.006812
     36 C                    -0.003608
     37 C                     0.035466
     38 C                    -0.007169
     39 C                    -0.122455
     40 C                    -0.007686
     41 C                    -0.027865
     42 C                     0.005757
     43 C                     0.019869
     44 C                    -0.004771
     45 C                    -0.067752
     46 C                    -0.002495
     47 C                    -0.008533
     48 C                    -0.001023
     49 C                    -0.014009
     50 C                     0.031613
     51 C                    -0.007950
     52 C                     0.002484
     53 C                     0.028536
     54 C                     0.023014
     55 C                     0.002849
     56 C                    -0.025905
     57 C                    -0.012396
     58 C                     0.001772
     59 C                    -0.048413
     60 C                     0.016497
     61 C                     0.023480
     62 C                    -0.012463
     63 C                    -0.010423
     64 C                    -0.008131
     65 C                     0.008658
     66 C                    -0.016241
     67 C                     0.017961
     68 C                     0.048192
     69 C                     0.014049
     70 C                     0.044262
     71 C                    -0.013648
     72 C                     0.012596
     73 C                     0.034870
     74 C                    -0.016370
     75 C                     0.011181
     76 C                     0.004190
     77 C                     0.013352
     78 C                     0.007706
     79 C                    -0.004017
     80 C                    -0.007154
     81 C                     0.021214
     82 C                     0.000057
     83 C                     0.006921
     84 C                     0.001086
     85 C                    -0.005214
     86 C                    -0.000181
     87 C                    -0.017821
     88 C                    -0.029627
     89 O                    -0.459760
     90 C                    -0.081286
     91 H                     0.135891
     92 H                     0.132334
     93 H                     0.138547
     94 O                    -0.491314
     95 C                     0.594449
     96 C                    -0.256708
     97 H                     0.137067
     98 H                     0.128930
     99 C                    -0.199108
    100 H                     0.111534
    101 H                     0.123102
    102 C                    -0.190792
    103 H                     0.122926
    104 H                     0.102359
    105 C                     0.017338
    106 C                     0.091167
    107 C                    -0.108335
    108 H                     0.091436
    109 C                    -0.088868
    110 H                     0.091939
    111 C                    -0.077250
    112 H                     0.085297
    113 C                    -0.085066
    114 H                     0.097361
    115 C                    -0.120624
    116 H                     0.092598
    117 C                    -0.018763
    118 C                    -0.004309
    119 C                     0.029536
    120 C                     0.000766
    121 C                    -0.006372
    122 C                    -0.020623
    123 C                     0.010847
    124 C                     0.014732
    125 C                    -0.012994
    126 C                    -0.030694
    127 C                    -0.096121
    128 C                     0.039518
    129 C                    -0.010490
    130 C                    -0.021210
    131 C                     0.016003
    132 C                     0.005936
    133 C                    -0.110107
    134 C                     0.054713
    135 C                    -0.016535
    136 C                     0.008732
    137 C                    -0.025476
    138 C                    -0.005351
    139 C                     0.015588
    140 C                    -0.015193
    141 C                     0.000515
    142 C                    -0.016921
    143 C                     0.019644
    144 C                     0.001974
    145 C                    -0.024563
    146 C                    -0.016575
    147 C                    -0.011118
    148 C                     0.036020
    149 C                    -0.014364
    150 C                     0.016210
    151 C                     0.018571
    152 C                    -0.024161
    153 C                     0.011859
    154 C                    -0.012037
    155 C                    -0.002971
    156 C                    -0.006643
    157 C                     0.006849
    158 C                     0.048269
    159 C                    -0.009830
    160 C                    -0.010180
    161 C                     0.004598
    162 C                     0.003566
    163 C                     0.020510
    164 C                    -0.000147
    165 C                    -0.014085
    166 C                     0.000348
    167 C                    -0.021331
    168 C                     0.023881
    169 C                     0.004121
    170 C                     0.000170
    171 C                     0.007695
    172 C                    -0.006368
    173 C                     0.001999
    174 C                     0.006576
    175 C                     0.015725
    176 C                     0.002947
  ----------------------------------------
  Sum of atomic charges =     0.000000

                    Cartesian Multipole Moments
 -----------------------------------------------------------------
    Charge (ESU x 10^10)
                 0.0000
    Dipole Moment (Debye)
         X      -2.0887      Y      -1.7886      Z       1.6646
       Tot       3.2145
    Quadrupole Moments (Debye-Ang)
        XX    -797.0552     XY      22.2509     YY    -816.6317
        XZ      13.6854     YZ      18.4776     ZZ    -789.6673

 Total job time:  828.68s(wall), 7864.06s(cpu)
        *  Thank you very much for using Q-Chem.  Have a nice day.  *
