 Q-Chem 4.4, Q-Chem, Inc., Pleasanton, CA (2016)
 Q-Chem 4.4.2 for Intel X86 Linux

User input:
--------------------------------------------------------------
$comment
SP
$end

$rem
MEM_STATIC 5000
MEM_TOTAL 20000
JOBTYPE SP
EXCHANGE B3LYP
BASIS 6-31g(d,p)
$end

$molecule
0 1
O          20.276000      9.034000      9.788000
C          19.000000      9.282000     10.358000
H          18.377000      8.393000     10.516000
H          18.434000     10.047000      9.812000
H          19.170000      9.702000     11.358000
O          19.523000      8.332000      7.819000
C          20.446000      8.639000      8.545000
C          21.891000      8.636000      8.220000
H          22.329000      7.762000      8.717000
H          22.291000      9.575000      8.623000
C          22.254000      8.514000      6.713000
H          22.026000      7.516000      6.319000
H          21.629000      9.223000      6.155000
C          23.761000      8.878000      6.443000
H          23.936000      9.827000      6.964000
H          24.348000      8.038000      6.832000
C          24.096000      8.993000      4.931000
C          24.135000      7.609000      4.280000
C          22.933000      7.144000      3.629000
H          22.021000      7.730000      3.688000
C          23.016000      5.941000      2.879000
H          22.115000      5.581000      2.391000
C          24.152000      5.138000      2.861000
H          24.075000      4.175000      2.365000
C          25.198000      5.403000      3.750000
H          26.013000      4.692000      3.849000
C          25.248000      6.718000      4.321000
H          26.096000      7.045000      4.916000
C          27.761000     10.623000      1.143000
C          25.624000     10.549000     -0.083000
C          25.235000     15.113000     -0.347000
C          27.279000     13.366000      5.417000
C          23.028000     15.451000      2.362000
C          26.488000     10.023000      0.896000
C          25.530000     15.499000      4.978000
C          27.202000     13.737000     -0.589000
C          22.508000     11.368000      2.435000
C          25.961000     13.269000      5.859000
C          23.673000     10.248000      4.100000
C          22.427000     12.155000      3.585000
C          23.882000     13.758000      5.338000
C          24.768000     16.127000      3.964000
C          24.251000      9.853000      1.658000
C          25.063000     16.462000      1.574000
C          25.122000      9.957000      4.416000
C          25.937000     10.916000      5.220000
C          23.768000     15.913000      1.280000
C          28.583000     14.787000      2.424000
C          27.277000     15.701000      0.858000
C          27.919000     14.599000      0.245000
C          27.308000     12.340000     -0.554000
C          27.224000     11.077000      4.715000
C          23.308000     10.259000      2.655000
C          26.033000     11.770000     -0.763000
C          25.071000     14.336000      5.650000
C          24.349000     10.527000      0.444000
C          22.406000     13.567000      3.458000
C          28.794000     12.686000      3.773000
C          25.880000     14.004000     -0.863000
C          23.159000     11.557000      4.597000
C          28.883000     12.583000      1.337000
C          23.094000     14.379000      4.345000
C          22.570000     12.045000      1.194000
C          26.785000     16.139000      3.204000
C          26.834000     15.567000      4.440000
C          22.426000     13.430000      1.044000
C          27.959000     12.275000      4.879000
C          25.265000     12.064000      5.708000
C          28.665000     14.116000      3.694000
C          26.070000      9.669000      3.283000
C          23.839000     12.745000     -0.567000
C          23.925000     12.349000      5.432000
C          22.281000     14.227000      2.243000
C          28.941000     11.946000      2.572000
C          23.972000     15.058000      0.162000
C          28.135000     11.773000      0.417000
C          25.940000     15.960000      0.544000
C          23.488000     11.635000      0.206000
C          23.269000     13.846000      0.015000
C          25.607000      9.621000      1.995000
C          27.325000     10.339000      3.493000
C          27.694000     15.782000      2.178000
C          25.152000     12.831000     -1.028000
C          23.491000     15.554000      3.678000
C          27.703000     14.460000      4.689000
C          25.532000     16.510000      2.895000
C          28.173000     10.764000      2.484000
C          28.736000     14.028000      1.253000
O          16.481000     11.664000      8.066000
C          15.210000     11.036000      8.231000
H          14.653000     10.930000      7.291000
H          14.532000     11.634000      8.852000
H          15.313000     10.044000      8.686000
O          17.005000     12.074000     10.241000
C          17.193000     12.218000      9.040000
C          18.377000     13.017000      8.576000
H          18.756000     13.423000      9.523000
H          17.934000     13.868000      8.045000
C          19.506000     12.413000      7.636000
H          19.943000     11.558000      8.167000
H          19.032000     11.904000      6.787000
C          20.561000     13.447000      7.274000
H          21.169000     13.012000      6.471000
H          19.928000     14.208000      6.802000
C          21.362000     13.973000      8.467000
C          22.076000     12.945000      9.300000
C          21.586000     12.547000     10.568000
H          20.599000     12.873000     10.885000
C          22.285000     11.653000     11.366000
H          21.865000     11.404000     12.335000
C          23.571000     11.316000     10.962000
H          24.191000     10.656000     11.562000
C          24.022000     11.603000      9.679000
H          25.014000     11.351000      9.316000
C          23.308000     12.423000      8.809000
H          23.733000     12.713000      7.852000
C          21.661000     17.322000     12.785000
C          23.944000     17.083000     12.116000
C          24.475000     21.235000     10.330000
C          18.810000     18.888000      8.833000
C          23.995000     20.311000      7.049000
C          22.682000     16.581000     12.215000
C          20.368000     20.473000      7.144000
C          23.312000     20.514000     12.339000
C          24.242000     16.406000      8.158000
C          19.348000     18.317000      7.653000
C          22.171000     15.274000      8.314000
C          23.431000     16.847000      7.096000
C          21.147000     18.352000      6.325000
C          21.667000     21.029000      6.997000
C          23.590000     15.703000     10.387000
C          23.137000     21.971000      8.592000
C          20.894000     15.260000      9.194000
C          19.854000     16.234000      8.807000
C          24.239000     21.210000      8.099000
C          20.112000     21.187000     11.116000
C          22.178000     22.033000     10.819000
C          22.146000     21.295000     12.035000
C          23.115000     19.217000     12.875000
C          19.284000     16.775000      9.998000
C          23.508000     15.557000      8.962000
C          24.158000     18.430000     12.370000
C          20.067000     19.174000      6.762000
C          24.509000     16.559000     10.964000
C          23.507000     18.161000      6.556000
C          19.024000     18.941000     11.127000
C          24.456000     20.532000     11.531000
C          22.162000     16.283000      7.147000
C          20.703000     19.449000     12.783000
C          22.433000     18.914000      6.117000
C          25.154000     17.296000      8.689000
C          20.751000     21.928000      8.882000
C          19.836000     21.028000      8.325000
C          25.290000     18.535000      8.116000
C          18.776000     18.094000     10.045000
C          19.872000     17.019000      7.648000
C          19.202000     20.265000     10.611000
C          21.125000     15.572000     10.616000
C          25.568000     18.683000     10.373000
C          21.002000     17.042000      6.771000
C          24.507000     18.995000      7.058000
C          19.828000     18.538000     12.186000
C          25.036000     20.706000      9.191000
C          21.826000     18.692000     13.108000
C          23.295000     22.007000     10.019000
C          25.261000     17.346000     10.049000
C          25.586000     19.398000      9.194000
C          22.417000     15.730000     11.172000
C          20.097000     16.402000     11.118000
C          20.861000     21.988000     10.259000
C          24.990000     19.237000     11.547000
C          22.750000     20.246000      6.484000
C          19.056000     20.219000      9.170000
C          21.825000     21.861000      8.064000
C          20.344000     17.259000     12.257000
C          20.843000     20.782000     12.233000
$end

--------------------------------------------------------------

             Standard Nuclear Orientation (Angstroms)
    I     Atom           X                Y                Z
 ----------------------------------------------------------------
    1      O       0.4473224288    -7.1172233289     0.9449489890
    2      C      -0.5135699436    -7.8881076777     0.2399644718
    3      H      -0.2299749701    -8.9308346946     0.0509981808
    4      H      -0.8374974385    -7.4103428092    -0.6930460900
    5      H      -1.4113192904    -7.9383076600     0.8699057962
    6      O       1.9967707044    -7.1573587727    -0.6470224892
    7      C       1.6018911243    -6.7564545091     0.4284308518
    8      C       2.2894682381    -5.8272241961     1.3544047920
    9      H       2.6775336939    -6.4307491730     2.1837972228
   10      H       1.5228441588    -5.1184344538     1.6920949194
   11      C       3.5025856906    -5.0500753350     0.7695221591
   12      H       4.3579439252    -5.7111109519     0.5834624811
   13      H       3.2049229448    -4.6390591071    -0.2036851930
   14      C       3.9290871115    -3.8499309587     1.6937488704
   15      H       3.0036813933    -3.3088323984     1.9250573328
   16      H       4.4153906682    -4.3002714330     2.5667851285
   17      C       4.9789136380    -2.9170101357     1.0310898312
   18      C       6.3502682467    -3.5938545836     0.9858556578
   19      C       6.7096036812    -4.2925516991    -0.2255610279
   20      H       5.9855832306    -4.3983507027    -1.0275722235
   21      C       8.0414603246    -4.7727135402    -0.3360168459
   22      H       8.3184367193    -5.3045881785    -1.2415213716
   23      C       8.9545398679    -4.7175099095     0.7122518728
   24      H       9.9040771083    -5.2262107652     0.5747147193
   25      C       8.5175663008    -4.3515289790     1.9888779183
   26      H       9.1869959761    -4.4574940321     2.8375134805
   27      C       7.2747143945    -3.6399560371     2.0710307477
   28      H       6.9305168546    -3.2077798975     3.0063434429
   29      C       7.6293577925     1.9164769979     1.2560718602
   30      C       7.8138266268     1.2407987630    -1.1071359538
   31      C       4.8307172048     4.3965783611    -2.5880904789
   32      C       2.7715969552     1.7183433591     2.8008539513
   33      C       2.0689663519     2.2367432606    -2.7659065769
   34      C       7.7835079934     0.9043202111     0.2594202890
   35      C       1.0837356719     2.4784143721     0.7092451581
   36      C       6.5441101952     4.5956255945    -0.9011720875
   37      C       4.5671894661    -0.9874823440    -2.2092482233
   38      C       2.1127638453     0.7353888491     2.0648944655
   39      C       4.5672120683    -1.8862598985    -0.0700780788
   40      C       3.2432954987    -0.9793862593    -1.7669030902
   41      C       1.4668433910     0.1807280033     0.0380888229
   42      C       1.1027344406     2.9586260484    -0.6220173227
   43      C       6.6609087508    -0.7730587399    -0.9815002545
   44      C       2.5845301798     4.4145808984    -1.8852777320
   45      C       5.0159970370    -1.4433603783     1.3034466086
   46      C       4.1001084943    -0.6713623565     2.1953486390
   47      C       2.7293046491     3.4475374466    -2.9382398943
   48      C       4.2631050246     4.7644874176     1.7172875926
   49      C       4.2878746279     5.3958970844    -0.4260967172
   50      C       5.6408750931     5.2318429572    -0.0455537042
   51      C       7.4838367134     3.6427946075    -0.4851225937
   52      C       4.7487868755     0.3681327149     2.8556374806
   53      C       5.4149834517    -1.4386249247    -1.2112518656
   54      C       7.5918027007     2.6341197815    -1.4675300656
   55      C       1.2564239539     1.1026895833     1.0132090748
   56      C       7.0617707608     0.2971355010    -1.7762769122
   57      C       2.3829968018     0.0711341247    -2.1750783894
   58      C       4.8201564211     2.7865460504     3.1511511459
   59      C       6.1240274277     4.1862939429    -2.1461729177
   60      C       3.1960021477    -1.4536971917    -0.4667629138
   61      C       6.5576723110     3.8385346490     1.7994912328
   62      C       1.4679589795     0.6324970026    -1.2992733295
   63      C       4.9726084549     0.0771600342    -3.0485491526
   64      C       2.2580011553     4.4026442393     0.4853233125
   65      C       1.8219738904     3.4755164734     1.3839863918
   66      C       4.1060228410     1.0515645563    -3.5594563858
   67      C       4.0790553714     1.5496855233     3.2527743251
   68      C       2.7909943705    -0.4356373432     1.7072032417
   69      C       3.8806817711     3.7697969311     2.6838321034
   70      C       6.2766381416    -0.6308928483     1.4300069419
   71      C       6.1027403981     2.0460154149    -3.2673922028
   72      C       2.3544735300    -0.8410749051     0.4430549359
   73      C       2.7218121569     1.0102356669    -3.1398283303
   74      C       6.1684527738     2.8704527895     2.7191018379
   75      C       4.1166038171     3.4439062367    -3.2512140669
   76      C       7.4742200593     3.2604769897     0.8572632522
   77      C       3.8952008648     4.9903720510    -1.7046125610
   78      C       6.2070586193     0.7222703397    -2.8319077776
   79      C       4.7945351633     2.2623095865    -3.6103803877
   80      C       7.0262767311    -0.3481104196     0.3192895687
   81      C       6.0950351025     0.4376717147     2.3751075243
   82      C       3.4798844946     5.0974006479     0.6605963498
   83      C       6.7800674315     3.0268075874    -2.5440936447
   84      C       1.2638971243     1.9807621290    -1.6509307031
   85      C       2.6711982496     3.0505923476     2.4521008402
   86      C       1.8146092296     4.1204814060    -0.7503622202
   87      C       6.7657102272     1.6487123439     2.3378856026
   88      C       5.6057747315     4.8248687558     1.3119196708
   89      O      -1.3680311096    -6.5512801213    -3.6013031835
   90      C      -1.4720322368    -7.7644185824    -4.3459701156
   91      H      -0.9485084385    -7.7280282285    -5.3101711189
   92      H      -2.5068697066    -7.9825456574    -4.6365918462
   93      H      -1.0854193099    -8.6160491550    -3.7741713639
   94      O      -2.9359666674    -6.9350444267    -1.9989286816
   95      C      -2.1623186130    -6.1990773187    -2.5975120958
   96      C      -1.9988098775    -4.7793796678    -2.1356934370
   97      H      -2.7840530070    -4.7021932953    -1.3723314709
   98      H      -2.3503007987    -4.1799343203    -2.9839448193
   99      C      -0.5995089477    -4.1786618185    -1.6838616392
  100      H      -0.2472959240    -4.7842272599    -0.8393549891
  101      H       0.1575593635    -4.4243272268    -2.4395428413
  102      C      -0.7026327137    -2.7069739033    -1.3140979726
  103      H       0.3237423422    -2.3304396632    -1.2220424969
  104      H      -1.0953690827    -2.3012935164    -2.2541913552
  105      C      -1.5970142803    -2.4230107917    -0.1053909921
  106      C      -1.2436275515    -3.1343132963     1.1711808103
  107      C      -1.9910187135    -4.2454594446     1.6327961136
  108      H      -2.7400785185    -4.6914014493     0.9839670629
  109      C      -1.7080247795    -4.8540130246     2.8469698959
  110      H      -2.3305654911    -5.6886875259     3.1521313929
  111      C      -0.7964895123    -4.2144569131     3.6780249102
  112      H      -0.5613090608    -4.6118602601     4.6612648276
  113      C       0.0222235343    -3.1970096397     3.2022424040
  114      H       0.7546596224    -2.6752942214     3.8110834335
  115      C      -0.1679219822    -2.6175182847     1.9503915934
  116      H       0.4208871527    -1.7562168036     1.6470146641
  117      C      -6.6351457089    -1.7831760740     1.9337679626
  118      C      -5.2883096789    -0.4131805199     3.3571146843
  119      C      -6.6754263602     3.6234318933     1.7783403060
  120      C      -5.9364224510    -0.4747898092    -2.9650862086
  121      C      -4.0067300365     4.1539496466    -0.3301539067
  122      C      -5.4287574436    -1.5024822106     2.5520399970
  123      C      -5.3499790484     2.2502003654    -3.1161579926
  124      C      -7.9243435215     1.5877706994     2.2308670212
  125      C      -2.0767230462     1.0166605057     1.3939124680
  126      C      -4.5883617591    -0.0666381179    -3.1201009423
  127      C      -2.0978914453    -0.9876166132     0.1380358301
  128      C      -1.9168693446     1.3581718880     0.0382344937
  129      C      -3.1363460947     1.5260143776    -2.5231767100
  130      C      -5.2011713800     3.4193566053    -2.3230149006
  131      C      -3.3206904198    -0.8248736719     2.3681049777
  132      C      -6.4268011903     4.1866341234    -0.4518105349
  133      C      -3.0936045682    -2.0827165190    -0.3252530357
  134      C      -3.8166916501    -1.7847460859    -1.5776122864
  135      C      -5.2327962684     4.4631977642     0.2792426773
  136      C      -8.5820325569     0.8634223165    -1.1204644386
  137      C      -8.2773372623     2.7235736364     0.1121258602
  138      C      -8.6156652333     1.6428833732     0.9735007722
  139      C      -7.4863377040     0.3195331225     2.6869792359
  140      C      -5.1625442862    -2.2365745056    -1.4341070220
  141      C      -2.2905644344    -0.3436482730     1.4929320978
  142      C      -6.2860191045     0.5507183856     3.3711076112
  143      C      -4.3261046999     1.3296513008    -3.2840768371
  144      C      -3.9816381577     0.0307919963     3.2290407197
  145      C      -2.4025712015     2.5743278670    -0.5176704812
  146      C      -7.4472004568    -1.3344521772    -1.4519532236
  147      C      -7.0227313116     2.5813909886     2.6330338321
  148      C      -1.9860253585     0.2421077436    -0.7867965791
  149      C      -8.3577704345    -0.7893661647     0.7144226798
  150      C      -2.9546536532     2.7193234055    -1.7775860578
  151      C      -2.7315691531     1.9130644528     2.2145473076
  152      C      -7.3641689006     2.7271491930    -2.1161994659
  153      C      -6.6861344740     1.8334798718    -2.9523205461
  154      C      -3.1257925263     3.1230898186     1.7023241665
  155      C      -6.2354610534    -1.5946932546    -2.0950700092
  156      C      -3.5525231448    -0.7034045274    -2.4265795619
  157      C      -7.9227662763    -0.0661797455    -1.9169674064
  158      C      -4.1839784436    -2.3631439516     0.6261849638
  159      C      -4.6541627115     2.3823436940     3.2217374599
  160      C      -2.6122973689     0.3166475204    -2.0772554861
  161      C      -2.9722236969     3.4916308694     0.3664173178
  162      C      -7.6325665263    -1.6513842437    -0.1119907295
  163      C      -5.3754751787     4.0559155106     1.6559971560
  164      C      -7.7104391244    -0.8601059661     1.9455851611
  165      C      -7.3605714264     3.6675961750     0.5080132793
  166      C      -3.6460090846     1.4058157598     3.0920707404
  167      C      -4.3299747963     3.4226623902     2.3766166365
  168      C      -4.2461094858    -1.7920798263     1.9197805337
  169      C      -5.4060284415    -2.5541955282    -0.0577602808
  170      C      -8.2957370424     2.2211443619    -1.2285233379
  171      C      -5.9997979925     1.9429296759     3.3460636891
  172      C      -3.9852058903     3.6787325070    -1.6135791603
  173      C      -6.9690427655     0.4584649920    -2.8735615546
  174      C      -6.4219056708     3.6264824824    -1.7550504103
  175      C      -6.6631219017    -2.3125732412     0.6161193099
  176      C      -8.8287020845     0.4796325946     0.1978430345
 ----------------------------------------------------------------

    9   -5804.2983954049      8.50E-06 Convergence criterion met
 Total energy in the final basis set = -5804.2983954049

                    Orbital Energies (a.u.)
 --------------------------------------------------------------

 Alpha MOs
 -- Occupied --
-19.200 -19.188 -19.132 -19.124 -10.319 -10.307 -10.253 -10.245
-10.244 -10.243 -10.240 -10.240 -10.239 -10.238 -10.231 -10.230
-10.229 -10.228 -10.228 -10.225 -10.225 -10.225 -10.225 -10.224
-10.224 -10.224 -10.224 -10.223 -10.223 -10.223 -10.222 -10.222
-10.222 -10.222 -10.222 -10.222 -10.221 -10.221 -10.221 -10.221
-10.221 -10.220 -10.220 -10.220 -10.220 -10.220 -10.219 -10.219
-10.219 -10.219 -10.219 -10.218 -10.218 -10.218 -10.218 -10.218
-10.218 -10.218 -10.218 -10.217 -10.217 -10.217 -10.217 -10.216
-10.216 -10.216 -10.216 -10.216 -10.216 -10.216 -10.216 -10.215
-10.215 -10.215 -10.215 -10.215 -10.215 -10.215 -10.215 -10.215
-10.215 -10.215 -10.215 -10.215 -10.214 -10.214 -10.214 -10.214
-10.214 -10.214 -10.214 -10.214 -10.214 -10.214 -10.214 -10.213
-10.213 -10.213 -10.213 -10.213 -10.213 -10.213 -10.213 -10.213
-10.212 -10.212 -10.212 -10.212 -10.212 -10.212 -10.212 -10.211
-10.211 -10.211 -10.211 -10.211 -10.210 -10.210 -10.210 -10.210
-10.209 -10.209 -10.209 -10.209 -10.208 -10.208 -10.208 -10.208
-10.208 -10.207 -10.207 -10.207 -10.206 -10.205 -10.205 -10.203
-10.202 -10.201 -10.201 -10.200 -10.200 -10.200 -10.199 -10.199
-10.198 -10.198 -10.197 -10.195  -1.107  -1.106  -1.013  -1.006
 -0.987  -0.981  -0.970  -0.968  -0.965  -0.961  -0.961  -0.957
 -0.936  -0.933  -0.931  -0.928  -0.927  -0.926  -0.924  -0.924
 -0.921  -0.916  -0.902  -0.896  -0.893  -0.890  -0.887  -0.881
 -0.873  -0.873  -0.854  -0.849  -0.845  -0.844  -0.840  -0.838
 -0.837  -0.836  -0.821  -0.820  -0.804  -0.803  -0.803  -0.801
 -0.799  -0.797  -0.796  -0.794  -0.793  -0.788  -0.784  -0.784
 -0.774  -0.772  -0.770  -0.769  -0.767  -0.766  -0.764  -0.762
 -0.758  -0.751  -0.748  -0.744  -0.737  -0.731  -0.722  -0.720
 -0.716  -0.715  -0.715  -0.713  -0.711  -0.711  -0.710  -0.709
 -0.708  -0.708  -0.706  -0.706  -0.704  -0.703  -0.674  -0.672
 -0.663  -0.660  -0.657  -0.655  -0.650  -0.647  -0.637  -0.630
 -0.629  -0.626  -0.626  -0.625  -0.624  -0.622  -0.619  -0.619
 -0.617  -0.616  -0.613  -0.613  -0.611  -0.610  -0.609  -0.608
 -0.607  -0.607  -0.605  -0.602  -0.579  -0.565  -0.565  -0.564
 -0.562  -0.561  -0.561  -0.559  -0.559  -0.557  -0.554  -0.552
 -0.538  -0.536  -0.532  -0.532  -0.530  -0.529  -0.527  -0.526
 -0.525  -0.525  -0.524  -0.522  -0.517  -0.516  -0.515  -0.514
 -0.508  -0.505  -0.503  -0.499  -0.498  -0.492  -0.489  -0.489
 -0.487  -0.484  -0.484  -0.482  -0.481  -0.479  -0.479  -0.476
 -0.475  -0.474  -0.472  -0.471  -0.471  -0.469  -0.468  -0.468
 -0.466  -0.465  -0.464  -0.463  -0.463  -0.462  -0.460  -0.459
 -0.458  -0.456  -0.454  -0.452  -0.451  -0.448  -0.445  -0.445
 -0.443  -0.441  -0.441  -0.440  -0.438  -0.437  -0.436  -0.435
 -0.433  -0.431  -0.430  -0.429  -0.427  -0.426  -0.425  -0.424
 -0.424  -0.423  -0.423  -0.422  -0.421  -0.420  -0.419  -0.419
 -0.418  -0.417  -0.417  -0.416  -0.415  -0.414  -0.413  -0.412
 -0.412  -0.411  -0.408  -0.407  -0.405  -0.403  -0.398  -0.398
 -0.396  -0.394  -0.394  -0.393  -0.391  -0.388  -0.388  -0.383
 -0.379  -0.377  -0.375  -0.373  -0.371  -0.370  -0.369  -0.368
 -0.367  -0.365  -0.364  -0.363  -0.362  -0.360  -0.360  -0.358
 -0.358  -0.357  -0.356  -0.355  -0.354  -0.354  -0.353  -0.350
 -0.350  -0.349  -0.348  -0.347  -0.347  -0.346  -0.344  -0.343
 -0.342  -0.340  -0.340  -0.339  -0.337  -0.336  -0.336  -0.335
 -0.334  -0.332  -0.331  -0.330  -0.329  -0.328  -0.326  -0.324
 -0.311  -0.307  -0.304  -0.295  -0.290  -0.283  -0.276  -0.273
 -0.272  -0.271  -0.270  -0.267  -0.266  -0.266  -0.265  -0.264
 -0.263  -0.262  -0.261  -0.260  -0.259  -0.256  -0.254  -0.252
 -0.250  -0.248  -0.245  -0.242  -0.228  -0.220  -0.215  -0.212
 -0.211  -0.210  -0.208  -0.206  -0.203  -0.198

          Ground-State Mulliken Net Atomic Charges

     Atom                 Charge (a.u.)
  ----------------------------------------
      1 O                    -0.444111
      2 C                    -0.089852
      3 H                     0.120230
      4 H                     0.130879
      5 H                     0.122435
      6 O                    -0.493219
      7 C                     0.597810
      8 C                    -0.274362
      9 H                     0.135097
     10 H                     0.147925
     11 C                    -0.183823
     12 H                     0.119910
     13 H                     0.107886
     14 C                    -0.183496
     15 H                     0.104580
     16 H                     0.111417
     17 C                     0.023643
     18 C                     0.064036
     19 C                    -0.098587
     20 H                     0.102139
     21 C                    -0.093697
     22 H                     0.091639
     23 C                    -0.079927
     24 H                     0.091059
     25 C                    -0.091035
     26 H                     0.097556
     27 C                    -0.112502
     28 H                     0.087581
     29 C                    -0.014046
     30 C                    -0.013016
     31 C                     0.009391
     32 C                     0.029269
     33 C                     0.005952
     34 C                    -0.004251
     35 C                    -0.002559
     36 C                     0.030838
     37 C                    -0.007749
     38 C                    -0.020490
     39 C                    -0.085549
     40 C                     0.012029
     41 C                    -0.003668
     42 C                    -0.020355
     43 C                     0.012992
     44 C                    -0.017388
     45 C                    -0.103510
     46 C                     0.024957
     47 C                    -0.014182
     48 C                     0.007811
     49 C                    -0.005702
     50 C                    -0.018470
     51 C                    -0.013859
     52 C                     0.001041
     53 C                     0.037839
     54 C                     0.002141
     55 C                     0.023425
     56 C                     0.005389
     57 C                     0.018557
     58 C                    -0.007039
     59 C                     0.016565
     60 C                     0.014893
     61 C                     0.004872
     62 C                     0.003235
     63 C                     0.003236
     64 C                     0.023462
     65 C                    -0.017743
     66 C                    -0.025834
     67 C                    -0.024255
     68 C                     0.006860
     69 C                    -0.016145
     70 C                     0.028639
     71 C                    -0.020595
     72 C                    -0.022060
     73 C                    -0.031476
     74 C                    -0.002286
     75 C                     0.025822
     76 C                     0.007122
     77 C                    -0.019543
     78 C                     0.013800
     79 C                     0.014805
     80 C                     0.004964
     81 C                     0.019619
     82 C                     0.016625
     83 C                    -0.016671
     84 C                     0.002469
     85 C                    -0.011325
     86 C                     0.036674
     87 C                    -0.007718
     88 C                    -0.015054
     89 O                    -0.442137
     90 C                    -0.088855
     91 H                     0.129271
     92 H                     0.128103
     93 H                     0.133095
     94 O                    -0.490548
     95 C                     0.588385
     96 C                    -0.253188
     97 H                     0.135737
     98 H                     0.121789
     99 C                    -0.204247
    100 H                     0.113494
    101 H                     0.122592
    102 C                    -0.195372
    103 H                     0.116498
    104 H                     0.113166
    105 C                     0.043209
    106 C                     0.053154
    107 C                    -0.103235
    108 H                     0.104909
    109 C                    -0.080570
    110 H                     0.097741
    111 C                    -0.081667
    112 H                     0.089142
    113 C                    -0.107313
    114 H                     0.090968
    115 C                    -0.080510
    116 H                     0.098206
    117 C                    -0.021554
    118 C                    -0.017058
    119 C                     0.010499
    120 C                    -0.007712
    121 C                     0.014982
    122 C                     0.032093
    123 C                     0.010248
    124 C                    -0.003024
    125 C                     0.000180
    126 C                    -0.008719
    127 C                    -0.112924
    128 C                     0.008420
    129 C                    -0.002058
    130 C                     0.000165
    131 C                    -0.013311
    132 C                    -0.018324
    133 C                    -0.090395
    134 C                     0.052544
    135 C                    -0.026342
    136 C                     0.018384
    137 C                    -0.006922
    138 C                    -0.017949
    139 C                     0.000505
    140 C                    -0.014498
    141 C                     0.043179
    142 C                     0.009053
    143 C                    -0.024158
    144 C                    -0.012121
    145 C                     0.006264
    146 C                     0.022657
    147 C                    -0.004883
    148 C                     0.036227
    149 C                     0.006373
    150 C                    -0.010458
    151 C                     0.003163
    152 C                     0.003104
    153 C                    -0.010016
    154 C                     0.008971
    155 C                    -0.024917
    156 C                     0.001339
    157 C                    -0.020909
    158 C                     0.030471
    159 C                    -0.018527
    160 C                    -0.018369
    161 C                    -0.005592
    162 C                     0.018611
    163 C                     0.014801
    164 C                    -0.006012
    165 C                     0.000224
    166 C                     0.014350
    167 C                    -0.006455
    168 C                     0.032353
    169 C                    -0.012344
    170 C                     0.011346
    171 C                    -0.005992
    172 C                    -0.007582
    173 C                    -0.001285
    174 C                     0.025913
    175 C                    -0.018605
    176 C                    -0.013183
  ----------------------------------------
  Sum of atomic charges =     0.000000

                    Cartesian Multipole Moments
 -----------------------------------------------------------------
    Charge (ESU x 10^10)
                 0.0000
    Dipole Moment (Debye)
         X       2.8629      Y      -2.5601      Z       0.2858
       Tot       3.8513
    Quadrupole Moments (Debye-Ang)
        XX    -817.3117     XY     -10.5898     YY    -800.5661
        XZ       8.2920     YZ      -1.7262     ZZ    -792.4682

 Total job time:  898.53s(wall), 8637.69s(cpu)
        *  Thank you very much for using Q-Chem.  Have a nice day.  *
