 Q-Chem 4.4, Q-Chem, Inc., Pleasanton, CA (2016)
 Q-Chem 4.4.2 for Intel X86 Linux

User input:
--------------------------------------------------------------
$comment
SP
$end

$rem
MEM_STATIC 5000
MEM_TOTAL 20000
JOBTYPE SP
EXCHANGE B3LYP
BASIS 6-31g(d,p)
$end

$molecule
0 1
O          -3.207000    -28.978000     -7.172000
C          -2.387000    -30.067000     -7.324000
H          -2.199000    -30.343000     -8.369000
H          -2.755000    -30.898000     -6.710000
H          -1.467000    -29.790000     -6.796000
O          -5.142000    -30.134000     -7.640000
C          -4.544000    -29.055000     -7.332000
C          -5.192000    -27.693000     -7.341000
H          -4.413000    -26.922000     -7.390000
H          -5.553000    -27.587000     -6.311000
C          -6.276000    -27.519000     -8.425000
H          -5.737000    -27.650000     -9.370000
H          -7.017000    -28.328000     -8.391000
C          -6.787000    -26.110000     -8.469000
H          -7.413000    -25.775000     -7.633000
H          -5.906000    -25.486000     -8.275000
C          -7.561000    -25.715000     -9.745000
C          -8.738000    -26.682000    -10.001000
C          -9.837000    -26.723000     -9.102000
H          -9.986000    -26.090000     -8.233000
C         -10.861000    -27.729000     -9.290000
H         -11.646000    -28.006000     -8.594000
C         -10.849000    -28.531000    -10.428000
H         -11.515000    -29.386000    -10.496000
C          -9.784000    -28.445000    -11.440000
H          -9.843000    -29.124000    -12.286000
C          -8.747000    -27.554000    -11.154000
H          -7.976000    -27.470000    -11.916000
C          -7.401000    -24.063000    -14.919000
C          -9.352000    -23.009000    -13.975000
C          -7.699000    -18.743000    -13.982000
C          -3.314000    -22.986000    -11.984000
C          -6.876000    -18.774000    -10.583000
C          -8.509000    -24.078000    -14.110000
C          -3.721000    -20.393000    -10.996000
C          -7.476000    -20.564000    -15.612000
C          -8.939000    -22.296000    -10.095000
C          -3.758000    -22.818000    -10.688000
C          -7.730000    -24.243000     -9.997000
C          -7.848000    -21.939000     -9.258000
C          -5.102000    -21.604000     -9.398000
C          -4.575000    -19.281000    -10.987000
C          -9.254000    -23.912000    -11.883000
C          -5.849000    -18.221000    -12.739000
C          -6.807000    -25.057000    -10.878000
C          -5.383000    -24.702000    -10.966000
C          -7.034000    -18.242000    -11.911000
C          -4.132000    -21.202000    -14.933000
C          -5.535000    -19.398000    -14.871000
C          -6.088000    -20.392000    -15.697000
C          -7.945000    -21.880000    -15.635000
C          -4.970000    -24.781000    -12.338000
C          -8.927000    -23.618000    -10.534000
C          -9.000000    -21.883000    -14.763000
C          -3.961000    -21.534000    -10.212000
C          -9.735000    -22.860000    -12.652000
C          -7.324000    -20.595000     -9.317000
C          -4.050000    -23.491000    -14.131000
C          -8.282000    -19.726000    -14.808000
C          -7.007000    -23.080000     -9.282000
C          -5.748000    -22.813000    -15.747000
C          -5.948000    -20.435000     -9.304000
C          -9.515000    -21.285000    -10.852000
C          -3.824000    -19.588000    -13.124000
C          -3.256000    -20.553000    -12.287000
C          -9.037000    -19.954000    -10.784000
C          -3.942000    -23.949000    -12.850000
C          -4.815000    -23.657000    -10.175000
C          -3.572000    -22.187000    -14.116000
C          -7.203000    -25.223000    -12.327000
C          -9.661000    -20.447000    -12.940000
C          -5.630000    -22.863000     -9.337000
C          -7.955000    -19.557000    -10.063000
C          -5.179000    -23.782000    -14.928000
C          -8.115000    -18.622000    -12.661000
C          -7.103000    -22.967000    -15.780000
C          -6.272000    -18.574000    -14.004000
C          -9.832000    -21.564000    -12.180000
C          -9.165000    -19.435000    -12.114000
C          -8.409000    -24.643000    -12.791000
C          -6.095000    -25.060000    -13.119000
C          -4.247000    -19.896000    -14.447000
C          -9.277000    -20.564000    -14.272000
C          -5.692000    -19.275000    -10.109000
C          -3.097000    -21.867000    -12.793000
C          -4.666000    -18.770000    -12.289000
C          -6.220000    -24.530000    -14.407000
C          -5.244000    -21.491000    -15.742000
O          -7.345000    -29.030000     -4.883000
C          -7.043000    -30.478000     -4.535000
H          -6.571000    -30.486000     -3.545000
H          -6.444000    -30.891000     -5.355000
H          -7.945000    -31.094000     -4.434000
O          -8.652000    -28.799000     -3.064000
C          -8.093000    -28.314000     -4.026000
C          -8.040000    -26.802000     -4.351000
H          -8.513000    -26.688000     -5.334000
H          -6.979000    -26.526000     -4.383000
C          -8.773000    -26.022000     -3.237000
H          -9.850000    -26.177000     -3.377000
H          -8.444000    -26.374000     -2.252000
C          -8.443000    -24.522000     -3.494000
H          -7.375000    -24.338000     -3.327000
H          -8.381000    -24.250000     -4.554000
C          -9.388000    -23.657000     -2.766000
C          -8.964000    -23.428000     -1.252000
C          -9.851000    -23.890000     -0.293000
H         -10.839000    -24.230000     -0.588000
C          -9.507000    -23.955000      1.021000
H         -10.228000    -24.323000      1.746000
C          -8.238000    -23.435000      1.410000
H          -7.959000    -23.366000      2.457000
C          -7.284000    -22.914000      0.447000
H          -6.264000    -22.590000      0.631000
C          -7.731000    -22.882000     -0.890000
H          -7.113000    -22.317000     -1.584000
C         -14.673000    -22.207000     -2.445000
C         -13.470000    -20.167000     -1.679000
C         -14.327000    -17.567000     -5.317000
C         -12.897000    -23.633000     -7.029000
C         -11.136000    -18.146000     -6.768000
C         -13.565000    -21.550000     -1.810000
C         -12.148000    -21.280000     -8.376000
C         -15.812000    -19.094000     -4.080000
C          -9.878000    -19.939000     -3.480000
C         -11.527000    -23.227000     -7.071000
C          -9.765000    -22.283000     -3.397000
C          -9.348000    -20.331000     -4.685000
C         -10.121000    -21.512000     -7.111000
C         -12.061000    -19.852000     -8.299000
C         -11.389000    -21.043000     -1.931000
C         -13.567000    -18.197000     -7.391000
C         -10.725000    -23.407000     -3.401000
C         -11.213000    -23.947000     -4.773000
C         -12.489000    -17.625000     -6.651000
C         -15.712000    -21.466000     -6.715000
C         -15.592000    -19.248000     -6.584000
C         -16.144000    -19.693000     -5.330000
C         -15.490000    -19.898000     -2.980000
C         -12.634000    -24.211000     -4.691000
C         -10.211000    -21.083000     -2.688000
C         -14.445000    -19.294000     -2.272000
C         -11.204000    -22.076000     -7.788000
C         -12.076000    -19.877000     -1.824000
C          -9.606000    -19.524000     -5.813000
C         -14.760000    -23.544000     -5.657000
C         -14.890000    -17.991000     -4.074000
C          -9.358000    -21.698000     -4.765000
C         -15.917000    -21.899000     -4.331000
C          -9.929000    -20.123000     -7.050000
C         -10.594000    -18.793000     -3.341000
C         -14.227000    -20.420000     -8.219000
C         -13.483000    -21.632000     -8.352000
C         -10.817000    -17.995000     -4.417000
C         -13.482000    -24.061000     -5.813000
C         -10.699000    -23.392000     -5.977000
C         -15.008000    -22.706000     -6.762000
C         -12.034000    -23.258000     -2.705000
C         -12.672000    -17.878000     -3.140000
C          -9.787000    -22.280000     -5.970000
C         -10.364000    -18.330000     -5.675000
C         -15.198000    -23.076000     -4.418000
C         -12.956000    -17.246000     -5.387000
C         -15.536000    -21.308000     -3.102000
C         -14.691000    -18.158000     -6.574000
C         -11.687000    -18.758000     -2.564000
C         -12.071000    -17.406000     -4.290000
C         -12.283000    -22.112000     -1.943000
C         -13.089000    -23.797000     -3.413000
C         -15.303000    -20.327000     -7.393000
C         -14.035000    -18.170000     -2.987000
C         -10.954000    -19.251000     -7.592000
C         -13.859000    -22.786000     -7.632000
C         -13.360000    -19.300000     -8.254000
C         -14.366000    -23.270000     -3.313000
C         -16.209000    -21.074000     -5.445000
$end

--------------------------------------------------------------

             Standard Nuclear Orientation (Angstroms)
    I     Atom           X                Y                Z
 ----------------------------------------------------------------
    1      O       3.5091705155     8.0870979785    -1.2229080204
    2      C       4.2320509080     9.2512472604    -1.1626968295
    3      H       5.2173122667     9.1421872947    -0.6926851499
    4      H       3.6200528554    10.0463314546    -0.7196612693
    5      H       4.3040987400     9.5804352649    -2.2059405055
    6      O       2.9050267786     8.1268800576     0.9981306401
    7      C       2.8757135479     7.5759885819    -0.1474558108
    8      C       2.3504798904     6.1862626167    -0.4078792094
    9      H       2.7500280505     5.8214042505    -1.3623018833
   10      H       1.2972639980     6.3651318023    -0.6552637250
   11      C       2.5806861217     5.1984094756     0.7546779989
   12      H       3.6708531764     5.1421302548     0.8499431136
   13      H       2.2196174576     5.6036676993     1.7086765271
   14      C       2.1573515701     3.8081355417     0.3855381254
   15      H       1.0813311413     3.6177061375     0.2911258448
   16      H       2.4364724394     3.7009061286    -0.6698131874
   17      C       2.6959667151     2.6788229187     1.2898741940
   18      C       2.3360109449     2.9347328112     2.7700417421
   19      C       0.9797955567     2.9019622502     3.1910986400
   20      H       0.1177615048     2.6583892611     2.5782197839
   21      C       0.6577299023     3.2758794350     4.5521334129
   22      H      -0.3257037654     3.4806335487     4.9623820866
   23      C       1.6777708278     3.5021580532     5.4722999724
   24      H       1.4477880701     3.9344053751     6.4415652528
   25      C       3.1004583695     3.4397873275     5.1010385397
   26      H       3.8291937507     3.6511347424     5.8785441760
   27      C       3.3641989070     3.2055329096     3.7495165101
   28      H       4.4153527276     3.1306472546     3.4819183335
   29      C       6.7780431137    -0.6782974271     2.5513714236
   30      C       4.7662621065    -1.9346471288     2.9788940618
   31      C       5.2296981292    -4.8677758319    -0.5015077920
   32      C       6.6395704375     1.1445613373    -2.2585905558
   33      C       2.9610787237    -3.1874040542    -2.5657770773
   34      C       5.4863509989    -0.7716941617     3.0043377915
   35      C       5.3043808949    -0.7884224122    -3.7903492540
   36      C       6.8877586112    -3.9031707457     1.0291922000
   37      C       1.7856449688    -0.8434626473     0.6001179256
   38      C       5.3162346660     1.3446177713    -2.5958380303
   39      C       2.6308278356     1.2850457221     0.7313126015
   40      C       1.6973362478    -0.3938395950    -0.7446272847
   41      C       3.3565494327     0.3235426613    -2.8433686469
   42      C       4.6747802043    -2.0411525642    -3.7758187118
   43      C       3.2370160774    -0.3185505646     2.4777798256
   44      C       5.2321446509    -4.1051640650    -2.6598521361
   45      C       3.9703859213     1.9717356741     0.8885609555
   46      C       4.8221631107     2.1862409179    -0.2904251004
   47      C       3.8813480897    -4.2155732555    -2.1564552143
   48      C       8.3433931110    -1.8210961076    -1.3365031322
   49      C       7.2735471959    -3.8414571778    -1.3210155788
   50      C       7.7376237531    -3.5483996158    -0.0268474234
   51      C       6.7887541932    -2.9925690498     2.0843455901
   52      C       6.1786775618     1.8700110942     0.0546274208
   53      C       2.3012155927     0.0926078733     1.4937106249
   54      C       5.4753379251    -3.0508592946     2.4650790325
   55      C       4.6649315849     0.3816689803    -3.3474861677
   56      C       3.4585241885    -1.6847028077     2.5960515690
   57      C       1.8911069744    -1.3390587348    -1.8185950139
   58      C       8.0088313011     0.4385490347    -0.5170391452
   59      C       5.6751783316    -4.5954052900     0.8083836833
   60      C       2.3349312505     0.8722260066    -0.7276418507
   61      C       8.2559795184    -1.4152530839     1.0503406632
   62      C       2.6562322955    -0.9402538032    -2.9024228920
   63      C       1.9473889026    -2.2070439912     0.8036635430
   64      C       6.8712407404    -2.3387469990    -3.2172332969
   65      C       6.6348660817    -0.9851441631    -3.4747296723
   66      C       2.0134712860    -3.1089996045    -0.2857299536
   67      C       7.0890792658     1.3672191094    -0.9094892513
   68      C       4.3890999082     1.8425374131    -1.6074878033
   69      C       8.1208929706    -0.4617301013    -1.5687352322
   70      C       4.9322913691     1.3878042444     1.8973894815
   71      C       3.4532584402    -3.7856586733     1.3725542365
   72      C       3.1489633618     1.1970064397    -1.8130507101
   73      C       2.0090716581    -2.7419414231    -1.5947077741
   74      C       8.0351961618    -0.0650165682     0.8021490816
   75      C       3.9077864752    -4.6078750026    -0.8446391635
   76      C       7.5184428123    -1.8189014314     2.1245555480
   77      C       6.0515033822    -4.4707324646    -1.6116279164
   78      C       2.8702428036    -2.6186280701     1.7632745181
   79      C       2.9541862313    -4.1155988698     0.1098181608
   80      C       4.5437170800     0.2582697112     2.6585029818
   81      C       6.1930228997     1.3642568189     1.3574834467
   82      C       7.7322426777    -2.7647585930    -2.1677992658
   83      C       4.7651246327    -4.0654986430     1.7414250600
   84      C       3.3196798185    -2.1283592071    -3.3578391119
   85      C       7.2885100309    -0.0258145676    -2.6621108718
   86      C       5.6151516841    -3.0158575146    -3.4149063407
   87      C       7.1002427042     0.3661639342     1.7265793961
   88      C       8.3890370547    -2.3245448027    -0.0253959505
   89      O      -0.7234052635     7.4464253326     0.7870944265
   90      C      -0.6618820671     8.9089445026     1.1948499584
   91      H      -1.1886825292     9.4865387001     0.4255553359
   92      H       0.3946968692     9.1604918889     1.3436278589
   93      H      -1.1924919288     9.1176597417     2.1319476714
   94      O      -2.9749284448     7.4691467820     0.8094125724
   95      C      -1.9311497859     6.8992195695     0.5668036613
   96      C      -1.8137978674     5.5283480578    -0.1413755715
   97      H      -1.3055658032     4.8645743136     0.5686375166
   98      H      -1.2076207564     5.6917934980    -1.0406841382
   99      C      -3.2280534765     5.0346714490    -0.5193299050
  100      H      -3.7185240087     4.6962481755     0.4017902527
  101      H      -3.7933292604     5.8428741163    -0.9985393964
  102      C      -3.0043781861     3.8067738332    -1.4505580240
  103      H      -2.5442998334     4.1281576767    -2.3925820867
  104      H      -2.1434832971     3.1857077384    -1.1774922884
  105      C      -4.2389052506     3.0087707989    -1.5523818141
  106      C      -5.2445157457     3.5764092519    -2.6436870504
  107      C      -6.4778725518     4.0002345463    -2.1756089492
  108      H      -6.7701653905     3.7894088158    -1.1514573941
  109      C      -7.3338007313     4.7040337211    -2.9637781398
  110      H      -8.2931440383     5.0207632674    -2.5634872284
  111      C      -6.9762300886     4.9092095324    -4.3283762938
  112      H      -7.6694631712     5.3709653717    -5.0248103811
  113      C      -5.7078315738     4.4601965674    -4.8747082122
  114      H      -5.3054893493     4.6529236447    -5.8647632652
  115      C      -4.8889270261     3.7354304825    -3.9844770827
  116      H      -4.0370144511     3.2268622447    -4.4298851114
  117      C      -7.7176538454    -0.1015890052     1.3391119354
  118      C      -7.8797491708    -1.0430166625    -0.9593667075
  119      C      -5.7364905496    -4.9767559923    -0.1459600640
  120      C      -2.8215368604    -0.0355374699     2.8305487136
  121      C      -2.6544415268    -3.8417366294    -1.5008873193
  122      C      -7.6677871636     0.0243453991    -0.0906404347
  123      C      -1.5742536001    -2.2448763516     1.6160014012
  124      C      -7.4158032971    -3.7828761327     1.2037371527
  125      C      -4.3772420954    -0.5663796397    -2.8837654020
  126      C      -2.0440432574     0.1337882169     1.6429745016
  127      C      -4.1063720357     1.4678388306    -1.7424597350
  128      C      -3.0517544398    -0.5104936247    -2.5280292243
  129      C      -1.3996918036    -0.7758595767    -0.2745794339
  130      C      -1.7524231677    -3.3741717667     0.7525030106
  131      C      -6.3729566124     0.3870698172    -1.8790785355
  132      C      -3.5481735845    -4.9762428183     0.5520690164
  133      C      -4.5264860801     2.0373510162    -0.4447108917
  134      C      -3.6364046709     1.7609406687     0.7976579766
  135      C      -3.5906006969    -4.7494300837    -0.8563428281
  136      C      -4.9523290635    -2.8010238540     3.5589165097
  137      C      -5.2470149976    -4.5563762956     2.2236326425
  138      C      -6.5274191034    -3.9021474538     2.3119216483
  139      C      -8.0254781453    -2.5544435141     0.9220460431
  140      C      -4.4921887299     1.4691986550     1.9282247556
  141      C      -5.0764895061     0.5737275472    -2.3757322723
  142      C      -8.0648123490    -2.3796178911    -0.4657557518
  143      C      -1.4120019575    -0.9864525727     1.1055702138
  144      C      -6.9916547392    -0.8081624513    -2.0568605709
  145      C      -2.3828555565    -1.7279353868    -2.2818446598
  146      C      -5.0161779099    -0.2833720854     3.5256765198
  147      C      -7.0167965749    -4.3486201293    -0.0562058484
  148      C      -2.8338119691     0.5961697316    -1.7515073023
  149      C      -6.9471690409    -1.5786611721     2.8960342134
  150      C      -1.4997837969    -1.8386360285    -1.1858388955
  151      C      -5.0362167473    -1.7434111830    -3.0438970796
  152      C      -3.0012454068    -3.6982556241     2.5844398732
  153      C      -2.3232790040    -2.4529919852     2.7572085810
  154      C      -4.3880976439    -2.9194347401    -2.8408719062
  155      C      -4.0922532114     0.5768717435     2.9501309470
  156      C      -2.4311465327     1.0199505845     0.6558005997
  157      C      -4.3637037697    -1.5138182154     3.7379330100
  158      C      -5.8619470445     1.6853961051     0.1145473251
  159      C      -6.5045941556    -3.2250209210    -2.1249790358
  160      C      -2.0397674017     0.4432493246    -0.6022037853
  161      C      -3.0708499362    -2.9615572470    -2.4370375698
  162      C      -6.3248853233    -0.3540962431     3.0478983289
  163      C      -4.9258984954    -4.7470675759    -1.2763430757
  164      C      -7.7893653794    -1.4422004556     1.7660046561
  165      C      -4.8618502664    -5.1177322855     0.9840647410
  166      C      -6.2992039344    -1.8854365739    -2.6146009654
  167      C      -5.2831070054    -3.8420552492    -2.3086166677
  168      C      -6.7549077148     0.9327769154    -0.6549632965
  169      C      -5.8359479114     1.4524360171     1.4746442490
  170      C      -4.3007730972    -3.8629159642     2.9488788314
  171      C      -7.3810282672    -3.4431719419    -1.0522650105
  172      C      -1.7548126676    -3.1734724502    -0.6779560328
  173      C      -2.9879884692    -1.3493752480     3.3331282145
  174      C      -2.6028249005    -4.3154325871     1.3729665154
  175      C      -6.7151963706     0.5621596845     2.0686040108
  176      C      -6.3113054804    -2.8186554534     3.1509395188
 ----------------------------------------------------------------

    9   -5804.2680784179      9.15E-06 Convergence criterion met
 Total energy in the final basis set = -5804.2680784179

                    Orbital Energies (a.u.)
 --------------------------------------------------------------

 Alpha MOs
 -- Occupied --
-19.202 -19.191 -19.136 -19.132 -10.325 -10.312 -10.247 -10.246
-10.246 -10.241 -10.239 -10.239 -10.238 -10.238 -10.235 -10.231
-10.230 -10.228 -10.227 -10.225 -10.223 -10.223 -10.222 -10.222
-10.221 -10.221 -10.221 -10.221 -10.221 -10.220 -10.220 -10.220
-10.220 -10.220 -10.220 -10.219 -10.219 -10.219 -10.219 -10.219
-10.219 -10.219 -10.219 -10.219 -10.218 -10.218 -10.218 -10.218
-10.218 -10.218 -10.217 -10.217 -10.217 -10.217 -10.217 -10.217
-10.217 -10.217 -10.217 -10.217 -10.216 -10.216 -10.216 -10.216
-10.216 -10.216 -10.216 -10.216 -10.216 -10.216 -10.215 -10.215
-10.215 -10.215 -10.215 -10.215 -10.215 -10.215 -10.215 -10.215
-10.215 -10.215 -10.215 -10.214 -10.214 -10.214 -10.214 -10.214
-10.214 -10.214 -10.213 -10.213 -10.213 -10.213 -10.213 -10.213
-10.213 -10.213 -10.212 -10.212 -10.212 -10.212 -10.212 -10.212
-10.212 -10.212 -10.212 -10.211 -10.211 -10.211 -10.211 -10.211
-10.210 -10.210 -10.210 -10.210 -10.209 -10.208 -10.208 -10.208
-10.208 -10.208 -10.208 -10.207 -10.207 -10.207 -10.207 -10.206
-10.206 -10.205 -10.205 -10.205 -10.204 -10.204 -10.204 -10.203
-10.203 -10.203 -10.202 -10.201 -10.201 -10.199 -10.198 -10.198
-10.196 -10.195 -10.195 -10.191  -1.111  -1.089  -1.003  -0.995
 -0.984  -0.984  -0.966  -0.965  -0.964  -0.963  -0.963  -0.961
 -0.936  -0.934  -0.928  -0.927  -0.925  -0.925  -0.924  -0.923
 -0.921  -0.921  -0.897  -0.896  -0.891  -0.891  -0.887  -0.886
 -0.876  -0.871  -0.855  -0.844  -0.843  -0.841  -0.841  -0.839
 -0.838  -0.838  -0.821  -0.821  -0.810  -0.805  -0.800  -0.798
 -0.797  -0.796  -0.795  -0.795  -0.792  -0.790  -0.786  -0.784
 -0.772  -0.771  -0.770  -0.768  -0.768  -0.765  -0.765  -0.760
 -0.757  -0.749  -0.745  -0.739  -0.733  -0.733  -0.716  -0.716
 -0.715  -0.714  -0.714  -0.713  -0.713  -0.711  -0.710  -0.708
 -0.708  -0.707  -0.706  -0.706  -0.704  -0.704  -0.673  -0.672
 -0.662  -0.659  -0.657  -0.656  -0.647  -0.647  -0.632  -0.631
 -0.628  -0.625  -0.625  -0.625  -0.622  -0.621  -0.617  -0.617
 -0.615  -0.615  -0.613  -0.613  -0.612  -0.611  -0.610  -0.608
 -0.605  -0.604  -0.603  -0.603  -0.572  -0.571  -0.565  -0.565
 -0.562  -0.560  -0.559  -0.558  -0.556  -0.554  -0.553  -0.553
 -0.538  -0.534  -0.534  -0.532  -0.529  -0.528  -0.527  -0.526
 -0.523  -0.523  -0.520  -0.519  -0.516  -0.515  -0.515  -0.514
 -0.510  -0.507  -0.501  -0.499  -0.497  -0.493  -0.489  -0.487
 -0.486  -0.485  -0.484  -0.482  -0.481  -0.480  -0.480  -0.475
 -0.474  -0.473  -0.472  -0.470  -0.469  -0.468  -0.467  -0.467
 -0.466  -0.465  -0.465  -0.464  -0.463  -0.461  -0.460  -0.457
 -0.456  -0.455  -0.454  -0.452  -0.450  -0.449  -0.447  -0.445
 -0.445  -0.442  -0.441  -0.440  -0.438  -0.438  -0.435  -0.433
 -0.432  -0.430  -0.430  -0.428  -0.427  -0.427  -0.426  -0.425
 -0.425  -0.422  -0.422  -0.421  -0.420  -0.420  -0.418  -0.418
 -0.417  -0.417  -0.416  -0.416  -0.415  -0.414  -0.414  -0.413
 -0.412  -0.411  -0.409  -0.405  -0.399  -0.398  -0.398  -0.395
 -0.394  -0.393  -0.393  -0.391  -0.389  -0.386  -0.382  -0.381
 -0.378  -0.377  -0.371  -0.370  -0.369  -0.367  -0.367  -0.366
 -0.365  -0.365  -0.363  -0.361  -0.361  -0.361  -0.359  -0.359
 -0.358  -0.357  -0.357  -0.355  -0.354  -0.353  -0.351  -0.350
 -0.349  -0.348  -0.348  -0.347  -0.347  -0.346  -0.345  -0.344
 -0.342  -0.342  -0.340  -0.339  -0.339  -0.337  -0.336  -0.334
 -0.333  -0.332  -0.330  -0.330  -0.328  -0.327  -0.326  -0.321
 -0.310  -0.309  -0.300  -0.299  -0.288  -0.285  -0.273  -0.272
 -0.270  -0.270  -0.269  -0.268  -0.267  -0.267  -0.265  -0.264
 -0.263  -0.262  -0.260  -0.260  -0.257  -0.256  -0.256  -0.253
 -0.249  -0.248  -0.244  -0.240  -0.223  -0.220  -0.213  -0.213
 -0.210  -0.209  -0.206  -0.203  -0.202  -0.201

          Ground-State Mulliken Net Atomic Charges

     Atom                 Charge (a.u.)
  ----------------------------------------
      1 O                    -0.427640
      2 C                    -0.080361
      3 H                     0.126430
      4 H                     0.121571
      5 H                     0.117889
      6 O                    -0.508652
      7 C                     0.589158
      8 C                    -0.270397
      9 H                     0.123892
     10 H                     0.146189
     11 C                    -0.170824
     12 H                     0.110361
     13 H                     0.144652
     14 C                    -0.182491
     15 H                     0.101657
     16 H                     0.099724
     17 C                     0.003387
     18 C                     0.085894
     19 C                    -0.124119
     20 H                     0.096521
     21 C                    -0.085135
     22 H                     0.097361
     23 C                    -0.090666
     24 H                     0.088141
     25 C                    -0.090766
     26 H                     0.101070
     27 C                    -0.104043
     28 H                     0.095548
     29 C                    -0.003154
     30 C                    -0.019559
     31 C                    -0.014735
     32 C                    -0.011178
     33 C                     0.001960
     34 C                     0.004896
     35 C                     0.011323
     36 C                    -0.016659
     37 C                     0.003785
     38 C                    -0.008324
     39 C                    -0.073210
     40 C                     0.010719
     41 C                    -0.012218
     42 C                    -0.005398
     43 C                     0.007385
     44 C                    -0.018624
     45 C                    -0.077105
     46 C                     0.032410
     47 C                    -0.021929
     48 C                     0.003346
     49 C                     0.002824
     50 C                     0.001975
     51 C                     0.044141
     52 C                    -0.004406
     53 C                     0.032852
     54 C                     0.001398
     55 C                     0.024016
     56 C                     0.000764
     57 C                     0.000428
     58 C                     0.005411
     59 C                    -0.004780
     60 C                     0.023490
     61 C                     0.009537
     62 C                    -0.021022
     63 C                    -0.012139
     64 C                    -0.002352
     65 C                    -0.008168
     66 C                     0.004184
     67 C                    -0.011325
     68 C                    -0.031617
     69 C                     0.005686
     70 C                    -0.015031
     71 C                     0.022749
     72 C                     0.003969
     73 C                     0.003119
     74 C                    -0.008843
     75 C                     0.044048
     76 C                    -0.034215
     77 C                     0.013723
     78 C                     0.032735
     79 C                    -0.028974
     80 C                     0.010218
     81 C                     0.008120
     82 C                    -0.029067
     83 C                    -0.029014
     84 C                    -0.004456
     85 C                    -0.002857
     86 C                     0.012641
     87 C                     0.021951
     88 C                     0.004354
     89 O                    -0.476974
     90 C                    -0.106159
     91 H                     0.130842
     92 H                     0.154453
     93 H                     0.137291
     94 O                    -0.475610
     95 C                     0.595027
     96 C                    -0.278903
     97 H                     0.140713
     98 H                     0.126667
     99 C                    -0.164438
    100 H                     0.116253
    101 H                     0.136401
    102 C                    -0.204752
    103 H                     0.105038
    104 H                     0.101293
    105 C                     0.022926
    106 C                     0.102819
    107 C                    -0.095554
    108 H                     0.093629
    109 C                    -0.080585
    110 H                     0.095949
    111 C                    -0.107018
    112 H                     0.088238
    113 C                    -0.086961
    114 H                     0.100741
    115 C                    -0.120890
    116 H                     0.091131
    117 C                    -0.057193
    118 C                    -0.010537
    119 C                     0.010589
    120 C                    -0.019313
    121 C                     0.006296
    122 C                    -0.001932
    123 C                     0.023207
    124 C                    -0.014169
    125 C                    -0.010598
    126 C                    -0.008665
    127 C                    -0.104421
    128 C                     0.024772
    129 C                    -0.005386
    130 C                     0.004103
    131 C                     0.014061
    132 C                     0.014407
    133 C                    -0.068506
    134 C                     0.007134
    135 C                    -0.013410
    136 C                    -0.012823
    137 C                    -0.013048
    138 C                     0.012693
    139 C                     0.018125
    140 C                    -0.009809
    141 C                     0.048870
    142 C                    -0.014631
    143 C                     0.035113
    144 C                    -0.016463
    145 C                    -0.020604
    146 C                    -0.007853
    147 C                    -0.025405
    148 C                     0.020195
    149 C                     0.021700
    150 C                    -0.025068
    151 C                     0.027541
    152 C                    -0.008193
    153 C                     0.000566
    154 C                     0.000781
    155 C                     0.004429
    156 C                    -0.012968
    157 C                     0.000371
    158 C                     0.027575
    159 C                     0.006262
    160 C                    -0.013714
    161 C                     0.021930
    162 C                     0.005033
    163 C                    -0.000484
    164 C                     0.006731
    165 C                    -0.015889
    166 C                    -0.010698
    167 C                    -0.016921
    168 C                     0.010149
    169 C                     0.017040
    170 C                     0.045169
    171 C                     0.024499
    172 C                    -0.014813
    173 C                    -0.013267
    174 C                    -0.024590
    175 C                     0.016853
    176 C                    -0.020542
  ----------------------------------------
  Sum of atomic charges =     0.000000

                    Cartesian Multipole Moments
 -----------------------------------------------------------------
    Charge (ESU x 10^10)
                 0.0000
    Dipole Moment (Debye)
         X       0.5762      Y       3.7681      Z      -2.0296
       Tot       4.3185
    Quadrupole Moments (Debye-Ang)
        XX    -817.9474     XY       9.8651     YY    -792.8483
        XZ       6.8271     YZ     -18.0348     ZZ    -795.5757

 Total job time:  866.32s(wall), 8328.11s(cpu)
        *  Thank you very much for using Q-Chem.  Have a nice day.  *
