 Q-Chem 4.4, Q-Chem, Inc., Pleasanton, CA (2016)
 Q-Chem 4.4.2 for Intel X86 Linux

User input:
--------------------------------------------------------------
$comment
SP
$end

$rem
MEM_STATIC 5000
MEM_TOTAL 20000
JOBTYPE SP
EXCHANGE B3LYP
BASIS 6-31g(d,p)
$end

$molecule
0 1
O         -11.321000    -16.618000    -13.220000
C         -10.521000    -15.584000    -13.899000
H         -11.221000    -15.016000    -14.524000
H          -9.776000    -15.998000    -14.589000
H         -10.020000    -15.048000    -13.084000
O         -13.395000    -15.650000    -13.713000
C         -12.702000    -16.467000    -13.107000
C         -13.302000    -17.476000    -12.169000
H         -14.333000    -17.217000    -11.900000
H         -12.732000    -17.312000    -11.246000
C         -13.122000    -18.968000    -12.577000
H         -13.442000    -19.121000    -13.616000
H         -12.066000    -19.196000    -12.772000
C         -13.850000    -19.986000    -11.727000
H         -13.091000    -20.766000    -11.591000
H         -14.041000    -19.522000    -10.751000
C         -15.150000    -20.613000    -12.315000
C         -16.217000    -19.542000    -12.622000
C         -16.024000    -18.802000    -13.786000
H         -15.275000    -19.211000    -14.456000
C         -16.890000    -17.749000    -14.084000
H         -16.742000    -17.182000    -14.999000
C         -18.020000    -17.474000    -13.284000
H         -18.545000    -16.548000    -13.496000
C         -18.195000    -18.209000    -12.098000
H         -19.049000    -18.078000    -11.442000
C         -17.298000    -19.256000    -11.815000
H         -17.299000    -19.798000    -10.874000
C         -18.875000    -24.414000    -11.640000
C         -18.865000    -24.127000    -13.999000
C         -17.043000    -28.168000    -15.041000
C         -14.404000    -25.424000     -9.811000
C         -13.890000    -26.759000    -15.293000
C         -18.795000    -23.569000    -12.746000
C         -13.026000    -26.848000    -11.846000
C         -18.770000    -27.638000    -13.357000
C         -15.321000    -23.040000    -15.298000
C         -13.499000    -24.802000    -10.666000
C         -15.067000    -21.880000    -13.152000
C         -14.087000    -23.388000    -14.739000
C         -12.666000    -24.718000    -12.796000
C         -13.121000    -27.421000    -13.135000
C         -17.345000    -22.508000    -14.107000
C         -15.026000    -28.499000    -14.235000
C         -15.552000    -21.943000    -11.739000
C         -14.897000    -22.799000    -10.732000
C         -14.861000    -27.765000    -15.376000
C         -16.627000    -28.075000    -10.577000
C         -16.817000    -28.901000    -12.694000
C         -18.031000    -28.326000    -12.386000
C         -19.332000    -26.353000    -13.041000
C         -15.834000    -23.554000    -10.059000
C         -15.960000    -22.280000    -14.327000
C         -19.102000    -25.477000    -14.164000
C         -12.773000    -25.493000    -11.650000
C         -18.065000    -23.477000    -14.860000
C         -13.503000    -24.600000    -15.030000
C         -16.598000    -25.827000     -9.532000
C         -18.261000    -27.527000    -14.676000
C         -13.879000    -22.727000    -13.511000
C         -18.564000    -26.535000    -10.753000
C         -12.717000    -25.260000    -14.100000
C         -16.023000    -23.961000    -16.110000
C         -14.588000    -28.476000    -11.812000
C         -13.927000    -27.520000    -11.010000
C         -15.433000    -25.185000    -16.345000
C         -15.599000    -24.806000     -9.522000
C         -13.730000    -23.504000    -11.159000
C         -16.013000    -27.091000     -9.804000
C         -16.965000    -22.401000    -11.647000
C         -17.622000    -25.578000    -16.025000
C         -13.317000    -23.487000    -12.504000
C         -14.184000    -25.511000    -15.800000
C         -17.862000    -25.581000    -10.004000
C         -16.133000    -27.482000    -15.893000
C         -19.194000    -25.769000    -11.761000
C         -16.315000    -28.816000    -14.022000
C         -17.391000    -24.173000    -15.926000
C         -16.430000    -26.202000    -16.353000
C         -17.836000    -22.576000    -12.782000
C         -17.062000    -23.316000    -10.614000
C         -15.936000    -28.761000    -11.626000
C         -18.544000    -26.211000    -15.159000
C         -12.968000    -26.626000    -14.275000
C         -14.612000    -26.790000     -9.991000
C         -14.121000    -28.480000    -13.131000
C         -18.082000    -24.286000    -10.492000
C         -17.919000    -27.786000    -11.116000
O          -7.345000    -29.030000     -4.883000
C          -7.043000    -30.478000     -4.535000
H          -6.571000    -30.486000     -3.545000
H          -6.444000    -30.891000     -5.355000
H          -7.945000    -31.094000     -4.434000
O          -8.652000    -28.799000     -3.064000
C          -8.093000    -28.314000     -4.026000
C          -8.040000    -26.802000     -4.351000
H          -8.513000    -26.688000     -5.334000
H          -6.979000    -26.526000     -4.383000
C          -8.773000    -26.022000     -3.237000
H          -9.850000    -26.177000     -3.377000
H          -8.444000    -26.374000     -2.252000
C          -8.443000    -24.522000     -3.494000
H          -7.375000    -24.338000     -3.327000
H          -8.381000    -24.250000     -4.554000
C          -9.388000    -23.657000     -2.766000
C          -8.964000    -23.428000     -1.252000
C          -9.851000    -23.890000     -0.293000
H         -10.839000    -24.230000     -0.588000
C          -9.507000    -23.955000      1.021000
H         -10.228000    -24.323000      1.746000
C          -8.238000    -23.435000      1.410000
H          -7.959000    -23.366000      2.457000
C          -7.284000    -22.914000      0.447000
H          -6.264000    -22.590000      0.631000
C          -7.731000    -22.882000     -0.890000
H          -7.113000    -22.317000     -1.584000
C         -14.673000    -22.207000     -2.445000
C         -13.470000    -20.167000     -1.679000
C         -14.327000    -17.567000     -5.317000
C         -12.897000    -23.633000     -7.029000
C         -11.136000    -18.146000     -6.768000
C         -13.565000    -21.550000     -1.810000
C         -12.148000    -21.280000     -8.376000
C         -15.812000    -19.094000     -4.080000
C          -9.878000    -19.939000     -3.480000
C         -11.527000    -23.227000     -7.071000
C          -9.765000    -22.283000     -3.397000
C          -9.348000    -20.331000     -4.685000
C         -10.121000    -21.512000     -7.111000
C         -12.061000    -19.852000     -8.299000
C         -11.389000    -21.043000     -1.931000
C         -13.567000    -18.197000     -7.391000
C         -10.725000    -23.407000     -3.401000
C         -11.213000    -23.947000     -4.773000
C         -12.489000    -17.625000     -6.651000
C         -15.712000    -21.466000     -6.715000
C         -15.592000    -19.248000     -6.584000
C         -16.144000    -19.693000     -5.330000
C         -15.490000    -19.898000     -2.980000
C         -12.634000    -24.211000     -4.691000
C         -10.211000    -21.083000     -2.688000
C         -14.445000    -19.294000     -2.272000
C         -11.204000    -22.076000     -7.788000
C         -12.076000    -19.877000     -1.824000
C          -9.606000    -19.524000     -5.813000
C         -14.760000    -23.544000     -5.657000
C         -14.890000    -17.991000     -4.074000
C          -9.358000    -21.698000     -4.765000
C         -15.917000    -21.899000     -4.331000
C          -9.929000    -20.123000     -7.050000
C         -10.594000    -18.793000     -3.341000
C         -14.227000    -20.420000     -8.219000
C         -13.483000    -21.632000     -8.352000
C         -10.817000    -17.995000     -4.417000
C         -13.482000    -24.061000     -5.813000
C         -10.699000    -23.392000     -5.977000
C         -15.008000    -22.706000     -6.762000
C         -12.034000    -23.258000     -2.705000
C         -12.672000    -17.878000     -3.140000
C          -9.787000    -22.280000     -5.970000
C         -10.364000    -18.330000     -5.675000
C         -15.198000    -23.076000     -4.418000
C         -12.956000    -17.246000     -5.387000
C         -15.536000    -21.308000     -3.102000
C         -14.691000    -18.158000     -6.574000
C         -11.687000    -18.758000     -2.564000
C         -12.071000    -17.406000     -4.290000
C         -12.283000    -22.112000     -1.943000
C         -13.089000    -23.797000     -3.413000
C         -15.303000    -20.327000     -7.393000
C         -14.035000    -18.170000     -2.987000
C         -10.954000    -19.251000     -7.592000
C         -13.859000    -22.786000     -7.632000
C         -13.360000    -19.300000     -8.254000
C         -14.366000    -23.270000     -3.313000
C         -16.209000    -21.074000     -5.445000
$end

--------------------------------------------------------------

             Standard Nuclear Orientation (Angstroms)
    I     Atom           X                Y                Z
 ----------------------------------------------------------------
    1      O       1.5181100830     6.2809843224     4.8317495704
    2      C       1.5271690501     7.2404600782     5.9495694169
    3      H       2.2564004363     8.0152261972     5.6827210588
    4      H       1.8872330361     6.8053001486     6.8895219485
    5      H       0.4792919020     7.5459589789     6.0551435810
    6      O       2.6542303120     7.6772198723     3.3346503370
    7      C       1.9991386906     6.6647580773     3.5811256526
    8      C       1.6708126299     5.6536986938     2.5191059160
    9      H       1.8374183334     6.0544331473     1.5121017267
   10      H       0.5799252417     5.5688952214     2.5997165698
   11      C       2.2723207823     4.2329486558     2.7302581645
   12      H       3.3507788946     4.2999212042     2.9246103650
   13      H       2.0235236108     3.8465634240     3.7272292875
   14      C       2.0792057169     3.2499750702     1.5965573655
   15      H       1.7952625338     2.3321834158     2.1257187283
   16      H       1.2139759571     3.5886135355     1.0125586903
   17      C       3.3039666170     2.9688998215     0.6746948801
   18      C       3.8093822084     4.2518049800    -0.0170337041
   19      C       4.5734992842     5.1105736441     0.7693418271
   20      H       4.9133113923     4.6765178618     1.7038498843
   21      C       4.9859140563     6.3376475879     0.2480236976
   22      H       5.5914387566     6.9991152243     0.8615531616
   23      C       4.7313780643     6.6920637956    -1.0944090123
   24      H       4.9456590078     7.7200599011    -1.3689134463
   25      C       3.9390634242     5.8315211870    -1.8748895886
   26      H       3.7188464429     6.0169954365    -2.9207943567
   27      C       3.5246277236     4.6068319690    -1.3187543809
   28      H       2.8258533618     3.9386723882    -1.8132472181
   29      C       5.2011434726    -0.1392100679    -3.2647497374
   30      C       7.1842559333     0.4934596173    -2.1183012921
   31      C       8.1669270727    -3.6096614294    -0.4054428310
   32      C       1.8502152173    -2.2188467428    -0.2980052037
   33      C       6.6794611991    -2.7833817379     2.6103325496
   34      C       5.9419592273     0.8335923161    -2.5950419359
   35      C       3.3198146201    -3.5486607520     1.7366341492
   36      C       7.3529014669    -3.0310126307    -2.6641621320
   37      C       6.5039624958     1.0929232987     1.7035765361
   38      C       2.0559070183    -1.6523208846     0.9564561688
   39      C       4.2720930281     1.8492354746     1.0237364286
   40      C       5.5471595897     0.4435181713     2.4904324184
   41      C       3.5195249255    -1.4028162766     2.6981263649
   42      C       4.6077706627    -3.8933327991     2.2070014656
   43      C       6.2496873561     1.8025203368    -0.5833203127
   44      C       6.6445478477    -4.4239027228     0.9535489318
   45      C       3.2727802801     1.6642119979    -0.0730330754
   46      C       2.2945366959     0.5603901747    -0.0523721839
   47      C       7.4024022934    -3.5692773377     1.7039715396
   48      C       4.0821108692    -4.2690897828    -2.1341509702
   49      C       6.1872642545    -4.7171453210    -1.3807317912
   50      C       6.3319185125    -3.9816889147    -2.5372195862
   51      C       7.0460543937    -1.7271427245    -3.1863624205
   52      C       2.2903453522    -0.1019803559    -1.2615746950
   53      C       5.7769002679     1.8022626243     0.7564861296
   54      C       7.7283511794    -0.7492720240    -2.3741771034
   55      C       2.7405859783    -2.3086922435     1.9924119404
   56      C       7.4355868303     1.1074098057    -0.9505175166
   57      C       5.8065385742    -0.7972670546     3.0269541473
   58      C       2.6687344803    -2.2485772706    -2.3915735240
   59      C       8.2493602198    -2.8179602289    -1.5861392295
   60      C       4.2428525804     0.8620663568     2.1561127482
   61      C       4.7567120852    -2.3902991773    -3.6071085596
   62      C       4.7942220182    -1.7232139910     3.2170421832
   63      C       7.7226523443     0.4500192628     1.3844238242
   64      C       4.3392949588    -4.8475739058     0.1988212679
   65      C       3.1398117987    -4.1616215309     0.4899749865
   66      C       7.9333246840    -0.8119707064     1.8987189564
   67      C       1.9935442020    -1.4422565381    -1.4248745200
   68      C       2.3026185676    -0.2747373416     1.1068256918
   69      C       2.9225417858    -3.5429185182    -1.8679633765
   70      C       3.9195981338     1.4655309999    -1.3985328020
   71      C       8.7118011568    -0.8390916432    -0.2088409683
   72      C       3.2848229898    -0.1313972041     2.1041275909
   73      C       6.9772223616    -1.4406568535     2.7073746789
   74      C       3.5855546167    -1.7058420359    -3.2552142493
   75      C       8.3537808195    -2.9823461088     0.8579498893
   76      C       5.7444469758    -1.3783427899    -3.6137460133
   77      C       7.1003422993    -4.5267007567    -0.3070314830
   78      C       8.2156889257     0.4681179335     0.0779739141
   79      C       8.6050139953    -1.6150759918     0.9332049121
   80      C       5.3306172852     1.6270156100    -1.6443755872
   81      C       3.2650971720     0.4388763132    -2.0552912396
   82      C       4.8377098524    -4.9043611235    -1.0978216304
   83      C       8.5064944743    -1.4148318916    -1.4844197908
   84      C       5.3567197715    -2.9774016032     2.9521049999
   85      C       2.3979934780    -3.4801937954    -0.5228664722
   86      C       5.2795564297    -4.7384895043     1.2292944406
   87      C       3.8236999797    -0.3339507472    -3.0978291229
   88      C       5.0601651305    -3.6693324382    -2.9867980188
   89      O      -4.7733349271    -7.7635610038     3.2379003731
   90      C      -4.8926514319    -9.2780363736     3.2041375841
   91      H      -5.9606607541    -9.5219690297     3.1512136095
   92      H      -4.3550797880    -9.6657512036     4.0773293948
   93      H      -4.4456276789    -9.7255786881     2.3079586729
   94      O      -5.8254495245    -7.5729787728     1.2562080945
   95      C      -5.3433480960    -7.0597064392     2.2447826867
   96      C      -5.4154364930    -5.5518697144     2.5850908915
   97      H      -4.3762780852    -5.2058527688     2.6437089487
   98      H      -5.9184836706    -5.4742303817     3.5566034602
   99      C      -6.2294924881    -4.8273708312     1.4900570084
  100      H      -5.5963472669    -4.7586018013     0.5967754462
  101      H      -7.1544292591    -5.3783535927     1.2820186313
  102      C      -6.4808738722    -3.3924218023     2.0402185157
  103      H      -7.1398463661    -3.4354391143     2.9155891590
  104      H      -5.6465937247    -2.9797885183     2.6191299151
  105      C      -6.8840426287    -2.4881374522     0.9489079421
  106      C      -8.4381126091    -2.5720651183     0.6291648534
  107      C      -8.7772137227    -3.0021823172    -0.6435894945
  108      H      -8.0082988449    -3.1061045396    -1.4030228901
  109      C     -10.0576027679    -3.3267829124    -0.9666921819
  110      H     -10.2875001870    -3.6608606038    -1.9748733525
  111      C     -11.0722236150    -3.1139193292     0.0117328953
  112      H     -12.1210636529    -3.2561406185    -0.2301734499
  113      C     -10.7722711169    -2.6382235565     1.3506384299
  114      H     -11.4553921289    -2.5389914428     2.1889287559
  115      C      -9.4189969976    -2.3232511988     1.5911453364
  116      H      -9.2135115059    -1.7835504090     2.5127112702
  117      C      -5.1372765610    -0.1555663571    -3.7034770797
  118      C      -6.7831374511     1.4889382550    -2.8189933258
  119      C      -3.8103972991     4.7206223118    -1.6154455929
  120      C      -1.6281725974    -1.1761632836    -0.1194459294
  121      C      -3.8372703675     3.7898167067     1.8132570427
  122      C      -6.3243285362     0.1828940300    -2.9693856860
  123      C      -1.3047028791     1.1745578803     1.3910163678
  124      C      -3.8927924854     3.3242180264    -3.6428550496
  125      C      -6.8602972680     1.3209417601     1.2014385590
  126      C      -2.2879978591    -1.0276157964     1.1399445057
  127      C      -6.4692922146    -0.9890562038     1.0432663275
  128      C      -5.9620974093     1.0243826430     2.1973696329
  129      C      -3.2521454816     0.3854130755     2.5518332297
  130      C      -1.7228825135     2.5339256128     1.5640110535
  131      C      -7.2949690430     0.2931231132    -0.9563351263
  132      C      -2.2067470671     4.2816208676    -0.0306554916
  133      C      -5.7940556850    -1.9035011625     0.0983652498
  134      C      -4.2669350368    -2.1312785246     0.2661389046
  135      C      -3.4531493658     4.5272086437     0.6197566501
  136      C      -1.1274693813     1.3993081464    -2.5350107087
  137      C      -1.7801967497     3.5117720441    -2.2849541886
  138      C      -2.5279600459     2.9920273127    -3.4011801814
  139      C      -4.8156097654     2.3181612837    -3.9532710582
  140      C      -3.6503571477    -2.1385504642    -1.0436090962
  141      C      -7.1505462012     0.1516398777     0.4298313633
  142      C      -6.0265736398     2.6057290175    -3.3137585147
  143      C      -2.0600361331     0.1390149299     1.8681101461
  144      C      -7.3386789369     1.5359332498    -1.5008407822
  145      C      -5.0439764373     2.0257976175     2.5773945395
  146      C      -2.0141525820    -0.9537696551    -2.3915890863
  147      C      -4.5483206770     4.2249577498    -2.7341858354
  148      C      -5.5888073017    -0.2894551001     2.0990137471
  149      C      -3.0138834285     0.6569477966    -3.8778856669
  150      C      -3.6944337270     1.6899901137     2.8208422618
  151      C      -6.9145835252     2.5448374463     0.6145609300
  152      C      -0.7076828274     2.3687910395    -0.4266371249
  153      C      -0.6565747526     1.0747329403     0.1758332898
  154      C      -6.0552074239     3.5232277562     0.9999621729
  155      C      -2.3319979653    -1.6675924506    -1.2451422585
  156      C      -3.5698680255    -1.5052397799     1.3357229694
  157      C      -1.1272443369     0.0724461763    -2.0107376294
  158      C      -5.8512427779    -1.6228405123    -1.3638444602
  159      C      -6.3682935969     3.7856716078    -1.2178167325
  160      C      -4.2238022505    -0.5940689819     2.2359867119
  161      C      -5.0892817347     3.3041950872     1.9586123973
  162      C      -2.9993366724    -0.6054516644    -3.3157513477
  163      C      -4.4277171477     4.7906493653    -0.3499044374
  164      C      -4.3804371113     0.9755175087    -4.0674308348
  165      C      -2.4270441347     4.4031465942    -1.3978009483
  166      C      -7.1129824681     2.6628052357    -0.7069247718
  167      C      -5.7385623692     4.3069394220    -0.1050708285
  168      C      -6.6540851888    -0.5788411405    -1.8344508508
  169      C      -4.6500776762    -1.8454345692    -2.0060782838
  170      C      -0.9689087611     2.5325750980    -1.7508866458
  171      C      -5.8330124089     3.7298225372    -2.5127286720
  172      C      -2.9598099370     2.8073201842     2.2581039560
  173      C      -0.8629879346    -0.0855102369    -0.6005180276
  174      C      -1.3069111803     3.3023474994     0.4546753721
  175      C      -4.2861913886    -1.1136378342    -3.1243440431
  176      C      -2.0967973153     1.6799917240    -3.5326043562
 ----------------------------------------------------------------

    9   -5804.2497830911      8.81E-06 Convergence criterion met
 Total energy in the final basis set = -5804.2497830911

                    Orbital Energies (a.u.)
 --------------------------------------------------------------

 Alpha MOs
 -- Occupied --
-19.191 -19.187 -19.134 -19.132 -10.317 -10.312 -10.253 -10.248
-10.246 -10.241 -10.241 -10.241 -10.239 -10.236 -10.234 -10.229
-10.228 -10.227 -10.226 -10.225 -10.223 -10.223 -10.223 -10.223
-10.222 -10.222 -10.222 -10.222 -10.222 -10.221 -10.221 -10.221
-10.221 -10.221 -10.220 -10.220 -10.220 -10.220 -10.220 -10.220
-10.220 -10.219 -10.219 -10.219 -10.218 -10.218 -10.218 -10.218
-10.218 -10.218 -10.218 -10.217 -10.217 -10.217 -10.217 -10.217
-10.217 -10.217 -10.217 -10.216 -10.216 -10.216 -10.216 -10.216
-10.216 -10.216 -10.215 -10.215 -10.215 -10.215 -10.215 -10.214
-10.214 -10.214 -10.214 -10.214 -10.214 -10.214 -10.214 -10.214
-10.214 -10.214 -10.214 -10.213 -10.213 -10.213 -10.213 -10.213
-10.213 -10.212 -10.212 -10.212 -10.212 -10.212 -10.212 -10.212
-10.212 -10.211 -10.211 -10.211 -10.211 -10.211 -10.211 -10.211
-10.210 -10.210 -10.210 -10.210 -10.210 -10.210 -10.210 -10.210
-10.210 -10.209 -10.209 -10.208 -10.208 -10.207 -10.207 -10.207
-10.207 -10.207 -10.206 -10.206 -10.205 -10.205 -10.205 -10.205
-10.205 -10.204 -10.202 -10.202 -10.202 -10.201 -10.201 -10.200
-10.199 -10.199 -10.198 -10.198 -10.197 -10.197 -10.195 -10.194
-10.194 -10.193 -10.191 -10.190  -1.089  -1.074  -1.003  -1.001
 -0.986  -0.984  -0.969  -0.967  -0.965  -0.963  -0.962  -0.961
 -0.937  -0.937  -0.930  -0.927  -0.927  -0.925  -0.925  -0.923
 -0.923  -0.918  -0.899  -0.895  -0.892  -0.891  -0.888  -0.887
 -0.877  -0.875  -0.855  -0.853  -0.843  -0.841  -0.840  -0.840
 -0.837  -0.836  -0.822  -0.821  -0.805  -0.804  -0.801  -0.798
 -0.797  -0.796  -0.794  -0.794  -0.792  -0.792  -0.785  -0.784
 -0.773  -0.770  -0.770  -0.767  -0.767  -0.765  -0.761  -0.760
 -0.757  -0.745  -0.742  -0.740  -0.735  -0.733  -0.718  -0.717
 -0.716  -0.715  -0.715  -0.713  -0.711  -0.711  -0.710  -0.708
 -0.708  -0.707  -0.706  -0.706  -0.703  -0.699  -0.674  -0.673
 -0.661  -0.659  -0.659  -0.657  -0.648  -0.647  -0.633  -0.633
 -0.630  -0.626  -0.626  -0.623  -0.621  -0.619  -0.618  -0.616
 -0.615  -0.614  -0.614  -0.612  -0.611  -0.610  -0.610  -0.608
 -0.607  -0.605  -0.604  -0.603  -0.572  -0.566  -0.564  -0.562
 -0.561  -0.559  -0.559  -0.556  -0.555  -0.555  -0.554  -0.553
 -0.539  -0.536  -0.535  -0.534  -0.530  -0.529  -0.526  -0.524
 -0.524  -0.521  -0.520  -0.518  -0.517  -0.516  -0.514  -0.511
 -0.510  -0.505  -0.497  -0.495  -0.493  -0.490  -0.487  -0.485
 -0.483  -0.483  -0.482  -0.482  -0.479  -0.476  -0.475  -0.473
 -0.473  -0.471  -0.470  -0.469  -0.469  -0.468  -0.467  -0.466
 -0.466  -0.465  -0.464  -0.463  -0.461  -0.460  -0.458  -0.457
 -0.456  -0.455  -0.455  -0.452  -0.451  -0.448  -0.446  -0.444
 -0.443  -0.443  -0.439  -0.438  -0.437  -0.436  -0.436  -0.434
 -0.432  -0.431  -0.429  -0.428  -0.427  -0.426  -0.424  -0.424
 -0.423  -0.423  -0.422  -0.421  -0.420  -0.420  -0.419  -0.418
 -0.418  -0.417  -0.417  -0.416  -0.416  -0.415  -0.414  -0.413
 -0.412  -0.411  -0.410  -0.407  -0.401  -0.400  -0.400  -0.398
 -0.396  -0.395  -0.394  -0.388  -0.388  -0.385  -0.383  -0.382
 -0.381  -0.378  -0.372  -0.370  -0.370  -0.369  -0.368  -0.367
 -0.366  -0.365  -0.364  -0.362  -0.361  -0.360  -0.359  -0.358
 -0.358  -0.356  -0.355  -0.354  -0.353  -0.352  -0.351  -0.351
 -0.350  -0.349  -0.348  -0.347  -0.346  -0.345  -0.344  -0.344
 -0.343  -0.341  -0.340  -0.340  -0.338  -0.337  -0.335  -0.334
 -0.334  -0.333  -0.331  -0.329  -0.326  -0.324  -0.321  -0.316
 -0.313  -0.310  -0.299  -0.294  -0.290  -0.287  -0.273  -0.271
 -0.270  -0.268  -0.267  -0.267  -0.266  -0.265  -0.264  -0.264
 -0.263  -0.261  -0.260  -0.259  -0.257  -0.257  -0.255  -0.252
 -0.250  -0.249  -0.245  -0.241  -0.225  -0.221  -0.215  -0.213
 -0.210  -0.207  -0.205  -0.205  -0.203  -0.197

          Ground-State Mulliken Net Atomic Charges

     Atom                 Charge (a.u.)
  ----------------------------------------
      1 O                    -0.487804
      2 C                    -0.093115
      3 H                     0.146250
      4 H                     0.125565
      5 H                     0.130587
      6 O                    -0.470984
      7 C                     0.582785
      8 C                    -0.234541
      9 H                     0.141027
     10 H                     0.124174
     11 C                    -0.198684
     12 H                     0.101635
     13 H                     0.120458
     14 C                    -0.180307
     15 H                     0.110011
     16 H                     0.117806
     17 C                    -0.010833
     18 C                     0.102580
     19 C                    -0.094132
     20 H                     0.095734
     21 C                    -0.094545
     22 H                     0.096550
     23 C                    -0.087248
     24 H                     0.097066
     25 C                    -0.099577
     26 H                     0.095623
     27 C                    -0.109895
     28 H                     0.086694
     29 C                     0.019867
     30 C                     0.054958
     31 C                    -0.022598
     32 C                     0.025788
     33 C                     0.014678
     34 C                    -0.006864
     35 C                     0.013979
     36 C                    -0.005427
     37 C                     0.020351
     38 C                     0.000952
     39 C                    -0.056815
     40 C                     0.006810
     41 C                     0.008202
     42 C                    -0.023739
     43 C                    -0.018245
     44 C                     0.041450
     45 C                    -0.098858
     46 C                     0.006950
     47 C                    -0.011555
     48 C                    -0.014926
     49 C                     0.003923
     50 C                     0.026694
     51 C                    -0.032618
     52 C                     0.042841
     53 C                     0.025244
     54 C                     0.015154
     55 C                    -0.015024
     56 C                    -0.021922
     57 C                     0.006377
     58 C                    -0.004612
     59 C                    -0.009104
     60 C                    -0.006634
     61 C                    -0.009235
     62 C                    -0.032112
     63 C                     0.006004
     64 C                     0.008287
     65 C                     0.014886
     66 C                    -0.007070
     67 C                    -0.000587
     68 C                    -0.006488
     69 C                     0.003059
     70 C                     0.040437
     71 C                    -0.011194
     72 C                     0.019943
     73 C                     0.009275
     74 C                    -0.001303
     75 C                    -0.004883
     76 C                    -0.008193
     77 C                    -0.003617
     78 C                    -0.025801
     79 C                     0.010018
     80 C                    -0.011525
     81 C                    -0.001610
     82 C                    -0.008031
     83 C                    -0.000153
     84 C                    -0.004064
     85 C                    -0.033962
     86 C                    -0.025695
     87 C                    -0.019203
     88 C                    -0.005299
     89 O                    -0.478379
     90 C                    -0.093473
     91 H                     0.137959
     92 H                     0.131113
     93 H                     0.139963
     94 O                    -0.477115
     95 C                     0.593573
     96 C                    -0.272307
     97 H                     0.138757
     98 H                     0.130929
     99 C                    -0.164610
    100 H                     0.115936
    101 H                     0.135337
    102 C                    -0.204392
    103 H                     0.105667
    104 H                     0.103417
    105 C                     0.022781
    106 C                     0.102431
    107 C                    -0.095676
    108 H                     0.093497
    109 C                    -0.080492
    110 H                     0.095931
    111 C                    -0.106891
    112 H                     0.088244
    113 C                    -0.087159
    114 H                     0.100825
    115 C                    -0.120004
    116 H                     0.090821
    117 C                    -0.056409
    118 C                    -0.010366
    119 C                     0.011006
    120 C                    -0.012603
    121 C                     0.007110
    122 C                    -0.002704
    123 C                     0.000552
    124 C                    -0.013530
    125 C                    -0.009194
    126 C                    -0.005680
    127 C                    -0.104006
    128 C                     0.023504
    129 C                    -0.006189
    130 C                     0.005680
    131 C                     0.015030
    132 C                     0.005071
    133 C                    -0.070174
    134 C                     0.010190
    135 C                    -0.012783
    136 C                    -0.013642
    137 C                    -0.014689
    138 C                     0.012277
    139 C                     0.017989
    140 C                    -0.008589
    141 C                     0.049076
    142 C                    -0.013265
    143 C                     0.026593
    144 C                    -0.016514
    145 C                    -0.017141
    146 C                    -0.006714
    147 C                    -0.024435
    148 C                     0.020275
    149 C                     0.022117
    150 C                    -0.034052
    151 C                     0.026658
    152 C                    -0.007066
    153 C                     0.020233
    154 C                     0.002042
    155 C                     0.004376
    156 C                    -0.005213
    157 C                     0.008099
    158 C                     0.027981
    159 C                     0.006759
    160 C                    -0.009663
    161 C                     0.020582
    162 C                     0.004749
    163 C                    -0.000338
    164 C                     0.008200
    165 C                    -0.015660
    166 C                    -0.009968
    167 C                    -0.016507
    168 C                     0.010668
    169 C                     0.017631
    170 C                     0.037427
    171 C                     0.023987
    172 C                    -0.014504
    173 C                    -0.013467
    174 C                    -0.035387
    175 C                     0.017833
    176 C                    -0.019977
  ----------------------------------------
  Sum of atomic charges =     0.000000

                    Cartesian Multipole Moments
 -----------------------------------------------------------------
    Charge (ESU x 10^10)
                 0.0000
    Dipole Moment (Debye)
         X      -4.3248      Y      -1.0319      Z       3.6184
       Tot       5.7325
    Quadrupole Moments (Debye-Ang)
        XX    -798.9899     XY      11.9263     YY    -801.5297
        XZ     -14.5401     YZ      -9.4816     ZZ    -786.3645

 Total job time:  877.70s(wall), 8374.21s(cpu)
        *  Thank you very much for using Q-Chem.  Have a nice day.  *
