 Q-Chem 4.4, Q-Chem, Inc., Pleasanton, CA (2016)
 Q-Chem 4.4.2 for Intel X86 Linux

User input:
--------------------------------------------------------------
$comment
SP
$end

$rem
MEM_STATIC 5000
MEM_TOTAL 20000
JOBTYPE SP
EXCHANGE B3LYP
BASIS 6-31g(d,p)
$end

$molecule
0 1
O          20.152000      8.682000     -1.185000
C          20.461000     10.071000     -0.668000
H          21.319000     10.531000     -1.174000
H          20.662000     10.194000      0.403000
H          19.558000     10.676000     -0.820000
O          22.127000      7.964000     -0.141000
C          21.126000      7.762000     -0.795000
C          20.832000      6.454000     -1.452000
H          21.733000      6.101000     -1.966000
H          20.128000      6.604000     -2.279000
C          20.255000      5.382000     -0.538000
H          20.953000      5.381000      0.309000
H          19.304000      5.751000     -0.133000
C          20.099000      4.028000     -1.244000
H          19.323000      4.265000     -1.981000
H          20.909000      3.670000     -1.893000
C          19.700000      2.868000     -0.320000
C          20.347000      2.936000      1.045000
C          21.664000      2.375000      1.214000
H          22.292000      2.174000      0.353000
C          22.160000      2.250000      2.524000
H          23.170000      1.875000      2.659000
C          21.428000      2.675000      3.651000
H          21.973000      2.692000      4.589000
C          20.099000      3.102000      3.502000
H          19.507000      3.352000      4.378000
C          19.584000      3.304000      2.211000
H          18.539000      3.581000      2.106000
C          19.488000     -2.535000      0.381000
C          17.681000     -1.727000      1.805000
C          14.296000     -3.214000     -1.059000
C          19.059000     -0.724000     -4.421000
C          13.868000     -0.117000     -2.483000
C          18.965000     -1.559000      1.218000
C          16.360000     -0.392000     -5.032000
C          16.420000     -4.206000     -0.355000
C          16.201000      1.671000      0.293000
C          18.470000      0.567000     -4.420000
C          18.400000      2.152000     -0.508000
C          16.146000      2.172000     -1.001000
C          16.649000      1.570000     -3.720000
C          15.057000     -0.579000     -4.543000
C          18.004000      0.476000      1.277000
C          14.163000     -2.367000     -3.175000
C          19.637000      1.439000     -0.924000
C          19.775000      1.019000     -2.420000
C          13.570000     -1.480000     -2.265000
C          17.847000     -3.924000     -3.570000
C          15.758000     -4.135000     -2.768000
C          16.621000     -4.498000     -1.727000
C          17.443000     -3.771000      0.489000
C          20.338000     -0.272000     -2.450000
C          17.542000      1.572000      0.607000
C          16.912000     -2.893000      1.415000
C          17.147000      0.678000     -4.689000
C          17.077000     -0.468000      1.839000
C          15.108000      1.696000     -1.866000
C          19.759000     -2.484000     -3.222000
C          15.269000     -3.529000     -0.004000
C          17.386000      2.406000     -1.570000
C          18.965000     -3.923000     -1.432000
C          15.350000      1.444000     -3.233000
C          15.288000      0.692000      0.763000
C          16.049000     -2.638000     -4.653000
C          16.942000     -1.663000     -5.112000
C          14.244000      0.291000     -0.126000
C          20.026000     -1.156000     -3.536000
C          18.819000      1.439000     -3.380000
C          18.705000     -2.953000     -4.060000
C          19.897000      0.148000     -0.234000
C          14.967000     -1.469000      1.089000
C          17.660000      2.059000     -2.924000
C          14.205000      0.767000     -1.418000
C          19.863000     -2.992000     -1.893000
C          13.688000     -1.966000     -0.938000
C          18.704000     -3.621000     -0.080000
C          14.645000     -3.374000     -2.391000
C          15.738000     -0.348000      1.516000
C          14.044000     -1.114000      0.148000
C          19.141000     -0.235000      0.918000
C          20.352000     -0.797000     -1.163000
C          16.481000     -3.796000     -3.918000
C          15.584000     -2.719000      1.075000
C          14.541000      0.356000     -3.629000
C          18.298000     -1.827000     -4.754000
C          14.859000     -1.982000     -4.306000
C          20.136000     -2.152000     -0.820000
C          17.920000     -4.380000     -2.224000
O          16.260000      0.764000     -7.605000
C          15.619000      2.003000     -7.368000
H          14.656000      2.045000     -7.891000
H          16.363000      2.800000     -7.491000
H          15.217000      2.173000     -6.362000
O          16.712000      1.278000     -9.747000
C          16.733000      0.500000     -8.832000
C          17.197000     -0.924000     -8.949000
H          17.141000     -1.177000    -10.015000
H          16.381000     -1.506000     -8.501000
C          18.534000     -1.274000     -8.318000
H          18.614000     -0.968000     -7.268000
H          18.624000     -2.352000     -8.136000
C          19.666000     -0.832000     -9.311000
H          19.943000     -1.650000     -9.987000
H          19.370000     -0.022000     -9.990000
C          20.945000     -0.464000     -8.594000
C          21.691000     -1.656000     -8.157000
C          21.361000     -2.478000     -7.007000
H          20.628000     -2.080000     -6.310000
C          22.030000     -3.637000     -6.675000
H          21.696000     -4.205000     -5.811000
C          23.116000     -4.064000     -7.500000
H          23.614000     -5.001000     -7.269000
C          23.603000     -3.278000     -8.494000
H          24.370000     -3.576000     -9.202000
C          22.839000     -2.085000     -8.879000
H          23.286000     -1.534000     -9.702000
C          22.827000      2.924000     -4.671000
C          24.751000      2.562000     -6.125000
C          24.864000      6.661000     -7.907000
C          18.869000      4.601000     -7.449000
C          23.280000      5.772000    -10.886000
C          23.595000      2.089000     -5.508000
C          19.883000      6.041000     -9.563000
C          24.381000      5.977000     -5.632000
C          23.689000      1.847000     -9.820000
C          18.925000      3.960000     -8.748000
C          21.724000      0.785000     -9.018000
C          22.612000      2.333000    -10.515000
C          20.280000      3.880000    -10.553000
C          21.084000      6.530000    -10.119000
C          23.756000      1.168000     -7.546000
C          23.135000      7.398000     -9.139000
C          20.837000      0.844000     -7.781000
C          19.644000      1.866000     -7.710000
C          23.971000      6.554000     -9.945000
C          20.944000      6.825000     -5.758000
C          22.895000      7.551000     -6.723000
C          23.241000      6.816000     -5.588000
C          24.313000      4.681000     -5.091000
C          19.628000      2.508000     -6.498000
C          23.205000      0.996000     -8.818000
C          25.138000      3.849000     -5.865000
C          19.481000      4.725000     -9.795000
C          24.908000      1.932000     -7.361000
C          22.680000      3.623000    -11.091000
C          19.815000      4.718000     -5.431000
C          25.227000      5.870000     -6.754000
C          21.425000      1.760000    -10.021000
C          22.034000      5.123000     -4.408000
C          21.475000      4.357000    -11.154000
C          24.834000      2.689000     -9.664000
C          20.911000      7.498000     -8.120000
C          19.746000      6.679000     -8.340000
C          24.879000      4.008000    -10.243000
C          19.212000      3.874000     -6.347000
C          19.399000      2.634000     -8.847000
C          19.842000      5.983000     -6.009000
C          21.530000      1.199000     -6.525000
C          25.813000      4.025000     -8.181000
C          20.227000      2.577000     -9.966000
C          23.782000      4.446000    -10.973000
C          20.919000      4.272000     -4.678000
C          25.059000      6.185000     -9.213000
C          23.206000      4.248000     -4.418000
C          23.702000      7.389000     -7.848000
C          25.447000      2.686000     -8.428000
C          25.486000      4.813000     -9.304000
C          22.961000      1.236000     -6.415000
C          20.806000      2.113000     -5.772000
C          21.505000      7.556000     -6.855000
C          25.759000      4.609000     -6.876000
C          21.856000      5.663000    -10.966000
C          19.271000      5.946000     -7.285000
C          21.736000      7.489000     -9.273000
C          21.429000      2.961000     -4.914000
C          22.041000      6.448000     -4.928000
$end

--------------------------------------------------------------

             Standard Nuclear Orientation (Angstroms)
    I     Atom           X                Y                Z
 ----------------------------------------------------------------
    1      O      -1.5542546777    -7.3088556148    -2.0717099256
    2      C      -2.0898429768    -8.7010445660    -2.3306425388
    3      H      -3.1184869288    -8.8333784470    -1.9726210815
    4      H      -1.5345524005    -9.5551943712    -1.9248698364
    5      H      -2.0379286224    -8.8661901360    -3.4144182723
    6      O      -1.5023128844    -7.8625288692     0.2079464032
    7      C      -1.3179844259    -7.0955594595    -0.7130866819
    8      C      -0.9270898431    -5.6678253596    -0.5188554663
    9      H      -1.5596216406    -5.2261075917     0.2592158279
   10      H      -1.1978864755    -5.0847565442    -1.4069686012
   11      C       0.5501971784    -5.4301131753    -0.2384540157
   12      H       0.7599486331    -6.1313793339     0.5793748796
   13      H       1.1267263425    -5.7998831257    -1.0960502533
   14      C       0.8601019539    -3.9607413661     0.0793407556
   15      H       0.6422743698    -3.4880499510    -0.8853498527
   16      H       0.1862852826    -3.4071795213     0.7464279894
   17      C       2.2973613184    -3.6989966435     0.5529990917
   18      C       2.8478920873    -4.7938860615     1.4387705265
   19      C       2.5689868825    -4.7448141061     2.8521264017
   20      H       1.7647367504    -4.1255312856     3.2339333073
   21      C       3.2615818185    -5.6386303424     3.6882757846
   22      H       3.0225418220    -5.6438232580     4.7474183216
   23      C       4.1830161983    -6.5799151279     3.1867584505
   24      H       4.5245614423    -7.3290016819     3.8934225722
   25      C       4.5515596057    -6.5455510895     1.8325923345
   26      H       5.3216588322    -7.2161776358     1.4617187486
   27      C       3.8415533073    -5.7159194829     0.9492393736
   28      H       4.1701959312    -5.6555629508    -0.0842644314
   29      C       5.6988496135    -0.3109104254     3.1374725695
   30      C       7.1810562352    -1.5361844513     1.6382540757
   31      C       7.7824717101     2.0727187032    -1.2748211804
   32      C       1.7314338464     1.7608489823     0.5898479723
   33      C       5.4277653855     0.9259973776    -3.4980524609
   34      C       6.0281133585    -1.4816565803     2.4684338359
   35      C       2.5504336036     2.4205438064    -1.9912735159
   36      C       7.6698421735     1.9190542560     1.1654160673
   37      C       5.1576162732    -2.6499292824    -1.6310288994
   38      C       1.3656197151     0.9494480540    -0.5153269257
   39      C       3.2204135012    -2.8330509093    -0.2445676161
   40      C       4.0501885643    -2.1115820773    -2.2730944385
   41      C       2.2639648835     0.0828768794    -2.3192338960
   42      C       3.6569204276     2.4497702280    -2.8554099198
   43      C       5.5072561635    -2.7941176614     0.7150426380
   44      C       5.9795149320     2.9410037258    -2.3739035139
   45      C       2.6669123355    -2.2625882509     1.0123344544
   46      C       1.8026567137    -0.9677122162     0.9132472446
   47      C       6.4409817676     1.7958725775    -3.0389155534
   48      C       4.6062948188     3.6621653209     1.3336998191
   49      C       6.3461228398     3.6337757470    -0.0889169563
   50      C       6.7898786947     3.0273802612     1.0924315343
   51      C       7.4810241886     0.8533029552     2.0466719515
   52      C       2.1624012522    -0.1319047473     1.9886819204
   53      C       4.7233537695    -3.0315619802    -0.3770549914
   54      C       7.9257216335    -0.3073504614     1.4421483135
   55      C       1.8146770560     1.2886588797    -1.7475178688
   56      C       6.8620471001    -2.3447869356     0.5448885403
   57      C       4.2539964508    -0.9997765406    -3.1532056781
   58      C       3.0952844561     2.0655046508     2.3426450050
   59      C       8.1533951841     1.4032727968    -0.0205337513
   60      C       2.8979096028    -2.1083347525    -1.5060483840
   61      C       5.4691446351     2.0035015516     2.8585911907
   62      C       3.3352109066     0.0695284198    -3.2095707854
   63      C       6.4611692931    -2.1154431609    -1.7983134179
   64      C       4.1396723061     3.8085822141    -1.0788329836
   65      C       2.8560543617     3.2729590923    -0.9233085668
   66      C       6.6127693888    -1.0393406712    -2.7257177755
   67      C       2.0515543454     1.2914816969     1.8476854886
   68      C       1.4323609181    -0.4405688586    -0.3504524444
   69      C       3.3220264826     3.1567425333     1.4533143932
   70      C       3.6711792670    -1.8648443841     2.0339159473
   71      C       7.9754625739    -0.7496826854    -0.9492832750
   72      C       2.0207868649    -0.9862421912    -1.4869437638
   73      C       5.5113989972    -0.4874730479    -3.3419858884
   74      C       4.2045135127     1.4995434609     3.0386477576
   75      C       7.5300987631     1.2132070298    -2.3422276536
   76      C       6.3616105457     0.9123667174     2.8711757830
   77      C       6.7836710356     3.0339788919    -1.2758517940
   78      C       7.2782340537    -1.9722454305    -0.7198846594
   79      C       7.6347230156    -0.1952881743    -2.1492742248
   80      C       5.0433114535    -2.2462979430     1.9032428998
   81      C       3.2989562942    -0.6412048061     2.6059712258
   82      C       5.0154657982     4.0508888666     0.0356562471
   83      C       8.2965321850     0.0365819247     0.1561972846
   84      C       4.0559750561     1.2542589209    -3.4778126176
   85      C       2.4776212436     2.9046908529     0.3862573456
   86      C       4.6517753599     3.3173189611    -2.2884841228
   87      C       4.3498183041     0.1231222713     3.1643825034
   88      C       5.7160432631     3.0532276921     1.9838031606
   89      O       0.2602154739     3.3760796928    -3.3360846879
   90      C       0.1081402801     2.4495700763    -4.3946800146
   91      H       0.2340254037     2.9474212184    -5.3636790735
   92      H      -0.7779324106     1.8370169007    -4.1860468587
   93      H       0.9089214116     1.7132328217    -4.5328720080
   94      O      -1.6912590589     4.3945806638    -3.7955048876
   95      C      -0.6779294135     4.3173938335    -3.1550712665
   96      C      -0.2561125771     5.3243994488    -2.1231937315
   97      H      -0.8157309825     6.2416042657    -2.3446966985
   98      H       0.7750649782     5.5753733513    -2.4042078765
   99      C      -0.3431038278     4.9048838203    -0.6655692395
  100      H       0.1655674333     3.9567946464    -0.4536341868
  101      H       0.2951661392     5.5286772697    -0.0277595643
  102      C      -1.8342620043     5.0693855747    -0.2048920583
  103      H      -2.0089858680     6.0617464272     0.2281443258
  104      H      -2.5615502335     5.0114022034    -1.0249205702
  105      C      -2.2072882914     4.0925358920     0.8868817675
  106      C      -1.6787144310     4.5068675206     2.1973351148
  107      C      -0.3008240487     4.3625094208     2.6305358000
  108      H       0.3444988092     3.7341891894     2.0220342832
  109      C       0.1796445386     4.8387878927     3.8319411245
  110      H       1.2338226760     4.7104323187     4.0619613438
  111      C      -0.7208777143     5.5125913729     4.7136431956
  112      H      -0.3354175086     5.9307730234     5.6387802324
  113      C      -2.0562696093     5.5481399950     4.4718462098
  114      H      -2.7788719480     6.1070808386     5.0581805798
  115      C      -2.5408378324     5.1007743393     3.1602717334
  116      H      -3.6172645701     5.1931774946     3.0440558346
  117      C      -2.3014384445    -1.3208327982     1.9342461608
  118      C      -4.0973909334    -0.4118756886     3.3109406188
  119      C      -7.4982475172    -2.1200243248     0.9643480396
  120      C      -2.9933058367     0.0883338602    -2.9371957039
  121      C      -8.2240439117     0.8248063051    -0.7604737353
  122      C      -2.8317762774    -0.2933840527     2.7409114311
  123      C      -5.7012734265     0.3319504150    -3.3595160879
  124      C      -5.3520759741    -3.1033807974     1.5154630506
  125      C      -5.6697496726     2.8062034347     1.7413073013
  126      C      -3.5664516662     1.4198206761    -2.9452403985
  127      C      -3.5507585248     3.3589966869     0.8266657674
  128      C      -5.8323034463     3.1270165579     0.4185052713
  129      C      -5.4505030586     2.4693326065    -2.2749232657
  130      C      -6.9574188483     0.1524962757    -2.7426263967
  131      C      -3.8132092227     1.7226336940     2.7491466611
  132      C      -7.8152730098    -1.4949728284    -1.1708895266
  133      C      -2.2834215605     2.6294235006     0.4000523771
  134      C      -2.1471888193     2.0677786131    -1.0624009249
  135      C      -8.3553629731    -0.4943520451    -0.2945740129
  136      C      -4.0900037343    -3.0099744696    -1.7930710538
  137      C      -6.1367110842    -3.2108410151    -0.7755526730
  138      C      -5.1662722767    -3.5262702726     0.1767702263
  139      C      -4.2751689618    -2.5422820140     2.2242369511
  140      C      -1.6542078341     0.7879161469    -1.0454948386
  141      C      -4.2966193350     2.8107281253     2.0187124259
  142      C      -4.7941546562    -1.5700721259     3.0945166662
  143      C      -4.9626492955     1.4942336540    -3.1340918979
  144      C      -4.6862637571     0.8509142082     3.3994588309
  145      C      -6.9297444514     2.5940720581    -0.2971017441
  146      C      -2.1825194396    -1.5401487656    -1.6442924762
  147      C      -6.4952911279    -2.4110660374     1.9624623630
  148      C      -4.5815646428     3.4058666547    -0.1639284750
  149      C      -2.8573551234    -2.9185766483     0.2996849856
  150      C      -6.7276909096     2.3301762845    -1.6697937660
  151      C      -6.5994359531     1.9002462644     2.3406819968
  152      C      -6.0206114192    -1.8680743128    -2.7940106119
  153      C      -5.1357734670    -0.9311715895    -3.4387284458
  154      C      -7.7020515650     1.3528683594     1.5912533868
  155      C      -2.0477867505    -0.2096981778    -2.0003112061
  156      C      -3.1887702609     2.3433080568    -1.9466009172
  157      C      -3.2469313475    -2.0467519420    -2.3828170270
  158      C      -1.9801768009     1.3974229419     1.1576982304
  159      C      -6.8031292820    -0.2326650454     2.9338298470
  160      C      -4.3466564135     3.0013235387    -1.5375663426
  161      C      -7.8528273759     1.7351426245     0.2648725814
  162      C      -2.0156671421    -1.9336991576    -0.3018993148
  163      C      -8.2345267525    -0.9253016366     0.9920533836
  164      C      -3.0180618414    -2.4990559253     1.6916205853
  165      C      -7.2329721177    -2.4705940535    -0.3358207293
  166      C      -6.0813965078     0.9497905437     3.1961018097
  167      C      -7.8029820988     0.0336433673     1.9755103940
  168      C      -2.6701266345     1.0427860699     2.3657677302
  169      C      -1.5707282644     0.3635606562     0.3269987238
  170      C      -5.5048800409    -2.8782040534    -1.9754239930
  171      C      -6.1972478137    -1.5282055822     2.9722923484
  172      C      -7.4799147333     1.2087455552    -1.9201803439
  173      C      -3.7930237026    -1.0480646680    -3.1952164782
  174      C      -7.2249498419    -1.2203280020    -2.4196996710
  175      C      -1.7571713385    -0.9336561097     0.6817727961
  176      C      -3.9034270116    -3.5037725293    -0.4680085636
 ----------------------------------------------------------------

    9   -5804.2373317860      8.58E-06 Convergence criterion met
 Total energy in the final basis set = -5804.2373317860

                    Orbital Energies (a.u.)
 --------------------------------------------------------------

 Alpha MOs
 -- Occupied --
-19.197 -19.195 -19.140 -19.133 -10.314 -10.313 -10.245 -10.243
-10.242 -10.241 -10.239 -10.238 -10.237 -10.236 -10.235 -10.228
-10.227 -10.227 -10.227 -10.227 -10.226 -10.224 -10.224 -10.224
-10.223 -10.222 -10.221 -10.221 -10.221 -10.221 -10.221 -10.221
-10.221 -10.220 -10.220 -10.220 -10.219 -10.219 -10.219 -10.219
-10.219 -10.219 -10.219 -10.219 -10.219 -10.218 -10.218 -10.218
-10.218 -10.218 -10.218 -10.218 -10.217 -10.217 -10.217 -10.217
-10.217 -10.217 -10.217 -10.217 -10.217 -10.216 -10.216 -10.216
-10.216 -10.216 -10.216 -10.215 -10.215 -10.215 -10.215 -10.215
-10.215 -10.215 -10.215 -10.215 -10.215 -10.215 -10.215 -10.214
-10.214 -10.214 -10.214 -10.214 -10.214 -10.214 -10.214 -10.214
-10.214 -10.214 -10.214 -10.213 -10.213 -10.213 -10.213 -10.213
-10.213 -10.213 -10.213 -10.213 -10.213 -10.212 -10.212 -10.212
-10.212 -10.212 -10.212 -10.212 -10.212 -10.212 -10.212 -10.212
-10.212 -10.212 -10.212 -10.212 -10.211 -10.211 -10.211 -10.211
-10.211 -10.211 -10.211 -10.210 -10.210 -10.210 -10.210 -10.209
-10.208 -10.208 -10.208 -10.208 -10.206 -10.203 -10.203 -10.202
-10.202 -10.202 -10.201 -10.201 -10.200 -10.200 -10.200 -10.199
-10.198 -10.198 -10.196 -10.190  -1.109  -1.079  -1.020  -1.008
 -0.988  -0.983  -0.971  -0.967  -0.966  -0.965  -0.963  -0.960
 -0.938  -0.933  -0.932  -0.929  -0.928  -0.926  -0.925  -0.924
 -0.922  -0.921  -0.904  -0.897  -0.894  -0.891  -0.889  -0.885
 -0.876  -0.874  -0.849  -0.848  -0.845  -0.845  -0.842  -0.841
 -0.840  -0.836  -0.823  -0.823  -0.809  -0.808  -0.803  -0.800
 -0.798  -0.798  -0.796  -0.794  -0.794  -0.792  -0.788  -0.786
 -0.775  -0.773  -0.771  -0.770  -0.768  -0.767  -0.764  -0.761
 -0.748  -0.747  -0.745  -0.737  -0.734  -0.733  -0.721  -0.719
 -0.716  -0.716  -0.715  -0.714  -0.713  -0.713  -0.712  -0.711
 -0.710  -0.707  -0.706  -0.705  -0.703  -0.700  -0.675  -0.672
 -0.663  -0.661  -0.659  -0.657  -0.649  -0.647  -0.638  -0.635
 -0.629  -0.629  -0.627  -0.625  -0.622  -0.621  -0.620  -0.620
 -0.618  -0.617  -0.616  -0.613  -0.613  -0.612  -0.611  -0.609
 -0.608  -0.605  -0.604  -0.604  -0.571  -0.567  -0.566  -0.563
 -0.563  -0.562  -0.561  -0.560  -0.558  -0.556  -0.554  -0.553
 -0.537  -0.537  -0.534  -0.533  -0.530  -0.529  -0.528  -0.526
 -0.524  -0.524  -0.524  -0.520  -0.520  -0.518  -0.516  -0.513
 -0.507  -0.504  -0.503  -0.500  -0.498  -0.491  -0.489  -0.488
 -0.486  -0.485  -0.483  -0.482  -0.482  -0.480  -0.479  -0.476
 -0.475  -0.473  -0.472  -0.471  -0.471  -0.469  -0.469  -0.468
 -0.466  -0.465  -0.464  -0.464  -0.461  -0.461  -0.460  -0.460
 -0.456  -0.454  -0.452  -0.450  -0.448  -0.446  -0.446  -0.445
 -0.444  -0.443  -0.443  -0.440  -0.439  -0.437  -0.435  -0.434
 -0.433  -0.432  -0.431  -0.430  -0.429  -0.428  -0.428  -0.426
 -0.425  -0.424  -0.423  -0.422  -0.421  -0.420  -0.420  -0.419
 -0.418  -0.418  -0.417  -0.416  -0.415  -0.415  -0.414  -0.413
 -0.412  -0.411  -0.410  -0.408  -0.402  -0.402  -0.398  -0.397
 -0.396  -0.395  -0.393  -0.392  -0.391  -0.389  -0.387  -0.387
 -0.381  -0.380  -0.374  -0.373  -0.371  -0.370  -0.368  -0.368
 -0.366  -0.364  -0.364  -0.363  -0.363  -0.361  -0.360  -0.359
 -0.358  -0.357  -0.357  -0.355  -0.354  -0.354  -0.353  -0.353
 -0.351  -0.351  -0.350  -0.348  -0.347  -0.347  -0.345  -0.344
 -0.343  -0.341  -0.340  -0.339  -0.337  -0.336  -0.336  -0.335
 -0.334  -0.332  -0.331  -0.330  -0.328  -0.327  -0.326  -0.325
 -0.308  -0.306  -0.304  -0.302  -0.289  -0.289  -0.275  -0.273
 -0.272  -0.271  -0.271  -0.269  -0.268  -0.267  -0.267  -0.265
 -0.264  -0.263  -0.261  -0.260  -0.258  -0.255  -0.254  -0.254
 -0.248  -0.246  -0.245  -0.243  -0.224  -0.221  -0.214  -0.212
 -0.211  -0.209  -0.208  -0.206  -0.201  -0.198

          Ground-State Mulliken Net Atomic Charges

     Atom                 Charge (a.u.)
  ----------------------------------------
      1 O                    -0.477016
      2 C                    -0.105010
      3 H                     0.134440
      4 H                     0.136537
      5 H                     0.121853
      6 O                    -0.463840
      7 C                     0.603571
      8 C                    -0.248934
      9 H                     0.132937
     10 H                     0.117455
     11 C                    -0.199123
     12 H                     0.131316
     13 H                     0.108921
     14 C                    -0.186914
     15 H                     0.112522
     16 H                     0.116777
     17 C                     0.019816
     18 C                     0.053987
     19 C                    -0.097775
     20 H                     0.098580
     21 C                    -0.089208
     22 H                     0.089521
     23 C                    -0.078240
     24 H                     0.093389
     25 C                    -0.089436
     26 H                     0.093597
     27 C                    -0.103284
     28 H                     0.091926
     29 C                    -0.010662
     30 C                    -0.019816
     31 C                    -0.016962
     32 C                     0.023421
     33 C                     0.006983
     34 C                    -0.003089
     35 C                     0.066308
     36 C                    -0.008634
     37 C                     0.005031
     38 C                    -0.009810
     39 C                    -0.096323
     40 C                    -0.001547
     41 C                    -0.016450
     42 C                    -0.021257
     43 C                     0.022925
     44 C                     0.024996
     45 C                    -0.094574
     46 C                     0.031172
     47 C                    -0.025431
     48 C                    -0.017094
     49 C                    -0.005198
     50 C                     0.008070
     51 C                     0.012592
     52 C                    -0.006236
     53 C                     0.014302
     54 C                    -0.004251
     55 C                     0.019299
     56 C                    -0.015644
     57 C                    -0.016518
     58 C                    -0.005515
     59 C                    -0.016243
     60 C                     0.037954
     61 C                     0.009138
     62 C                    -0.014715
     63 C                    -0.004802
     64 C                     0.008387
     65 C                    -0.032947
     66 C                    -0.039138
     67 C                    -0.042319
     68 C                    -0.012411
     69 C                     0.005902
     70 C                     0.032827
     71 C                     0.004610
     72 C                     0.024312
     73 C                     0.029986
     74 C                     0.014521
     75 C                    -0.006655
     76 C                    -0.008941
     77 C                     0.030247
     78 C                     0.017392
     79 C                     0.016909
     80 C                     0.036799
     81 C                     0.021355
     82 C                    -0.022458
     83 C                     0.005367
     84 C                    -0.015897
     85 C                    -0.010966
     86 C                    -0.012425
     87 C                    -0.014079
     88 C                     0.002051
     89 O                    -0.453341
     90 C                    -0.092101
     91 H                     0.121801
     92 H                     0.131237
     93 H                     0.118512
     94 O                    -0.473622
     95 C                     0.614040
     96 C                    -0.259844
     97 H                     0.130165
     98 H                     0.119882
     99 C                    -0.188050
    100 H                     0.122332
    101 H                     0.115436
    102 C                    -0.200611
    103 H                     0.117117
    104 H                     0.129306
    105 C                     0.017296
    106 C                     0.102933
    107 C                    -0.108183
    108 H                     0.089921
    109 C                    -0.090913
    110 H                     0.098085
    111 C                    -0.085765
    112 H                     0.087826
    113 C                    -0.080283
    114 H                     0.094764
    115 C                    -0.136622
    116 H                     0.092862
    117 C                    -0.020105
    118 C                     0.020956
    119 C                    -0.003213
    120 C                    -0.019710
    121 C                    -0.025708
    122 C                    -0.015485
    123 C                     0.031962
    124 C                     0.018723
    125 C                    -0.007240
    126 C                    -0.022307
    127 C                    -0.112554
    128 C                     0.012025
    129 C                    -0.009881
    130 C                    -0.014387
    131 C                     0.024712
    132 C                    -0.011128
    133 C                    -0.078870
    134 C                     0.001534
    135 C                     0.033322
    136 C                    -0.001842
    137 C                     0.002820
    138 C                    -0.006470
    139 C                     0.027913
    140 C                     0.009446
    141 C                     0.012288
    142 C                     0.002968
    143 C                     0.012095
    144 C                    -0.009744
    145 C                     0.006157
    146 C                    -0.022439
    147 C                    -0.002040
    148 C                     0.045629
    149 C                    -0.022533
    150 C                    -0.002698
    151 C                    -0.012417
    152 C                    -0.003016
    153 C                    -0.013479
    154 C                    -0.002552
    155 C                     0.001687
    156 C                     0.052811
    157 C                     0.002919
    158 C                     0.038197
    159 C                     0.015119
    160 C                    -0.017532
    161 C                     0.006993
    162 C                     0.002948
    163 C                    -0.026476
    164 C                    -0.027540
    165 C                     0.030096
    166 C                    -0.009695
    167 C                     0.003285
    168 C                    -0.005407
    169 C                     0.012913
    170 C                     0.005183
    171 C                    -0.031677
    172 C                    -0.002573
    173 C                     0.012690
    174 C                    -0.020814
    175 C                     0.019006
    176 C                    -0.021259
  ----------------------------------------
  Sum of atomic charges =     0.000000

                    Cartesian Multipole Moments
 -----------------------------------------------------------------
    Charge (ESU x 10^10)
                 0.0000
    Dipole Moment (Debye)
         X       1.9711      Y       0.0158      Z       0.4550
       Tot       2.0230
    Quadrupole Moments (Debye-Ang)
        XX    -823.1767     XY      -7.6221     YY    -789.2832
        XZ      -3.5420     YZ      22.0380     ZZ    -800.3997

 Total job time:  928.59s(wall), 8886.58s(cpu)
        *  Thank you very much for using Q-Chem.  Have a nice day.  *
