 Q-Chem 4.4, Q-Chem, Inc., Pleasanton, CA (2016)
 Q-Chem 4.4.2 for Intel X86 Linux

User input:
--------------------------------------------------------------
$comment
SP
$end

$rem
MEM_STATIC 5000
MEM_TOTAL 20000
JOBTYPE SP
EXCHANGE B3LYP
BASIS 6-31g(d,p)
$end

$molecule
0 1
O          16.650000     15.709000     -1.140000
C          17.511000     16.506000     -0.341000
H          17.126000     17.496000     -0.067000
H          18.410000     16.715000     -0.934000
H          17.875000     16.050000      0.589000
O          14.686000     16.049000      0.090000
C          15.324000     15.622000     -0.841000
C          14.662000     14.950000     -2.002000
H          15.336000     14.543000     -2.766000
H          14.053000     15.740000     -2.459000
C          13.612000     13.988000     -1.550000
H          12.762000     14.521000     -1.105000
H          13.261000     13.465000     -2.449000
C          13.925000     12.893000     -0.574000
H          14.170000     13.318000      0.406000
H          13.014000     12.295000     -0.445000
C          14.991000     11.852000     -1.122000
C          16.436000     12.195000     -0.695000
C          17.378000     12.925000     -1.439000
H          17.190000     13.325000     -2.431000
C          18.552000     13.378000     -0.847000
H          19.204000     14.055000     -1.390000
C          18.926000     12.923000      0.437000
H          19.834000     13.275000      0.916000
C          18.039000     12.103000      1.137000
H          18.295000     11.842000      2.159000
C          16.778000     11.763000      0.602000
H          16.073000     11.184000      1.190000
C          17.077000      8.801000     -5.196000
C          17.498000      7.539000     -3.113000
C          14.605000      4.162000     -3.838000
C          12.077000      9.787000     -5.441000
C          12.115000      5.442000     -1.706000
C          17.376000      8.784000     -3.804000
C          10.715000      7.650000     -4.209000
C          16.156000      5.300000     -5.379000
C          14.693000      8.262000     -0.234000
C          11.620000      9.922000     -4.137000
C          14.572000     10.388000     -1.143000
C          13.382000      8.535000     -0.407000
C          11.255000      8.938000     -2.189000
C          10.833000      6.451000     -3.536000
C          16.597000      9.026000     -1.605000
C          12.407000      4.633000     -3.972000
C          14.764000     11.143000     -2.434000
C          13.626000     11.087000     -3.425000
C          12.735000      4.527000     -2.612000
C          13.507000      6.983000     -6.966000
C          13.776000      4.988000     -5.970000
C          15.051000      5.496000     -6.241000
C          17.016000      6.345000     -5.164000
C          14.133000     10.919000     -4.736000
C          15.490000      9.282000     -0.705000
C          17.407000      6.334000     -3.813000
C          10.900000      8.901000     -3.533000
C          17.032000      7.710000     -1.786000
C          12.430000      7.480000     -0.622000
C          13.967000      9.355000     -6.602000
C          15.849000      4.674000     -4.199000
C          13.191000      9.778000     -0.949000
C          15.745000      7.720000     -6.650000
C          11.368000      7.692000     -1.505000
C          15.141000      6.934000     -0.415000
C          11.626000      6.183000     -5.670000
C          11.163000      7.488000     -5.543000
C          14.249000      5.873000     -0.675000
C          13.346000     10.293000     -5.737000
C          12.370000     10.603000     -3.119000
C          13.088000      8.260000     -6.793000
C          15.961000     10.689000     -3.296000
C          16.177000      5.465000     -1.866000
C          12.184000      9.945000     -1.918000
C          12.859000      6.123000     -0.751000
C          15.323000      9.063000     -6.605000
C          14.109000      4.307000     -2.504000
C          16.867000      7.578000     -5.807000
C          13.547000      4.392000     -4.737000
C          16.342000      6.676000     -1.126000
C          14.859000      4.978000     -1.552000
C          16.848000      9.683000     -2.848000
C          15.516000     10.617000     -4.641000
C          12.866000      5.887000     -6.404000
C          16.696000      5.264000     -3.199000
C          11.229000      6.428000     -2.199000
C          11.918000      8.514000     -6.118000
C          11.440000      5.530000     -4.413000
C          16.088000      9.719000     -5.561000
C          14.846000      6.639000     -6.956000
O          16.260000      0.764000     -7.605000
C          15.619000      2.003000     -7.368000
H          14.656000      2.045000     -7.891000
H          16.363000      2.800000     -7.491000
H          15.217000      2.173000     -6.362000
O          16.712000      1.278000     -9.747000
C          16.733000      0.500000     -8.832000
C          17.197000     -0.924000     -8.949000
H          17.141000     -1.177000    -10.015000
H          16.381000     -1.506000     -8.501000
C          18.534000     -1.274000     -8.318000
H          18.614000     -0.968000     -7.268000
H          18.624000     -2.352000     -8.136000
C          19.666000     -0.832000     -9.311000
H          19.943000     -1.650000     -9.987000
H          19.370000     -0.022000     -9.990000
C          20.945000     -0.464000     -8.594000
C          21.691000     -1.656000     -8.157000
C          21.361000     -2.478000     -7.007000
H          20.628000     -2.080000     -6.310000
C          22.030000     -3.637000     -6.675000
H          21.696000     -4.205000     -5.811000
C          23.116000     -4.064000     -7.500000
H          23.614000     -5.001000     -7.269000
C          23.603000     -3.278000     -8.494000
H          24.370000     -3.576000     -9.202000
C          22.839000     -2.085000     -8.879000
H          23.286000     -1.534000     -9.702000
C          22.827000      2.924000     -4.671000
C          24.751000      2.562000     -6.125000
C          24.864000      6.661000     -7.907000
C          18.869000      4.601000     -7.449000
C          23.280000      5.772000    -10.886000
C          23.595000      2.089000     -5.508000
C          19.883000      6.041000     -9.563000
C          24.381000      5.977000     -5.632000
C          23.689000      1.847000     -9.820000
C          18.925000      3.960000     -8.748000
C          21.724000      0.785000     -9.018000
C          22.612000      2.333000    -10.515000
C          20.280000      3.880000    -10.553000
C          21.084000      6.530000    -10.119000
C          23.756000      1.168000     -7.546000
C          23.135000      7.398000     -9.139000
C          20.837000      0.844000     -7.781000
C          19.644000      1.866000     -7.710000
C          23.971000      6.554000     -9.945000
C          20.944000      6.825000     -5.758000
C          22.895000      7.551000     -6.723000
C          23.241000      6.816000     -5.588000
C          24.313000      4.681000     -5.091000
C          19.628000      2.508000     -6.498000
C          23.205000      0.996000     -8.818000
C          25.138000      3.849000     -5.865000
C          19.481000      4.725000     -9.795000
C          24.908000      1.932000     -7.361000
C          22.680000      3.623000    -11.091000
C          19.815000      4.718000     -5.431000
C          25.227000      5.870000     -6.754000
C          21.425000      1.760000    -10.021000
C          22.034000      5.123000     -4.408000
C          21.475000      4.357000    -11.154000
C          24.834000      2.689000     -9.664000
C          20.911000      7.498000     -8.120000
C          19.746000      6.679000     -8.340000
C          24.879000      4.008000    -10.243000
C          19.212000      3.874000     -6.347000
C          19.399000      2.634000     -8.847000
C          19.842000      5.983000     -6.009000
C          21.530000      1.199000     -6.525000
C          25.813000      4.025000     -8.181000
C          20.227000      2.577000     -9.966000
C          23.782000      4.446000    -10.973000
C          20.919000      4.272000     -4.678000
C          25.059000      6.185000     -9.213000
C          23.206000      4.248000     -4.418000
C          23.702000      7.389000     -7.848000
C          25.447000      2.686000     -8.428000
C          25.486000      4.813000     -9.304000
C          22.961000      1.236000     -6.415000
C          20.806000      2.113000     -5.772000
C          21.505000      7.556000     -6.855000
C          25.759000      4.609000     -6.876000
C          21.856000      5.663000    -10.966000
C          19.271000      5.946000     -7.285000
C          21.736000      7.489000     -9.273000
C          21.429000      2.961000     -4.914000
C          22.041000      6.448000     -4.928000
$end

--------------------------------------------------------------

             Standard Nuclear Orientation (Angstroms)
    I     Atom           X                Y                Z
 ----------------------------------------------------------------
    1      O       9.0945451909     5.5626226691     0.4002400028
    2      C       9.4506455535     6.7920076643    -0.2135482874
    3      H      10.4470289699     7.1777718008     0.0350620874
    4      H       8.7586191441     7.5577813500     0.1582327114
    5      H       9.3698388913     6.8328817406    -1.3076833766
    6      O      11.0855256715     4.4103345019    -0.0402423528
    7      C       9.9885688082     4.5360658403     0.4465956805
    8      C       9.4221333968     3.5108835198     1.3771337692
    9      H       8.3937971491     3.6892166614     1.7152799688
   10      H      10.0867877750     3.5425387504     2.2495227329
   11      C       9.6589533354     2.1248594150     0.8720580348
   12      H      10.7268039223     1.8741979342     0.9105021011
   13      H       9.1198871048     1.4501224532     1.5496040710
   14      C       9.2219115474     1.7094535104    -0.5012599946
   15      H       9.8008026350     2.2463297497    -1.2613251315
   16      H       9.4561532215     0.6433652048    -0.6141872408
   17      C       7.6490349078     1.7787706086    -0.7052090486
   18      C       7.1844074922     3.1174951048    -1.3216026631
   19      C       6.7290757457     4.2478639600    -0.6225037776
   20      H       6.6376024387     4.2970113283     0.4585259030
   21      C       6.5773344295     5.4688596223    -1.2706497223
   22      H       6.3589875407     6.3624440284    -0.6943567885
   23      C       6.6560262921     5.5443418429    -2.6790768681
   24      H       6.5495627121     6.4913509048    -3.1983536178
   25      C       6.9996585987     4.3924309641    -3.3891382495
   26      H       7.1524898018     4.4880800419    -4.4594815950
   27      C       7.3034291355     3.1851958294    -2.7241173547
   28      H       7.6378377233     2.3200017757    -3.2876953403
   29      C       2.5236185960     1.0210196835     1.1423282760
   30      C       2.4296077545     0.6589690162    -1.3007958051
   31      C       1.6990811160    -3.7864820463    -1.2416461496
   32      C       6.0959093998    -2.0855293817     3.0450401086
   33      C       5.0332812444    -4.6444669653    -1.9702718305
   34      C       2.9787115938     1.3374699245    -0.1691989285
   35      C       6.1351148220    -4.4217397199     1.4701683072
   36      C       0.7612033602    -1.9911497860     0.1628086878
   37      C       5.9480512856    -0.7461834361    -2.8257537403
   38      C       7.0692526169    -2.2406752941     2.0672759613
   39      C       6.9586257063     0.4980094980    -1.1549691094
   40      C       6.8432800592    -1.5593061650    -2.2252740399
   41      C       7.5705390421    -3.0171397736     0.0568034219
   42      C       5.6094984690    -5.0742288014     0.3736103069
   43      C       4.6343809568     1.0790675342    -1.8102331041
   44      C       3.2812325570    -5.1293107254    -0.3672269387
   45      C       6.7227197695     1.0431571860     0.2309357890
   46      C       6.9205248998     0.0811680489     1.3779802653
   47      C       3.6467473062    -4.8522869270    -1.6931518171
   48      C       2.7172993342    -2.9802389092     2.9130178157
   49      C       1.7406374961    -4.0208312069     1.1787452523
   50      C       1.1601899531    -2.7525583475     1.2868868440
   51      C       1.0044341420    -0.6425623964     0.1618925269
   52      C       5.8922496931     0.2514060462     2.3359276144
   53      C       5.8940999952     0.4875051070    -2.2153834945
   54      C       1.3880360673    -0.2564264752    -1.1350082455
   55      C       7.1374879112    -3.4075015841     1.3192670352
   56      C       3.4422026484     0.5225644534    -2.2823106425
   57      C       6.6498744190    -2.9832840988    -2.2044149322
   58      C       4.1234445271    -1.0441127233     3.4076399836
   59      C       1.0981960978    -2.5454802905    -1.0445349197
   60      C       7.5027082132    -0.9225778013    -1.2079120097
   61      C       1.9684095621    -0.7969049471     2.3439080553
   62      C       7.0230333751    -3.7035536220    -1.0666798104
   63      C       4.7402506574    -1.3008828491    -3.3059362095
   64      C       3.9589294021    -4.8176511117     1.9434570015
   65      C       5.1360163093    -4.2933802792     2.4660749374
   66      C       4.4853680604    -2.6873192803    -3.2633464927
   67      C       5.5061985495    -0.8249319473     3.1759913252
   68      C       7.5210271669    -1.1544462283     1.2435095062
   69      C       3.8710189286    -2.4381005515     3.3726221004
   70      C       5.2990258144     1.5742267944     0.5011756699
   71      C       2.4910554982    -1.6038972684    -2.8747037926
   72      C       7.7733865132    -1.6378409154    -0.0263744794
   73      C       5.4593634715    -3.5674353192    -2.7369391437
   74      C       3.1065398929    -0.2230372988     2.9431519726
   75      C       2.7166367138    -3.9619493377    -2.2317920151
   76      C       1.5847293578     0.0114214624     1.2534517671
   77      C       2.0738559100    -4.4930813762    -0.0837488135
   78      C       3.5098836723    -0.6262186939    -3.0926022933
   79      C       3.1312560484    -2.8872530886    -3.0013138013
   80      C       4.3220861469     1.6072655852    -0.5205906069
   81      C       4.8981162924     1.0934012479     1.7740905723
   82      C       2.6696974499    -4.1406153264     2.1519648406
   83      C       1.4240806971    -1.4481033251    -1.9134837236
   84      C       5.9758428179    -4.6933180819    -0.9169759327
   85      C       5.0631052758    -3.0949154453     3.1814014524
   86      C       4.2405847418    -5.2935595304     0.6261736429
   87      C       3.5452687735     0.8598582882     2.0827153876
   88      C       1.6835718326    -2.2052104787     2.4209859220
   89      O      -3.2418887086    -5.0724922639     0.3103567217
   90      C      -1.9469877064    -4.7166394066     0.7561942913
   91      H      -1.5753316635    -5.4481207749     1.4838403547
   92      H      -1.9490534994    -3.6436850904     0.9856256923
   93      H      -1.1237358328    -4.8298510059     0.0406668730
   94      O      -4.1874611259    -4.5555657998     2.2840192649
   95      C      -4.2716621906    -4.9847331634     1.1652361962
   96      C      -5.5208375437    -5.5860195155     0.5866373196
   97      H      -6.1452607188    -5.8745236967     1.4412495333
   98      H      -5.1857561630    -6.5466617763     0.1741195442
   99      C      -6.2677852512    -4.7700089016    -0.4547203521
  100      H      -5.6315753042    -4.4297880511    -1.2805669941
  101      H      -6.9276873017    -5.4003197028    -1.0634449020
  102      C      -7.1395339325    -3.7061968451     0.3010541812
  103      H      -8.1472074179    -4.0892999853     0.5026853565
  104      H      -6.7568203349    -3.4439011954     1.2957844433
  105      C      -7.3515749144    -2.4534197024    -0.5180563441
  106      C      -8.3664773428    -2.6493508963    -1.5668332642
  107      C      -8.1548122227    -3.3524352334    -2.8190130802
  108      H      -7.1274011816    -3.5858334475    -3.0863215655
  109      C      -9.1504762382    -3.5920227267    -3.7422232412
  110      H      -8.9071354692    -4.1519059746    -4.6411070039
  111      C     -10.4718181064    -3.1233731826    -3.4651433393
  112      H     -11.2680098965    -3.3519123509    -4.1674128616
  113      C     -10.7297639993    -2.3149782319    -2.4054440800
  114      H     -11.7190982974    -1.9910034083    -2.0978486310
  115      C      -9.6789886869    -2.1279583978    -1.3974436711
  116      H      -9.9831563707    -1.4917294513    -0.5707431523
  117      C      -4.5058440960     1.4824490008    -3.1297896117
  118      C      -6.5908432806     2.5735625907    -2.4901134951
  119      C      -4.8677573060     5.2291488212     0.6672478235
  120      C      -2.3086538930    -0.5784619444     1.0078882742
  121      C      -5.8567954166     3.2354303144     3.3543853585
  122      C      -5.8994841068     1.4432361118    -2.9203907822
  123      C      -2.9921637156     0.9717282349     3.1759557848
  124      C      -3.9500277121     4.5868287715    -1.4826282999
  125      C      -8.1212281426     1.0314271153     0.7613222416
  126      C      -3.3583512814    -1.0566266408     1.8859041715
  127      C      -7.2261065306    -1.0785918984     0.1458142715
  128      C      -7.4759830261     0.4947726391     1.8452090959
  129      C      -5.0787671137    -0.2311778676     3.0938999027
  130      C      -3.6723593956     2.1508209267     3.5470787577
  131      C      -7.5368827667     0.8035934420    -1.5284896063
  132      C      -3.9137189435     4.3304054097     2.4927628422
  133      C      -6.0698294802    -1.6104217374    -0.6912038915
  134      C      -4.6537867166    -1.8229068336    -0.0412446810
  135      C      -5.3402270473     4.3384197676     2.6536304898
  136      C      -1.3657589379     2.5668645832    -0.1450003320
  137      C      -2.5432620175     4.4325483113     0.4854064609
  138      C      -2.6960422680     4.2912199900    -0.8947567543
  139      C      -4.4855511868     3.7213913430    -2.4527590466
  140      C      -3.6684378676    -1.3206779478    -0.8525509069
  141      C      -7.9029751876     0.1829894476    -0.3318292445
  142      C      -5.8827466785     3.7314903814    -2.3125172295
  143      C      -3.6965995286    -0.2144550008     2.9661379666
  144      C      -7.6658670437     2.1828888641    -1.6895243694
  145      C      -6.9606090036     1.3536343495     2.8438312362
  146      C      -1.8714958596     0.3569998820    -0.9706801540
  147      C      -5.0583677411     5.0649318541    -0.7552708757
  148      C      -6.8869802094    -0.7339072545     1.4920017898
  149      C      -2.4917176539     2.3599544133    -2.2890173915
  150      C      -5.7839445449     0.9321463029     3.5015230927
  151      C      -8.2095438036     2.4547807841     0.6584160822
  152      C      -2.0157308123     2.8095828747     2.2112013558
  153      C      -1.9303021294     1.3816629147     2.3847885900
  154      C      -7.6629575042     3.3153528617     1.6770848786
  155      C      -2.4698608433    -0.7192230876    -0.3392496622
  156      C      -4.5425480921    -1.5844333717     1.3274679902
  157      C      -1.3479931283     1.1685603843     0.0304953758
  158      C      -5.6808873061    -0.7640982445    -1.8384922295
  159      C      -7.2619423506     4.1791561988    -0.3765751813
  160      C      -5.6064993271    -1.0865776255     2.0765617264
  161      C      -7.0525114499     2.7294578952     2.7781006383
  162      C      -2.4806198709     0.9445709041    -2.0969435481
  163      C      -5.9000940187     4.9632577441     1.5803851882
  164      C      -3.7724476316     2.6582823517    -2.9293611785
  165      C      -3.6643559245     4.8449782109     1.2038548094
  166      C      -8.0100844668     3.0035959051    -0.5915806922
  167      C      -7.0812712471     4.3705561833     1.0089665894
  168      C      -6.4804684464     0.3385680789    -2.2923941786
  169      C      -4.3027370273    -0.6461448231    -1.9541200785
  170      C      -1.7521172040     3.3866044216     0.9646144154
  171      C      -6.2471403246     4.6216589280    -1.2828671776
  172      C      -5.0935780104     2.0927390605     3.7516420627
  173      C      -1.6173527057     0.6217694287     1.2890862818
  174      C      -3.0629823298     3.3343212861     3.0099684424
  175      C      -3.7410642186     0.4433351297    -2.5380328189
  176      C      -1.8905748532     3.2004823544    -1.3101332751
 ----------------------------------------------------------------

    9   -5804.2674559160      8.43E-06 Convergence criterion met
 Total energy in the final basis set = -5804.2674559160

                    Orbital Energies (a.u.)
 --------------------------------------------------------------

 Alpha MOs
 -- Occupied --
-19.203 -19.190 -19.144 -19.129 -10.319 -10.310 -10.246 -10.244
-10.240 -10.240 -10.239 -10.237 -10.236 -10.236 -10.231 -10.230
-10.226 -10.225 -10.225 -10.224 -10.223 -10.223 -10.223 -10.223
-10.222 -10.222 -10.222 -10.222 -10.221 -10.221 -10.221 -10.220
-10.220 -10.220 -10.219 -10.219 -10.218 -10.218 -10.218 -10.218
-10.218 -10.218 -10.218 -10.217 -10.217 -10.217 -10.217 -10.217
-10.217 -10.217 -10.217 -10.217 -10.216 -10.216 -10.216 -10.216
-10.216 -10.216 -10.216 -10.216 -10.216 -10.216 -10.216 -10.215
-10.215 -10.215 -10.215 -10.215 -10.215 -10.215 -10.215 -10.215
-10.214 -10.214 -10.214 -10.214 -10.214 -10.214 -10.213 -10.213
-10.213 -10.213 -10.213 -10.213 -10.213 -10.212 -10.212 -10.212
-10.212 -10.212 -10.212 -10.212 -10.212 -10.212 -10.212 -10.211
-10.211 -10.211 -10.211 -10.211 -10.211 -10.211 -10.210 -10.210
-10.210 -10.210 -10.210 -10.210 -10.210 -10.210 -10.210 -10.209
-10.209 -10.209 -10.209 -10.209 -10.209 -10.209 -10.209 -10.208
-10.208 -10.208 -10.208 -10.207 -10.207 -10.207 -10.206 -10.206
-10.206 -10.205 -10.205 -10.205 -10.205 -10.204 -10.204 -10.202
-10.202 -10.201 -10.199 -10.199 -10.199 -10.198 -10.198 -10.197
-10.197 -10.197 -10.195 -10.186  -1.104  -1.102  -1.029  -1.016
 -0.984  -0.980  -0.968  -0.962  -0.961  -0.960  -0.960  -0.957
 -0.935  -0.931  -0.928  -0.925  -0.923  -0.921  -0.921  -0.919
 -0.919  -0.918  -0.899  -0.894  -0.889  -0.888  -0.884  -0.882
 -0.873  -0.872  -0.853  -0.849  -0.840  -0.839  -0.838  -0.838
 -0.837  -0.833  -0.825  -0.821  -0.812  -0.808  -0.800  -0.798
 -0.795  -0.794  -0.792  -0.791  -0.790  -0.789  -0.783  -0.781
 -0.772  -0.770  -0.767  -0.767  -0.765  -0.765  -0.761  -0.761
 -0.751  -0.749  -0.748  -0.744  -0.737  -0.731  -0.718  -0.715
 -0.714  -0.713  -0.711  -0.710  -0.710  -0.709  -0.708  -0.708
 -0.707  -0.707  -0.705  -0.703  -0.703  -0.700  -0.674  -0.670
 -0.659  -0.658  -0.656  -0.655  -0.648  -0.647  -0.632  -0.632
 -0.629  -0.627  -0.624  -0.624  -0.620  -0.620  -0.618  -0.617
 -0.615  -0.613  -0.613  -0.610  -0.609  -0.609  -0.608  -0.606
 -0.605  -0.604  -0.602  -0.601  -0.573  -0.567  -0.564  -0.563
 -0.561  -0.560  -0.559  -0.557  -0.555  -0.551  -0.551  -0.551
 -0.537  -0.535  -0.533  -0.531  -0.529  -0.527  -0.526  -0.524
 -0.521  -0.521  -0.520  -0.517  -0.515  -0.514  -0.513  -0.512
 -0.510  -0.503  -0.502  -0.500  -0.493  -0.492  -0.489  -0.488
 -0.486  -0.483  -0.481  -0.481  -0.480  -0.478  -0.477  -0.476
 -0.475  -0.472  -0.471  -0.471  -0.468  -0.468  -0.467  -0.465
 -0.464  -0.463  -0.463  -0.461  -0.460  -0.459  -0.458  -0.457
 -0.456  -0.455  -0.453  -0.450  -0.450  -0.446  -0.444  -0.443
 -0.442  -0.441  -0.440  -0.439  -0.436  -0.436  -0.434  -0.432
 -0.431  -0.430  -0.429  -0.428  -0.427  -0.425  -0.425  -0.424
 -0.423  -0.423  -0.421  -0.421  -0.419  -0.418  -0.418  -0.416
 -0.415  -0.415  -0.415  -0.414  -0.413  -0.412  -0.412  -0.411
 -0.410  -0.409  -0.408  -0.407  -0.403  -0.399  -0.399  -0.395
 -0.394  -0.394  -0.392  -0.391  -0.389  -0.387  -0.385  -0.384
 -0.379  -0.375  -0.373  -0.373  -0.371  -0.367  -0.365  -0.364
 -0.362  -0.362  -0.361  -0.361  -0.359  -0.359  -0.359  -0.358
 -0.357  -0.356  -0.355  -0.354  -0.352  -0.352  -0.350  -0.349
 -0.349  -0.348  -0.347  -0.346  -0.345  -0.344  -0.344  -0.342
 -0.341  -0.340  -0.339  -0.338  -0.335  -0.335  -0.333  -0.332
 -0.332  -0.331  -0.329  -0.328  -0.326  -0.325  -0.323  -0.322
 -0.310  -0.307  -0.306  -0.299  -0.289  -0.286  -0.277  -0.274
 -0.270  -0.269  -0.268  -0.266  -0.264  -0.263  -0.263  -0.262
 -0.261  -0.260  -0.258  -0.257  -0.257  -0.255  -0.253  -0.251
 -0.248  -0.247  -0.245  -0.242  -0.225  -0.218  -0.213  -0.209
 -0.208  -0.205  -0.205  -0.203  -0.202  -0.198

          Ground-State Mulliken Net Atomic Charges

     Atom                 Charge (a.u.)
  ----------------------------------------
      1 O                    -0.454930
      2 C                    -0.097811
      3 H                     0.126326
      4 H                     0.116871
      5 H                     0.128708
      6 O                    -0.473130
      7 C                     0.635289
      8 C                    -0.256708
      9 H                     0.115743
     10 H                     0.139739
     11 C                    -0.175015
     12 H                     0.114645
     13 H                     0.096112
     14 C                    -0.190809
     15 H                     0.125231
     16 H                     0.104597
     17 C                     0.008384
     18 C                     0.068582
     19 C                    -0.088630
     20 H                     0.091389
     21 C                    -0.090669
     22 H                     0.087382
     23 C                    -0.085799
     24 H                     0.088317
     25 C                    -0.095037
     26 H                     0.088022
     27 C                    -0.093264
     28 H                     0.095454
     29 C                    -0.024400
     30 C                     0.019645
     31 C                    -0.017270
     32 C                    -0.019077
     33 C                     0.008419
     34 C                    -0.001792
     35 C                     0.009876
     36 C                     0.030397
     37 C                     0.009976
     38 C                    -0.003124
     39 C                    -0.108179
     40 C                     0.026170
     41 C                    -0.014878
     42 C                    -0.000156
     43 C                     0.029932
     44 C                     0.030645
     45 C                    -0.070947
     46 C                     0.027228
     47 C                    -0.013515
     48 C                     0.011484
     49 C                    -0.002348
     50 C                    -0.006896
     51 C                    -0.008523
     52 C                     0.002068
     53 C                     0.016549
     54 C                    -0.013605
     55 C                     0.005584
     56 C                    -0.008794
     57 C                    -0.000987
     58 C                    -0.000127
     59 C                     0.016232
     60 C                     0.036798
     61 C                    -0.000331
     62 C                    -0.018545
     63 C                    -0.010642
     64 C                    -0.020853
     65 C                    -0.003402
     66 C                     0.003149
     67 C                    -0.003688
     68 C                    -0.011901
     69 C                     0.054477
     70 C                     0.006929
     71 C                    -0.008427
     72 C                     0.022038
     73 C                    -0.013216
     74 C                    -0.034955
     75 C                    -0.002636
     76 C                     0.042035
     77 C                    -0.009099
     78 C                    -0.014029
     79 C                     0.011634
     80 C                     0.000707
     81 C                     0.022524
     82 C                     0.000071
     83 C                    -0.026257
     84 C                    -0.002115
     85 C                    -0.015793
     86 C                    -0.018530
     87 C                    -0.006156
     88 C                    -0.030643
     89 O                    -0.455720
     90 C                    -0.093472
     91 H                     0.120491
     92 H                     0.131892
     93 H                     0.117526
     94 O                    -0.472999
     95 C                     0.611553
     96 C                    -0.258036
     97 H                     0.130184
     98 H                     0.119070
     99 C                    -0.186191
    100 H                     0.120109
    101 H                     0.113800
    102 C                    -0.198347
    103 H                     0.116843
    104 H                     0.131480
    105 C                     0.016260
    106 C                     0.104715
    107 C                    -0.113746
    108 H                     0.089362
    109 C                    -0.085003
    110 H                     0.096493
    111 C                    -0.085806
    112 H                     0.088084
    113 C                    -0.080079
    114 H                     0.095663
    115 C                    -0.134731
    116 H                     0.094566
    117 C                    -0.014530
    118 C                     0.020571
    119 C                    -0.003485
    120 C                    -0.012331
    121 C                    -0.025403
    122 C                    -0.015305
    123 C                     0.033569
    124 C                     0.015157
    125 C                    -0.007579
    126 C                    -0.026517
    127 C                    -0.110693
    128 C                     0.011945
    129 C                    -0.009602
    130 C                    -0.015521
    131 C                     0.025224
    132 C                    -0.011517
    133 C                    -0.079306
    134 C                     0.006711
    135 C                     0.031479
    136 C                    -0.015620
    137 C                     0.001151
    138 C                    -0.006471
    139 C                     0.029964
    140 C                    -0.003321
    141 C                     0.010395
    142 C                     0.002866
    143 C                     0.011564
    144 C                    -0.010333
    145 C                     0.005499
    146 C                    -0.000359
    147 C                    -0.002812
    148 C                     0.043497
    149 C                    -0.013009
    150 C                    -0.003004
    151 C                    -0.014001
    152 C                    -0.002305
    153 C                    -0.026582
    154 C                    -0.001686
    155 C                     0.010627
    156 C                     0.053339
    157 C                     0.004619
    158 C                     0.035478
    159 C                     0.014575
    160 C                    -0.019161
    161 C                     0.005949
    162 C                    -0.002422
    163 C                    -0.026829
    164 C                    -0.027875
    165 C                     0.029038
    166 C                    -0.010295
    167 C                     0.002611
    168 C                    -0.005976
    169 C                     0.010584
    170 C                     0.006188
    171 C                    -0.032498
    172 C                    -0.002336
    173 C                     0.025603
    174 C                    -0.021936
    175 C                     0.015388
    176 C                    -0.024654
  ----------------------------------------
  Sum of atomic charges =     0.000000

                    Cartesian Multipole Moments
 -----------------------------------------------------------------
    Charge (ESU x 10^10)
                 0.0000
    Dipole Moment (Debye)
         X      -0.3790      Y       0.4786      Z      -2.1247
       Tot       2.2107
    Quadrupole Moments (Debye-Ang)
        XX    -788.3471     XY      38.1985     YY    -779.2824
        XZ      15.9022     YZ       9.1218     ZZ    -810.2547

 Total job time:  881.94s(wall), 8461.31s(cpu)
        *  Thank you very much for using Q-Chem.  Have a nice day.  *
