 Q-Chem 4.4, Q-Chem, Inc., Pleasanton, CA (2016)
 Q-Chem 4.4.2 for Intel X86 Linux

User input:
--------------------------------------------------------------
$comment
SP
$end

$rem
MEM_STATIC 5000
MEM_TOTAL 20000
JOBTYPE SP
EXCHANGE B3LYP
BASIS 6-31g(d,p)
$end

$molecule
0 1
O           8.597000    -14.764000     -2.045000
C           7.200000    -14.446000     -2.345000
H           6.477000    -14.968000     -1.706000
H           6.965000    -14.788000     -3.361000
H           6.946000    -13.392000     -2.179000
O           8.713000    -13.464000     -0.188000
C           9.210000    -14.203000     -0.987000
C          10.660000    -14.656000     -0.994000
H          10.822000    -15.522000     -1.650000
H          10.826000    -15.026000      0.024000
C          11.586000    -13.489000     -1.486000
H          11.432000    -13.301000     -2.556000
H          11.625000    -12.563000     -0.898000
C          12.975000    -14.113000     -1.511000
H          13.156000    -14.634000     -0.563000
H          12.876000    -14.892000     -2.278000
C          14.059000    -13.117000     -1.938000
C          13.633000    -12.082000     -3.039000
C          13.828000    -10.705000     -2.813000
H          13.954000    -10.263000     -1.828000
C          13.756000     -9.812000     -3.887000
H          13.898000     -8.742000     -3.768000
C          13.474000    -10.262000     -5.175000
H          13.645000     -9.552000     -5.979000
C          13.246000    -11.625000     -5.425000
H          13.111000    -11.931000     -6.459000
C          13.276000    -12.473000     -4.323000
H          13.266000    -13.534000     -4.553000
C          19.135000    -13.227000     -3.986000
C          19.080000    -11.092000     -2.700000
C          21.847000    -12.428000      0.609000
C          17.828000    -17.053000     -0.963000
C          19.236000    -13.160000      2.902000
C          18.411000    -12.093000     -3.480000
C          18.635000    -16.403000      1.628000
C          22.027000    -12.825000     -1.800000
C          16.553000    -11.363000      0.339000
C          16.869000    -16.560000     -0.039000
C          15.221000    -12.825000     -0.991000
C          16.157000    -12.481000      1.162000
C          16.455000    -15.145000      1.694000
C          19.305000    -15.488000      2.437000
C          16.917000    -11.248000     -1.994000
C          21.258000    -14.120000      1.888000
C          15.441000    -13.767000     -2.084000
C          15.849000    -15.173000     -1.793000
C          20.567000    -13.058000      2.391000
C          21.158000    -16.249000     -1.512000
C          22.192000    -14.738000     -0.254000
C          22.245000    -14.260000     -1.570000
C          21.164000    -12.368000     -2.872000
C          16.812000    -15.602000     -2.667000
C          16.094000    -11.591000     -0.955000
C          20.472000    -11.219000     -2.428000
C          17.264000    -16.257000      1.281000
C          18.143000    -10.580000     -1.779000
C          17.026000    -12.909000      2.182000
C          19.064000    -16.523000     -2.752000
C          21.820000    -11.975000     -0.702000
C          15.426000    -13.372000      0.405000
C          20.700000    -14.755000     -3.386000
C          17.242000    -14.232000      2.410000
C          17.790000    -10.738000      0.569000
C          20.805000    -16.259000      0.916000
C          19.597000    -16.944000      0.714000
C          18.594000    -11.177000      1.552000
C          17.756000    -16.618000     -2.286000
C          15.935000    -15.603000     -0.504000
C          19.954000    -16.857000     -1.727000
C          16.417000    -13.443000     -3.177000
C          19.944000    -10.535000     -0.157000
C          15.717000    -14.736000      0.606000
C          18.235000    -12.226000      2.461000
C          19.472000    -15.436000     -3.601000
C          20.919000    -12.013000      1.516000
C          20.497000    -13.415000     -3.602000
C          22.063000    -13.764000      0.822000
C          18.583000    -10.302000     -0.491000
C          19.931000    -11.086000      1.138000
C          17.152000    -12.219000     -2.984000
C          17.169000    -14.558000     -3.504000
C          21.592000    -15.938000     -0.203000
C          20.861000    -11.051000     -1.105000
C          18.576000    -14.404000      2.835000
C          19.131000    -17.276000     -0.615000
C          20.580000    -15.351000      1.958000
C          18.499000    -14.472000     -3.980000
C          21.540000    -15.174000     -2.344000
O          20.553000    -16.100000      7.325000
C          19.857000    -15.001000      8.000000
H          20.681000    -14.478000      8.500000
H          19.153000    -15.301000      8.785000
H          19.421000    -14.246000      7.334000
O          21.680000    -14.896000      5.702000
C          21.405000    -15.942000      6.318000
C          21.969000    -17.237000      5.826000
H          22.037000    -17.950000      6.657000
H          22.981000    -17.054000      5.444000
C          21.010000    -17.878000      4.779000
H          19.955000    -17.628000      4.946000
H          21.235000    -17.496000      3.776000
C          21.077000    -19.432000      4.963000
H          22.086000    -19.839000      5.108000
H          20.462000    -19.706000      5.830000
C          20.425000    -20.163000      3.708000
C          18.951000    -20.268000      3.852000
C          18.158000    -19.317000      3.254000
H          18.658000    -18.585000      2.628000
C          16.807000    -19.160000      3.697000
H          16.119000    -18.448000      3.247000
C          16.267000    -20.066000      4.629000
H          15.278000    -20.021000      5.076000
C          17.064000    -21.169000      5.062000
H          16.646000    -21.945000      5.696000
C          18.392000    -21.275000      4.694000
H          19.048000    -21.986000      5.188000
C          20.874000    -24.919000      0.781000
C          19.990000    -23.366000     -0.874000
C          23.769000    -22.935000     -3.411000
C          25.108000    -22.993000      2.899000
C          24.779000    -19.891000     -1.831000
C          20.088000    -23.809000      0.440000
C          26.419000    -21.362000      1.026000
C          22.756000    -24.879000     -2.346000
C          21.176000    -19.529000      0.043000
C          24.994000    -21.577000      2.980000
C          21.132000    -20.081000      2.375000
C          22.351000    -19.058000      0.654000
C          24.807000    -19.711000      1.663000
C          26.314000    -20.926000     -0.352000
C          19.949000    -21.533000      0.498000
C          25.632000    -22.090000     -2.374000
C          21.256000    -21.363000      3.125000
C          22.620000    -21.818000      3.585000
C          24.822000    -20.996000     -2.685000
C          25.224000    -25.161000      0.086000
C          25.137000    -24.410000     -2.098000
C          24.014000    -25.208000     -1.836000
C          21.592000    -25.014000     -1.628000
C          22.785000    -23.223000      3.397000
C          20.438000    -20.285000      0.978000
C          20.742000    -23.953000     -1.949000
C          25.651000    -20.735000      2.034000
C          19.892000    -21.959000     -0.845000
C          23.500000    -18.895000     -0.200000
C          24.073000    -24.907000      2.164000
C          22.653000    -23.739000     -3.122000
C          22.431000    -19.369000      1.990000
C          22.905000    -25.873000      0.285000
C          24.700000    -19.250000      0.375000
C          21.174000    -19.976000     -1.337000
C          26.611000    -23.178000     -0.463000
C          26.576000    -22.772000      0.942000
C          22.344000    -19.875000     -2.114000
C          23.981000    -23.849000      3.056000
C          23.752000    -21.025000      3.266000
C          25.258000    -24.703000      1.423000
C          20.775000    -22.652000      2.556000
C          21.273000    -21.741000     -2.799000
C          23.695000    -19.786000      2.509000
C          23.529000    -19.295000     -1.546000
C          22.912000    -25.449000      1.645000
C          23.643000    -21.535000     -3.279000
C          21.679000    -25.430000     -0.255000
C          25.033000    -23.306000     -2.905000
C          20.522000    -21.143000     -1.801000
C          22.392000    -20.924000     -3.010000
C          20.091000    -22.686000      1.294000
C          21.626000    -23.746000      2.816000
C          25.923000    -24.374000     -0.826000
C          21.378000    -23.144000     -2.885000
C          25.504000    -19.830000     -0.636000
C          25.848000    -23.543000      1.872000
C          26.345000    -22.044000     -1.171000
C          21.707000    -24.810000      1.898000
C          24.077000    -25.779000     -0.502000
$end

--------------------------------------------------------------

             Standard Nuclear Orientation (Angstroms)
    I     Atom           X                Y                Z
 ----------------------------------------------------------------
    1      O       9.5059310578     5.9956014831     3.4583073266
    2      C      10.6741990340     6.7760419452     3.8691547688
    3      H      10.6377144828     7.1181172259     4.9108780430
    4      H      10.7134960201     7.7000834944     3.2783519572
    5      H      11.6122089400     6.2084357650     3.8383547599
    6      O      10.1457798951     4.0905625973     4.5134496436
    7      C       9.3886145601     4.7052443007     3.8203421057
    8      C       8.1298722056     4.1522424705     3.1741883618
    9      H       7.4660714799     4.9475245692     2.8089063065
   10      H       7.5917162159     3.6814662550     4.0045725413
   11      C       8.5074508475     3.2333494338     1.9598988757
   12      H       8.9072151189     3.8337678237     1.1330698218
   13      H       9.1002458943     2.3287958275     2.1472963303
   14      C       7.1596846136     2.8251311429     1.3800661362
   15      H       6.5075290654     2.4746918982     2.1892580026
   16      H       6.7433444219     3.7821160606     1.0398137121
   17      C       7.2976910578     1.8786567856     0.1823426655
   18      C       8.5185768321     2.1570938861    -0.7646592919
   19      C       9.4102696415     1.1118086252    -1.0768974333
   20      H       9.5205037419     0.2092191164    -0.4813761307
   21      C      10.2956589591     1.2568456652    -2.1498182195
   22      H      11.0029971125     0.4829557981    -2.4326471614
   23      C      10.3229181015     2.4288453085    -2.9025743389
   24      H      10.8754169999     2.3858216590    -3.8367322124
   25      C       9.4662826567     3.4986267222    -2.5959859475
   26      H       9.4725760732     4.3555018873    -3.2643738172
   27      C       8.6374823979     3.3348302345    -1.4911471169
   28      H       7.8702526392     4.0933143348    -1.3695684710
   29      C       4.3164231475     0.2597486852    -4.1145583351
   30      C       5.7850054306    -1.7031424836    -3.6613802938
   31      C       2.5288295892    -4.4173183260    -2.1053486788
   32      C       1.7775617995     1.4722642102     0.0769859098
   33      C       3.2772077081    -3.8461143151     1.3187789720
   34      C       5.5612221084    -0.2862170658    -3.6470490349
   35      C       1.3771431718    -0.8722734470     1.5363823933
   36      C       2.4720002034    -2.8853858882    -4.0140769012
   37      C       6.7202013628    -1.8826971593     0.1841183328
   38      C       2.6203022032     1.1900170985     1.1845197377
   39      C       6.6457135218     0.4988608004     0.2406978857
   40      C       5.9961959660    -1.4852782689     1.3681552456
   41      C       3.7005941128    -0.4097136902     2.3889867541
   42      C       1.5304957584    -2.2564783493     1.5690285687
   43      C       6.9257726851    -0.7979048298    -1.9062347554
   44      C       1.4216144218    -3.8411757844    -0.2921304502
   45      C       5.9525781548     1.5600058794    -0.4831442826
   46      C       4.5812927975     1.9796960650    -0.0691181762
   47      C       2.5912201868    -4.3620864253     0.1758529454
   48      C       0.3704423130    -0.5634080118    -2.3546329656
   49      C       0.6809918026    -2.7628399189    -2.3246446315
   50      C       1.2076070936    -2.3056467737    -3.5398811365
   51      C       3.5242183373    -2.0391203662    -4.5427295896
   52      C       3.7773050073     2.1932375504    -1.1569093636
   53      C       7.0290581885    -0.7364491912    -0.5423966751
   54      C       4.7694870329    -2.5758715960    -4.1459866086
   55      C       2.4050546484     0.0211350171     1.9445310336
   56      C       6.6287779836    -2.0071885454    -2.5732820119
   57      C       4.9700213172    -2.3215898925     1.8438583657
   58      C       1.6678392005     1.5043653443    -2.1581980801
   59      C       3.0861418071    -3.9031369776    -3.2671058104
   60      C       5.8918551053    -0.1107907698     1.4026240670
   61      C       2.0761865510    -0.0846322414    -4.0323952719
   62      C       3.7924618271    -1.8048889115     2.2858343192
   63      C       6.3812917572    -3.0818592647    -0.4646069746
   64      C       0.2237169371    -1.7709833046    -0.2238756880
   65      C       0.4944737778    -0.5695459283     0.4488292727
   66      C       5.3932680764    -3.8533975622     0.0190911356
   67      C       2.3513506056     2.0294208574    -1.0654154542
   68      C       4.0075444203     1.4314842566     1.0372694650
   69      C       0.6992383305     0.5984130664    -1.7162209033
   70      C       5.7463380235     1.4544028689    -1.9658829691
   71      C       5.2849681225    -3.9977742585    -2.2442628998
   72      C       4.6397815174     0.4030617139     1.7948553194
   73      C       4.6856356659    -3.5672494161     1.2327379582
   74      C       2.3645453266     1.1333679022    -3.3606104352
   75      C       3.2951568587    -4.6617278221    -1.0057739818
   76      C       3.2566986258    -0.6255991735    -4.4764797453
   77      C       1.3436076755    -3.8843021535    -1.6716854740
   78      C       6.3708720547    -3.1683490593    -1.8556339136
   79      C       4.6806640759    -4.4228160392    -1.0463684537
   80      C       6.1857433890     0.2117035945    -2.5474940403
   81      C       4.4716624922     1.8692271661    -2.3105292984
   82      C       0.1383178088    -1.7526447528    -1.6263526705
   83      C       4.4547929130    -3.6643490983    -3.3422090661
   84      C       2.7564758582    -2.7075766047     1.9670036417
   85      C       0.7337805651     0.6617093496    -0.2725331204
   86      C       0.9017208302    -2.7797747177     0.4714685474
   87      C       3.7689080145     1.3427812743    -3.4204224766
   88      C       1.0718833273    -0.9225737351    -3.5262785975
   89      O      -0.4513411972    -5.4517317994     4.9876934647
   90      C       0.7239573835    -6.0915169990     5.5853473316
   91      H       0.5277346544    -7.1544082184     5.4002422362
   92      H       0.8227512587    -5.9746957295     6.6709041294
   93      H       1.6731416309    -5.8972949711     5.0705618730
   94      O      -0.0038636285    -5.8476971799     2.7523301289
   95      C      -0.7185470660    -5.4403218241     3.6863911032
   96      C      -1.9870605666    -4.7179562272     3.3604364389
   97      H      -2.6966654535    -4.8242780184     4.1903223234
   98      H      -2.4293270065    -5.1755782612     2.4668260819
   99      C      -1.7139828584    -3.1913468812     3.2132512827
  100      H      -0.8828704321    -2.8368052081     3.8353174664
  101      H      -1.4156290371    -2.9577795366     2.1841792285
  102      C      -2.9668498318    -2.4298800140     3.7643897018
  103      H      -3.9349703010    -2.8483976573     3.4605135108
  104      H      -2.9166354889    -2.4263717374     4.8609553459
  105      C      -2.9250009309    -0.9035867141     3.3136487208
  106      C      -2.0963779605    -0.0912299165     4.2398762340
  107      C      -0.7828479149     0.1512901946     3.9132620657
  108      H      -0.4477097563    -0.1945405125     2.9407480367
  109      C       0.1230878911     0.5670867685     4.9391726488
  110      H       1.1663437612     0.8033994925     4.7428018619
  111      C      -0.3648931956     0.8589524904     6.2267086131
  112      H       0.2267673062     1.1327055096     7.0955884294
  113      C      -1.7720860658     0.7988838885     6.4623078261
  114      H      -2.1936550798     1.1192772641     7.4101916013
  115      C      -2.6358570069     0.3227063209     5.4941143095
  116      H      -3.6647181672     0.0783234380     5.7423374335
  117      C      -6.3931810993     3.3203303314     2.0812863097
  118      C      -4.4063662968     3.8785088562     0.7877277779
  119      C      -6.0845095595     2.9633290169    -3.3654941101
  120      C      -7.9138803384    -1.4344055914     0.9848757441
  121      C      -4.6396208322    -0.3042234802    -3.4990352810
  122      C      -5.0013096492     3.3165306212     1.9114145096
  123      C      -7.2201357324    -2.0381587019    -1.6686523984
  124      C      -7.0841738624     4.0512166577    -1.4272728218
  125      C      -2.3699524417     0.4346050516    -0.1933936190
  126      C      -6.7759200974    -2.2430065121     0.7095140896
  127      C      -3.1099997168    -0.5759410872     1.8501304283
  128      C      -2.8437735948    -0.8613856125    -0.4611410995
  129      C      -5.0409424595    -2.4589764099    -0.7719121149
  130      C      -6.6165675462    -1.4308769628    -2.8378056535
  131      C      -3.1893680579     2.0337979423     1.3876535487
  132      C      -6.7711600130     0.8114778903    -3.7632514282
  133      C      -4.2760874610    -0.3349062403     2.7465352339
  134      C      -5.5516862807    -1.1098727612     2.5198293838
  135      C      -5.3807984280     0.8131430051    -3.8918939184
  136      C      -9.2185112326     1.4020642425    -0.7118935717
  137      C      -8.2663519612     2.2845748197    -2.6239588956
  138      C      -8.2044100113     3.2336849114    -1.5934589059
  139      C      -6.5595296991     4.3713476672    -0.1980821781
  140      C      -6.6975041762    -0.2742913140     2.6795134327
  141      C      -2.6192458255     0.7493765183     1.1590769842
  142      C      -5.1675649322     4.4207419288    -0.3041778647
  143      C      -6.4084021095    -2.5556614672    -0.6331349367
  144      C      -3.2776042491     3.0963647687     0.4648642370
  145      C      -3.3173672955    -1.1101870127    -1.7990098785
  146      C      -8.6085731065     0.6962397740     1.4874673132
  147      C      -6.0355762636     3.8962571989    -2.3154257601
  148      C      -3.3301372749    -1.5029766086     0.6523347038
  149      C      -8.3270809546     3.0151382444     0.8779650145
  150      C      -4.4304905350    -1.9175353824    -1.8751365080
  151      C      -2.5033659274     1.4998062166    -1.1689756606
  152      C      -8.5020285726    -0.2207900123    -2.4469600446
  153      C      -8.3802117042    -1.2556683638    -1.4201818562
  154      C      -3.0488898449     1.2304549351    -2.4388904383
  155      C      -7.8779262618    -0.3880739674     1.9499723388
  156      C      -5.6146191174    -2.0279838125     1.4404103013
  157      C      -9.0905050210     0.3373509244     0.2092410330
  158      C      -4.8692101371     1.0207087653     2.9113273683
  159      C      -3.6917737691     3.3243857746    -1.8908248405
  160      C      -4.5225011273    -2.2778111414     0.5150543690
  161      C      -3.4396228238    -0.1097545825    -2.7771435803
  162      C      -8.2113532472     1.9721641324     1.8414156356
  163      C      -4.9587602141     2.1411713783    -3.5892020191
  164      C      -7.1357681281     3.7655053430     0.9709594598
  165      C      -7.2399129467     2.1692277930    -3.5261778341
  166      C      -2.9113558848     2.8199918224    -0.8641098524
  167      C      -3.7443262333     2.3367702075    -2.8838126200
  168      C      -4.2754512670     2.1626077104     2.2747951984
  169      C      -6.2778404587     1.0255072871     2.9774680612
  170      C      -8.9244357235     1.0779114655    -2.0340730497
  171      C      -4.8134124472     4.1334116251    -1.6183659463
  172      C      -5.2287069580    -1.4460954976    -2.9454317836
  173      C      -8.6464900750    -0.9349004715    -0.0727662601
  174      C      -7.3652874828    -0.3195034983    -3.1926485468
  175      C      -7.0022403219     2.1346867813     2.5017089964
  176      C      -8.8777061103     2.7545586320    -0.3990233189
 ----------------------------------------------------------------

    9   -5804.2485601379      8.97E-06 Convergence criterion met
 Total energy in the final basis set = -5804.2485601379

                    Orbital Energies (a.u.)
 --------------------------------------------------------------

 Alpha MOs
 -- Occupied --
-19.201 -19.194 -19.134 -19.124 -10.313 -10.312 -10.255 -10.247
-10.244 -10.244 -10.242 -10.238 -10.236 -10.232 -10.228 -10.227
-10.227 -10.226 -10.225 -10.225 -10.224 -10.223 -10.223 -10.222
-10.222 -10.221 -10.221 -10.221 -10.220 -10.220 -10.220 -10.219
-10.219 -10.219 -10.219 -10.219 -10.219 -10.219 -10.218 -10.218
-10.218 -10.218 -10.218 -10.218 -10.218 -10.218 -10.217 -10.217
-10.216 -10.216 -10.216 -10.216 -10.216 -10.216 -10.216 -10.216
-10.215 -10.215 -10.215 -10.215 -10.215 -10.215 -10.214 -10.214
-10.214 -10.214 -10.214 -10.214 -10.214 -10.214 -10.214 -10.214
-10.214 -10.214 -10.213 -10.213 -10.213 -10.213 -10.213 -10.213
-10.213 -10.213 -10.212 -10.211 -10.211 -10.211 -10.211 -10.211
-10.211 -10.211 -10.211 -10.211 -10.210 -10.210 -10.210 -10.210
-10.210 -10.210 -10.210 -10.210 -10.210 -10.210 -10.210 -10.210
-10.210 -10.209 -10.209 -10.209 -10.209 -10.209 -10.209 -10.209
-10.209 -10.209 -10.209 -10.208 -10.208 -10.208 -10.208 -10.208
-10.207 -10.207 -10.207 -10.207 -10.207 -10.207 -10.206 -10.206
-10.206 -10.206 -10.205 -10.205 -10.205 -10.204 -10.203 -10.202
-10.202 -10.202 -10.200 -10.200 -10.199 -10.199 -10.198 -10.197
-10.197 -10.197 -10.196 -10.194  -1.098  -1.095  -1.017  -0.996
 -0.984  -0.977  -0.969  -0.963  -0.960  -0.960  -0.958  -0.954
 -0.937  -0.928  -0.927  -0.926  -0.924  -0.923  -0.922  -0.920
 -0.917  -0.912  -0.899  -0.893  -0.891  -0.887  -0.886  -0.878
 -0.875  -0.870  -0.859  -0.849  -0.843  -0.840  -0.837  -0.834
 -0.834  -0.833  -0.823  -0.817  -0.809  -0.802  -0.799  -0.797
 -0.796  -0.793  -0.792  -0.791  -0.790  -0.786  -0.781  -0.778
 -0.774  -0.769  -0.767  -0.765  -0.764  -0.763  -0.762  -0.761
 -0.755  -0.748  -0.748  -0.745  -0.734  -0.733  -0.717  -0.716
 -0.713  -0.712  -0.711  -0.711  -0.709  -0.709  -0.708  -0.707
 -0.705  -0.703  -0.702  -0.701  -0.701  -0.697  -0.671  -0.669
 -0.660  -0.656  -0.655  -0.652  -0.645  -0.645  -0.632  -0.628
 -0.627  -0.624  -0.624  -0.623  -0.620  -0.618  -0.617  -0.615
 -0.615  -0.614  -0.613  -0.611  -0.609  -0.609  -0.607  -0.606
 -0.604  -0.603  -0.601  -0.598  -0.573  -0.571  -0.566  -0.563
 -0.562  -0.558  -0.557  -0.556  -0.554  -0.553  -0.553  -0.548
 -0.536  -0.534  -0.532  -0.531  -0.529  -0.526  -0.525  -0.524
 -0.522  -0.520  -0.519  -0.517  -0.514  -0.513  -0.513  -0.511
 -0.509  -0.501  -0.499  -0.496  -0.491  -0.488  -0.486  -0.485
 -0.484  -0.481  -0.481  -0.478  -0.477  -0.476  -0.474  -0.473
 -0.473  -0.471  -0.470  -0.469  -0.467  -0.466  -0.465  -0.464
 -0.464  -0.464  -0.462  -0.461  -0.460  -0.459  -0.458  -0.456
 -0.456  -0.454  -0.451  -0.450  -0.449  -0.447  -0.445  -0.443
 -0.441  -0.441  -0.439  -0.438  -0.436  -0.434  -0.434  -0.431
 -0.430  -0.429  -0.427  -0.425  -0.424  -0.423  -0.423  -0.423
 -0.421  -0.421  -0.421  -0.419  -0.418  -0.418  -0.417  -0.416
 -0.416  -0.415  -0.414  -0.414  -0.413  -0.412  -0.411  -0.409
 -0.408  -0.407  -0.407  -0.406  -0.400  -0.398  -0.398  -0.395
 -0.393  -0.392  -0.392  -0.390  -0.387  -0.386  -0.383  -0.382
 -0.382  -0.376  -0.375  -0.372  -0.368  -0.367  -0.365  -0.365
 -0.364  -0.362  -0.361  -0.360  -0.359  -0.358  -0.357  -0.357
 -0.356  -0.355  -0.354  -0.353  -0.352  -0.352  -0.351  -0.349
 -0.349  -0.348  -0.347  -0.346  -0.345  -0.345  -0.344  -0.342
 -0.341  -0.340  -0.340  -0.338  -0.335  -0.334  -0.334  -0.332
 -0.330  -0.330  -0.329  -0.327  -0.326  -0.325  -0.323  -0.321
 -0.307  -0.305  -0.301  -0.295  -0.288  -0.286  -0.273  -0.271
 -0.270  -0.268  -0.266  -0.265  -0.264  -0.263  -0.262  -0.261
 -0.260  -0.259  -0.258  -0.257  -0.256  -0.255  -0.254  -0.253
 -0.251  -0.245  -0.245  -0.237  -0.224  -0.219  -0.214  -0.211
 -0.208  -0.207  -0.206  -0.202  -0.197  -0.192

          Ground-State Mulliken Net Atomic Charges

     Atom                 Charge (a.u.)
  ----------------------------------------
      1 O                    -0.453104
      2 C                    -0.098107
      3 H                     0.124696
      4 H                     0.125214
      5 H                     0.136900
      6 O                    -0.463626
      7 C                     0.578741
      8 C                    -0.250397
      9 H                     0.121320
     10 H                     0.128180
     11 C                    -0.180236
     12 H                     0.122251
     13 H                     0.123163
     14 C                    -0.195695
     15 H                     0.112629
     16 H                     0.105861
     17 C                     0.020061
     18 C                     0.078369
     19 C                    -0.121917
     20 H                     0.098614
     21 C                    -0.082593
     22 H                     0.092275
     23 C                    -0.085617
     24 H                     0.089047
     25 C                    -0.081887
     26 H                     0.100283
     27 C                    -0.116110
     28 H                     0.087351
     29 C                    -0.029323
     30 C                    -0.003570
     31 C                     0.008487
     32 C                     0.001390
     33 C                    -0.011735
     34 C                    -0.001209
     35 C                    -0.029810
     36 C                    -0.021588
     37 C                    -0.011149
     38 C                    -0.018304
     39 C                    -0.080013
     40 C                     0.005751
     41 C                    -0.060130
     42 C                     0.011632
     43 C                     0.012471
     44 C                     0.009693
     45 C                    -0.080241
     46 C                     0.040843
     47 C                     0.013639
     48 C                     0.013026
     49 C                    -0.000072
     50 C                    -0.024406
     51 C                    -0.014916
     52 C                     0.008368
     53 C                     0.016126
     54 C                    -0.010678
     55 C                    -0.002528
     56 C                    -0.011999
     57 C                     0.000216
     58 C                    -0.013052
     59 C                     0.026673
     60 C                     0.018114
     61 C                     0.021984
     62 C                     0.041101
     63 C                     0.026061
     64 C                    -0.005271
     65 C                    -0.011257
     66 C                     0.019020
     67 C                    -0.001739
     68 C                     0.019316
     69 C                     0.013594
     70 C                     0.008223
     71 C                    -0.013553
     72 C                     0.015366
     73 C                    -0.033369
     74 C                    -0.023216
     75 C                     0.006022
     76 C                     0.018873
     77 C                     0.003958
     78 C                    -0.025958
     79 C                    -0.010400
     80 C                     0.035229
     81 C                     0.020884
     82 C                     0.034847
     83 C                     0.009297
     84 C                    -0.001358
     85 C                     0.000186
     86 C                     0.002936
     87 C                    -0.010689
     88 C                    -0.007845
     89 O                    -0.452537
     90 C                    -0.096375
     91 H                     0.132758
     92 H                     0.134975
     93 H                     0.142786
     94 O                    -0.498064
     95 C                     0.580092
     96 C                    -0.234133
     97 H                     0.114024
     98 H                     0.135638
     99 C                    -0.189529
    100 H                     0.123723
    101 H                     0.125514
    102 C                    -0.195668
    103 H                     0.112725
    104 H                     0.120958
    105 C                    -0.020008
    106 C                     0.095098
    107 C                    -0.091758
    108 H                     0.091734
    109 C                    -0.118561
    110 H                     0.095104
    111 C                    -0.077527
    112 H                     0.091945
    113 C                    -0.095118
    114 H                     0.088807
    115 C                    -0.095624
    116 H                     0.090679
    117 C                    -0.041598
    118 C                     0.015099
    119 C                     0.008414
    120 C                    -0.022390
    121 C                     0.000424
    122 C                    -0.007793
    123 C                    -0.018284
    124 C                     0.024079
    125 C                    -0.010187
    126 C                    -0.006308
    127 C                    -0.087657
    128 C                     0.029898
    129 C                     0.040137
    130 C                    -0.001650
    131 C                     0.023127
    132 C                    -0.012686
    133 C                    -0.072995
    134 C                     0.018784
    135 C                     0.013599
    136 C                     0.011605
    137 C                     0.010652
    138 C                    -0.001760
    139 C                    -0.001571
    140 C                    -0.005189
    141 C                     0.019315
    142 C                    -0.017072
    143 C                    -0.003314
    144 C                    -0.021813
    145 C                    -0.008254
    146 C                     0.004334
    147 C                    -0.006785
    148 C                     0.039285
    149 C                    -0.013017
    150 C                     0.021943
    151 C                     0.010737
    152 C                    -0.034104
    153 C                    -0.035742
    154 C                     0.005468
    155 C                    -0.006945
    156 C                     0.009886
    157 C                     0.006173
    158 C                     0.024651
    159 C                     0.004654
    160 C                    -0.054391
    161 C                    -0.014861
    162 C                    -0.008149
    163 C                    -0.002346
    164 C                     0.015878
    165 C                    -0.032391
    166 C                    -0.016610
    167 C                    -0.012853
    168 C                     0.000264
    169 C                    -0.004580
    170 C                    -0.008969
    171 C                     0.006346
    172 C                    -0.028542
    173 C                     0.032616
    174 C                     0.066994
    175 C                     0.034152
    176 C                    -0.018982
  ----------------------------------------
  Sum of atomic charges =     0.000000

                    Cartesian Multipole Moments
 -----------------------------------------------------------------
    Charge (ESU x 10^10)
                 0.0000
    Dipole Moment (Debye)
         X       3.7024      Y       1.6146      Z       2.9786
       Tot       5.0187
    Quadrupole Moments (Debye-Ang)
        XX    -799.5835     XY      27.6641     YY    -789.8754
        XZ     -21.1046     YZ     -15.0519     ZZ    -786.9682

 Total job time:  886.19s(wall), 8439.05s(cpu)
        *  Thank you very much for using Q-Chem.  Have a nice day.  *
