 Q-Chem 4.4, Q-Chem, Inc., Pleasanton, CA (2016)
 Q-Chem 4.4.2 for Intel X86 Linux

User input:
--------------------------------------------------------------
$comment
SP
$end

$rem
MEM_STATIC 5000
MEM_TOTAL 20000
JOBTYPE SP
EXCHANGE B3LYP
BASIS 6-31g(d,p)
$end

$molecule
0 1
O          20.409000    -21.732000     -6.014000
C          19.182000    -22.279000     -5.539000
H          18.531000    -21.400000     -5.455000
H          19.217000    -22.818000     -4.584000
H          18.748000    -22.981000     -6.261000
O          21.301000    -23.838000     -6.429000
C          21.427000    -22.579000     -6.400000
C          22.725000    -21.835000     -6.967000
H          23.413000    -22.676000     -7.118000
H          23.140000    -21.250000     -6.136000
C          22.606000    -20.924000     -8.241000
H          22.350000    -21.616000     -9.053000
H          21.738000    -20.254000     -8.286000
C          23.906000    -20.216000     -8.699000
H          24.622000    -20.999000     -8.980000
H          23.751000    -19.769000     -9.688000
C          24.487000    -19.252000     -7.693000
C          23.497000    -18.212000     -7.109000
C          23.086000    -18.219000     -5.750000
H          23.475000    -19.028000     -5.139000
C          22.322000    -17.173000     -5.230000
H          22.310000    -17.059000     -4.150000
C          21.872000    -16.151000     -6.092000
H          21.217000    -15.366000     -5.726000
C          22.191000    -16.161000     -7.465000
H          21.725000    -15.512000     -8.200000
C          22.961000    -17.218000     -7.997000
H          23.127000    -17.261000     -9.070000
C          28.168000    -15.316000     -6.991000
C          27.900000    -16.200000     -4.772000
C          31.989000    -18.307000     -4.449000
C          29.310000    -19.022000    -10.164000
C          30.682000    -21.407000     -5.271000
C          27.357000    -15.852000     -6.016000
C          30.827000    -20.957000     -8.783000
C          31.325000    -16.103000     -5.369000
C          26.934000    -20.149000     -4.870000
C          28.688000    -20.236000     -9.803000
C          25.696000    -19.679000     -6.848000
C          27.233000    -21.174000     -5.723000
C          28.589000    -21.763000     -8.038000
C          31.394000    -21.355000     -7.602000
C          26.358000    -17.836000     -5.278000
C          32.451000    -19.938000     -5.980000
C          25.859000    -18.669000     -7.962000
C          26.775000    -18.933000     -9.109000
C          31.649000    -20.469000     -4.973000
C          31.795000    -17.111000     -8.684000
C          32.746000    -17.603000     -6.696000
C          32.057000    -16.379000     -6.550000
C          30.087000    -15.486000     -5.472000
C          27.385000    -17.741000     -9.470000
C          26.042000    -19.230000     -5.431000
C          29.217000    -15.972000     -4.480000
C          29.452000    -21.226000     -9.036000
C          27.266000    -17.420000     -4.327000
C          28.552000    -21.740000     -5.720000
C          29.660000    -16.832000     -9.716000
C          31.294000    -17.077000     -4.328000
C          26.585000    -20.891000     -6.929000
C          30.318000    -15.339000     -7.913000
C          29.203000    -22.123000     -6.862000
C          27.782000    -19.790000     -3.845000
C          32.434000    -19.431000     -8.376000
C          31.434000    -19.822000     -9.296000
C          29.075000    -20.366000     -3.793000
C          28.690000    -17.806000     -9.969000
C          27.452000    -20.150000     -9.153000
C          30.845000    -17.463000     -9.674000
C          26.144000    -17.225000     -7.634000
C          29.346000    -18.138000     -3.324000
C          27.331000    -21.115000     -8.123000
C          29.432000    -21.307000     -4.762000
C          29.327000    -15.744000     -8.869000
C          31.292000    -19.459000     -4.031000
C          29.538000    -15.121000     -6.730000
C          32.624000    -18.553000     -5.654000
C          27.940000    -18.401000     -3.554000
C          29.996000    -19.398000     -3.443000
C          26.405000    -16.866000     -6.288000
C          27.063000    -16.734000     -8.601000
C          32.619000    -18.036000     -8.029000
C          29.953000    -16.968000     -3.824000
C          30.536000    -21.862000     -6.604000
C          30.672000    -18.850000    -10.018000
C          32.369000    -20.380000     -7.331000
C          28.084000    -15.783000     -8.265000
C          31.550000    -16.061000     -7.776000
O          20.553000    -16.100000      7.325000
C          19.857000    -15.001000      8.000000
H          20.681000    -14.478000      8.500000
H          19.153000    -15.301000      8.785000
H          19.421000    -14.246000      7.334000
O          21.680000    -14.896000      5.702000
C          21.405000    -15.942000      6.318000
C          21.969000    -17.237000      5.826000
H          22.037000    -17.950000      6.657000
H          22.981000    -17.054000      5.444000
C          21.010000    -17.878000      4.779000
H          19.955000    -17.628000      4.946000
H          21.235000    -17.496000      3.776000
C          21.077000    -19.432000      4.963000
H          22.086000    -19.839000      5.108000
H          20.462000    -19.706000      5.830000
C          20.425000    -20.163000      3.708000
C          18.951000    -20.268000      3.852000
C          18.158000    -19.317000      3.254000
H          18.658000    -18.585000      2.628000
C          16.807000    -19.160000      3.697000
H          16.119000    -18.448000      3.247000
C          16.267000    -20.066000      4.629000
H          15.278000    -20.021000      5.076000
C          17.064000    -21.169000      5.062000
H          16.646000    -21.945000      5.696000
C          18.392000    -21.275000      4.694000
H          19.048000    -21.986000      5.188000
C          20.874000    -24.919000      0.781000
C          19.990000    -23.366000     -0.874000
C          23.769000    -22.935000     -3.411000
C          25.108000    -22.993000      2.899000
C          24.779000    -19.891000     -1.831000
C          20.088000    -23.809000      0.440000
C          26.419000    -21.362000      1.026000
C          22.756000    -24.879000     -2.346000
C          21.176000    -19.529000      0.043000
C          24.994000    -21.577000      2.980000
C          21.132000    -20.081000      2.375000
C          22.351000    -19.058000      0.654000
C          24.807000    -19.711000      1.663000
C          26.314000    -20.926000     -0.352000
C          19.949000    -21.533000      0.498000
C          25.632000    -22.090000     -2.374000
C          21.256000    -21.363000      3.125000
C          22.620000    -21.818000      3.585000
C          24.822000    -20.996000     -2.685000
C          25.224000    -25.161000      0.086000
C          25.137000    -24.410000     -2.098000
C          24.014000    -25.208000     -1.836000
C          21.592000    -25.014000     -1.628000
C          22.785000    -23.223000      3.397000
C          20.438000    -20.285000      0.978000
C          20.742000    -23.953000     -1.949000
C          25.651000    -20.735000      2.034000
C          19.892000    -21.959000     -0.845000
C          23.500000    -18.895000     -0.200000
C          24.073000    -24.907000      2.164000
C          22.653000    -23.739000     -3.122000
C          22.431000    -19.369000      1.990000
C          22.905000    -25.873000      0.285000
C          24.700000    -19.250000      0.375000
C          21.174000    -19.976000     -1.337000
C          26.611000    -23.178000     -0.463000
C          26.576000    -22.772000      0.942000
C          22.344000    -19.875000     -2.114000
C          23.981000    -23.849000      3.056000
C          23.752000    -21.025000      3.266000
C          25.258000    -24.703000      1.423000
C          20.775000    -22.652000      2.556000
C          21.273000    -21.741000     -2.799000
C          23.695000    -19.786000      2.509000
C          23.529000    -19.295000     -1.546000
C          22.912000    -25.449000      1.645000
C          23.643000    -21.535000     -3.279000
C          21.679000    -25.430000     -0.255000
C          25.033000    -23.306000     -2.905000
C          20.522000    -21.143000     -1.801000
C          22.392000    -20.924000     -3.010000
C          20.091000    -22.686000      1.294000
C          21.626000    -23.746000      2.816000
C          25.923000    -24.374000     -0.826000
C          21.378000    -23.144000     -2.885000
C          25.504000    -19.830000     -0.636000
C          25.848000    -23.543000      1.872000
C          26.345000    -22.044000     -1.171000
C          21.707000    -24.810000      1.898000
C          24.077000    -25.779000     -0.502000
$end

--------------------------------------------------------------

             Standard Nuclear Orientation (Angstroms)
    I     Atom           X                Y                Z
 ----------------------------------------------------------------
    1      O      -0.7297536304    -4.8102299307    -3.3236195580
    2      C      -1.9524656518    -5.4889635121    -3.5968576195
    3      H      -2.2641250773    -5.0669159697    -4.5603109263
    4      H      -2.7553884507    -5.3797674473    -2.8571534906
    5      H      -1.7970120845    -6.5685464907    -3.7099008897
    6      O      -0.2350859039    -6.2143113608    -1.5384069157
    7      C       0.0460803125    -5.2100291536    -2.2554569887
    8      C       1.4182935967    -4.4025393843    -2.0979134234
    9      H       1.8108421092    -4.8154424922    -1.1604473233
   10      H       1.1469906333    -3.3614548326    -1.8798568754
   11      C       2.4787708335    -4.4360435226    -3.2561118101
   12      H       2.8152967798    -5.4796599726    -3.2929763274
   13      H       2.0932675693    -4.3279311785    -4.2778984582
   14      C       3.7626615987    -3.5979605045    -3.0319035185
   15      H       4.2821279367    -4.0233153631    -2.1636098079
   16      H       4.5004857057    -3.8438756500    -3.8046236025
   17      C       3.5287938732    -2.1142469393    -2.8809301980
   18      C       2.6538382252    -1.4564744748    -3.9784473955
   19      C       1.3606187310    -0.9307027161    -3.7196069085
   20      H       0.9918600233    -1.0510513924    -2.7053800051
   21      C       0.6760272810    -0.2061803597    -4.6966503576
   22      H      -0.1347656628     0.4334506839    -4.3604555771
   23      C       1.2363634350    -0.0833783927    -5.9854370240
   24      H       0.6903430949     0.4133019231    -6.7819145516
   25      C       2.4800363850    -0.6679119009    -6.2994245577
   26      H       2.8669163559    -0.7633350411    -7.3092761866
   27      C       3.1755441310    -1.4042993328    -5.3159737326
   28      H       4.0894101544    -1.9224597440    -5.5936294177
   29      C       5.9847713599     2.7309821288    -2.7178631481
   30      C       3.9678212610     3.1110284733    -1.4669762330
   31      C       5.8866787745     3.4393685857     2.7132005113
   32      C       8.4524380556    -1.1869649147    -0.8029634004
   33      C       5.1472657056     0.1563268020     3.5310256513
   34      C       4.6412631780     2.4953950660    -2.5304424958
   35      C       7.9963674354    -1.2687215055     1.9787609657
   36      C       6.5694347641     4.3204703619     0.4990605160
   37      C       2.7364818242    -0.2837906353     0.4028813582
   38      C       7.5735539062    -2.1651181801    -0.2913191477
   39      C       3.5595296298    -1.4828718883    -1.4814817858
   40      C       3.3897602563    -1.3617840127     0.9308894721
   41      C       5.8930197317    -2.4271107163     1.3099053210
   42      C       7.3769589276    -0.7127861976     3.0659238026
   43      C       3.1029179478     0.9809788183    -1.6254903525
   44      C       7.0500971669     1.6281729540     3.4771337727
   45      C       4.6909556305    -1.2406907056    -2.4555908555
   46      C       6.0879661354    -1.6446941965    -2.1246772285
   47      C       5.6886707035     1.4166961295     3.6796418901
   48      C       9.2097828914     2.0508843017     0.1769892778
   49      C       8.1967799597     3.1175542412     1.8900710915
   50      C       7.8758593666     3.8121887401     0.7031819282
   51      C       5.9887077785     4.2028058338    -0.7550739373
   52      C       6.9554601155    -0.6879663686    -2.6300593196
   53      C       2.7741000941    -0.2682241788    -0.9947196404
   54      C       4.6044941149     3.9882819932    -0.6322242106
   55      C       7.2865712737    -2.1807381614     1.1472502753
   56      C       3.0163400367     2.1668964938    -0.9269028259
   57      C       4.1062180437    -1.2238321952     2.1669248822
   58      C       8.7196295592     0.8213453007    -1.8102383277
   59      C       5.5821679474     4.1229675268     1.5088203205
   60      C       3.9573382621    -2.0503967305    -0.1452595567
   61      C       8.0202855418     3.1440974210    -1.6412337920
   62      C       5.3134295391    -1.8256615664     2.4016498556
   63      C       2.5459843655     0.8727700103     1.1272349950
   64      C       8.9575252092     0.7556774166     2.2127668163
   65      C       8.9677403217    -0.4344455144     1.4493638686
   66      C       3.2071221449     1.0177087417     2.3715093220
   67      C       8.1356061562    -0.4437249297    -1.9202336776
   68      C       6.3248841516    -2.2863099697    -0.9107772931
   69      C       9.3114345502     0.8745855626    -0.6056295418
   70      C       4.8759677860     0.1233217517    -3.0713712699
   71      C       3.4159813413     3.0317857331     1.2957501905
   72      C       5.2916717010    -2.5208442459     0.0295586603
   73      C       3.9999343402    -0.0334746538     2.8387922041
   74      C       8.0610502061     1.9287031070    -2.4035965033
   75      C       4.9287803174     2.5051798042     3.1574514161
   76      C       6.6721354122     3.5900181063    -1.8388672158
   77      C       7.1564739151     2.8999710829     2.8247201716
   78      C       2.6704460618     2.1230590294     0.4488157626
   79      C       3.6856345792     2.3079101231     2.4905523635
   80      C       4.0757721644     1.1983393289    -2.6101314453
   81      C       6.2724657085     0.3752240892    -3.1554531628
   82      C       9.0571314523     2.0508672624     1.5699442440
   83      C       4.3836932229     3.8988230002     0.7488232378
   84      C       5.9918758780    -0.9347426830     3.2125432570
   85      C       9.2184288306    -0.4080319175     0.0411133251
   86      C       7.9505405825     0.5644721134     3.1855327150
   87      C       6.8207774508     1.6877718920    -2.9649000237
   88      C       8.5525897061     3.1987916634    -0.3102425010
   89      O      -9.8073995536     6.3536287285    -1.7007562456
   90      C     -10.5584691694     7.2266429710    -2.6071681633
   91      H     -10.3341690568     8.2227971962    -2.2073291719
   92      H     -11.6483865594     7.1132050432    -2.5747194409
   93      H     -10.1866264010     7.2584743168    -3.6388642043
   94      O      -7.6538846095     6.8833719875    -2.3607709916
   95      C      -8.4815426676     6.3089159283    -1.6298952327
   96      C      -7.9871174770     5.3293008176    -0.6134883429
   97      H      -8.7060453646     5.2587848127     0.2121775614
   98      H      -7.0340190666     5.6948072994    -0.2115363160
   99      C      -7.8992266462     3.9047867631    -1.2378327273
  100      H      -8.6377051955     3.7315640840    -2.0303334123
  101      H      -6.9261340409     3.7638145839    -1.7234000514
  102      C      -8.2755899724     2.8731474121    -0.1209925881
  103      H      -7.8317170129     3.0719763528     0.8629783709
  104      H      -9.3680802727     2.8591509141    -0.0148839568
  105      C      -7.8543124228     1.4035689417    -0.5652384047
  106      C      -8.8991294995     0.7774905929    -1.4142496987
  107      C      -8.7660361453     0.8394859323    -2.7814719692
  108      H      -7.8469996348     1.2703586964    -3.1654258121
  109      C      -9.9156259428     0.6151766705    -3.6025856353
  110      H      -9.8728487947     0.6205737648    -4.6892912012
  111      C     -11.1239999851     0.1966951258    -3.0145674633
  112      H     -12.0716365151     0.0441146241    -3.5231529503
  113      C     -11.1559233327    -0.0621640128    -1.6105447262
  114      H     -12.0379528358    -0.4869614377    -1.1410480773
  115      C     -10.0687189319     0.2292308668    -0.8084726502
  116      H     -10.1647666754     0.2338718039     0.2734914401
  117      C      -6.1926495562    -3.4602204627     1.6643120314
  118      C      -5.2023912511    -3.5371233434    -0.5595954388
  119      C      -0.8414371485    -2.9356499142     0.6746168724
  120      C      -4.8320537470     0.8584080970     4.0350466027
  121      C      -0.8747615733     0.5732925980    -0.0099617785
  122      C      -6.2228052596    -3.1438111967     0.2986060565
  123      C      -2.2971953351     1.6537215136     3.1245629943
  124      C      -2.6307365263    -4.2567027206     1.6709889009
  125      C      -4.4789560683     0.2919897918    -1.8954802147
  126      C      -4.7116762323     1.9049890586     3.0785997696
  127      C      -6.3835299947     1.0720788114    -0.6670978313
  128      C      -4.1304268503     1.4553097987    -1.1876660120
  129      C      -3.4900282412     2.5304717494     1.2434535658
  130      C      -1.2335711883     1.2190661004     2.2415095724
  131      C      -5.9467572712    -1.4803381384    -1.2374655214
  132      C      -0.3233294505    -0.9827698690     1.7599679412
  133      C      -7.1075422278     0.5601932278     0.5308919164
  134      C      -6.6918275557     1.0366190506     1.9017751160
  135      C      -0.3941429955    -0.6728404822     0.4003407067
  136      C      -3.0018930123    -2.1628667556     4.4211281363
  137      C      -1.2560675325    -2.7736128682     3.0353039843
  138      C      -2.2965309311    -3.7054556754     2.9100765956
  139      C      -3.9260036402    -4.4765283453     1.2677460479
  140      C      -6.6969306071    -0.0357155536     2.8434047967
  141      C      -5.7858909489    -0.0970597621    -1.5335870504
  142      C      -4.0199505974    -4.2132154405    -0.1008672223
  143      C      -3.4313339612     2.3180557359     2.6035959917
  144      C      -5.0340165928    -2.5174348730    -1.5197930215
  145      C      -2.7357548042     1.6191041356    -0.8649474053
  146      C      -5.2568279214    -1.3828770925     4.3016054148
  147      C      -1.8992140975    -3.8549977890     0.5683134799
  148      C      -5.1552223632     1.9505614143    -0.4179017663
  149      C      -4.7223653789    -3.5686715864     3.4271494578
  150      C      -2.4918221600     2.1602201548     0.3777674931
  151      C      -3.5075606622    -0.7566688661    -2.1422979296
  152      C      -1.3666965609    -0.3872974006     3.8458499159
  153      C      -2.3874841799     0.6282107739     4.1043490155
  154      C      -2.1696406197    -0.5901759580    -1.7359974601
  155      C      -5.8052848870    -0.1726844464     3.9039614581
  156      C      -5.6031899838     1.9389938076     2.0141229461
  157      C      -3.9186363007    -1.1148061100     4.6653403932
  158      C      -7.2028825632    -0.8963312701     0.8243022221
  159      C      -2.6463497340    -2.7850593194    -1.5047887877
  160      C      -4.8398756229     2.4435845954     0.8853367293
  161      C      -1.7626232728     0.6361117255    -1.1084590974
  162      C      -5.6795087832    -2.5453697385     3.6843552734
  163      C      -0.7702748231    -1.8795917404    -0.2597155401
  164      C      -4.9934293320    -4.0371999120     2.1241028195
  165      C      -0.5079559790    -2.4151675397     1.9431835468
  166      C      -3.7674762355    -2.1402887407    -1.9997183469
  167      C      -1.6438748321    -1.8143386025    -1.3747258774
  168      C      -6.6716142437    -1.8648636241    -0.0929518604
  169      C      -7.0676865806    -1.2153825571     2.1912569846
  170      C      -1.7312028869    -1.7553201920     4.0224222249
  171      C      -2.7661852466    -3.8283695536    -0.5645902953
  172      C      -1.3246199606     1.5444810517     0.8910329045
  173      C      -3.6870699509     0.2296413245     4.4805726431
  174      C      -0.7894287272    -0.0236548698     2.6658067141
  175      C      -6.5073093363    -2.4481629721     2.5754584843
  176      C      -3.3768260529    -3.4117227209     3.8354140482
 ----------------------------------------------------------------

   10   -5804.2659480416      2.42E-06 Convergence criterion met
 Total energy in the final basis set = -5804.2659480416

                    Orbital Energies (a.u.)
 --------------------------------------------------------------

 Alpha MOs
 -- Occupied --
-19.203 -19.196 -19.136 -19.126 -10.325 -10.315 -10.258 -10.249
-10.242 -10.241 -10.241 -10.240 -10.237 -10.232 -10.232 -10.231
-10.231 -10.231 -10.230 -10.225 -10.225 -10.225 -10.224 -10.224
-10.224 -10.224 -10.223 -10.223 -10.222 -10.222 -10.222 -10.222
-10.222 -10.221 -10.221 -10.220 -10.220 -10.220 -10.220 -10.219
-10.219 -10.219 -10.219 -10.219 -10.218 -10.218 -10.218 -10.218
-10.218 -10.218 -10.218 -10.218 -10.217 -10.217 -10.217 -10.217
-10.217 -10.216 -10.216 -10.216 -10.216 -10.216 -10.216 -10.216
-10.216 -10.216 -10.216 -10.215 -10.215 -10.215 -10.215 -10.215
-10.215 -10.215 -10.215 -10.215 -10.215 -10.214 -10.214 -10.214
-10.214 -10.214 -10.214 -10.214 -10.214 -10.214 -10.214 -10.214
-10.214 -10.213 -10.213 -10.213 -10.213 -10.213 -10.213 -10.213
-10.212 -10.212 -10.212 -10.212 -10.212 -10.212 -10.212 -10.212
-10.211 -10.211 -10.211 -10.211 -10.211 -10.211 -10.211 -10.211
-10.211 -10.211 -10.211 -10.210 -10.210 -10.210 -10.210 -10.210
-10.210 -10.210 -10.209 -10.209 -10.208 -10.208 -10.207 -10.207
-10.206 -10.206 -10.205 -10.205 -10.204 -10.204 -10.203 -10.203
-10.203 -10.203 -10.202 -10.202 -10.202 -10.201 -10.200 -10.200
-10.199 -10.199 -10.198 -10.197  -1.097  -1.083  -0.998  -0.990
 -0.981  -0.981  -0.965  -0.964  -0.962  -0.960  -0.958  -0.958
 -0.932  -0.931  -0.928  -0.926  -0.925  -0.923  -0.922  -0.921
 -0.918  -0.916  -0.896  -0.892  -0.891  -0.890  -0.886  -0.882
 -0.875  -0.872  -0.855  -0.847  -0.841  -0.840  -0.839  -0.838
 -0.837  -0.833  -0.821  -0.817  -0.806  -0.797  -0.796  -0.796
 -0.795  -0.794  -0.793  -0.791  -0.790  -0.790  -0.785  -0.779
 -0.771  -0.770  -0.769  -0.766  -0.766  -0.765  -0.762  -0.754
 -0.754  -0.749  -0.748  -0.738  -0.738  -0.731  -0.716  -0.715
 -0.714  -0.713  -0.712  -0.711  -0.710  -0.710  -0.709  -0.707
 -0.707  -0.707  -0.705  -0.704  -0.702  -0.700  -0.673  -0.671
 -0.659  -0.656  -0.656  -0.654  -0.649  -0.646  -0.633  -0.630
 -0.628  -0.627  -0.626  -0.623  -0.621  -0.620  -0.619  -0.617
 -0.614  -0.614  -0.613  -0.611  -0.611  -0.609  -0.608  -0.607
 -0.606  -0.603  -0.602  -0.601  -0.575  -0.568  -0.566  -0.561
 -0.561  -0.560  -0.558  -0.558  -0.556  -0.553  -0.553  -0.551
 -0.537  -0.533  -0.533  -0.531  -0.529  -0.527  -0.526  -0.524
 -0.523  -0.521  -0.520  -0.517  -0.517  -0.514  -0.514  -0.512
 -0.506  -0.504  -0.499  -0.492  -0.490  -0.489  -0.489  -0.486
 -0.483  -0.481  -0.480  -0.479  -0.477  -0.477  -0.475  -0.474
 -0.473  -0.470  -0.469  -0.469  -0.468  -0.467  -0.465  -0.465
 -0.464  -0.463  -0.462  -0.462  -0.461  -0.459  -0.458  -0.455
 -0.455  -0.453  -0.453  -0.452  -0.448  -0.446  -0.443  -0.442
 -0.441  -0.441  -0.439  -0.438  -0.438  -0.434  -0.433  -0.432
 -0.431  -0.429  -0.428  -0.428  -0.427  -0.425  -0.425  -0.423
 -0.423  -0.422  -0.421  -0.421  -0.420  -0.418  -0.417  -0.417
 -0.417  -0.416  -0.416  -0.415  -0.413  -0.413  -0.412  -0.411
 -0.411  -0.409  -0.408  -0.403  -0.402  -0.399  -0.396  -0.395
 -0.393  -0.392  -0.391  -0.390  -0.388  -0.387  -0.386  -0.385
 -0.380  -0.377  -0.373  -0.372  -0.369  -0.369  -0.367  -0.365
 -0.364  -0.362  -0.362  -0.361  -0.360  -0.360  -0.359  -0.358
 -0.356  -0.355  -0.354  -0.353  -0.352  -0.352  -0.351  -0.350
 -0.350  -0.349  -0.349  -0.348  -0.345  -0.345  -0.344  -0.344
 -0.344  -0.342  -0.341  -0.338  -0.338  -0.337  -0.334  -0.334
 -0.331  -0.331  -0.329  -0.329  -0.327  -0.326  -0.325  -0.324
 -0.310  -0.306  -0.297  -0.295  -0.291  -0.283  -0.271  -0.270
 -0.269  -0.268  -0.266  -0.265  -0.263  -0.263  -0.263  -0.262
 -0.261  -0.261  -0.260  -0.260  -0.258  -0.258  -0.256  -0.253
 -0.250  -0.243  -0.242  -0.240  -0.228  -0.219  -0.213  -0.211
 -0.209  -0.209  -0.207  -0.204  -0.198  -0.197

          Ground-State Mulliken Net Atomic Charges

     Atom                 Charge (a.u.)
  ----------------------------------------
      1 O                    -0.450090
      2 C                    -0.082582
      3 H                     0.120730
      4 H                     0.124784
      5 H                     0.126571
      6 O                    -0.487616
      7 C                     0.577897
      8 C                    -0.244497
      9 H                     0.136040
     10 H                     0.129031
     11 C                    -0.196033
     12 H                     0.106940
     13 H                     0.124645
     14 C                    -0.195568
     15 H                     0.111190
     16 H                     0.108129
     17 C                     0.029851
     18 C                     0.070672
     19 C                    -0.101471
     20 H                     0.099178
     21 C                    -0.098695
     22 H                     0.102072
     23 C                    -0.091462
     24 H                     0.090496
     25 C                    -0.082676
     26 H                     0.091434
     27 C                    -0.108225
     28 H                     0.090275
     29 C                     0.004128
     30 C                     0.005661
     31 C                    -0.014062
     32 C                     0.025821
     33 C                    -0.018753
     34 C                     0.003335
     35 C                     0.037395
     36 C                     0.004494
     37 C                     0.036105
     38 C                    -0.043762
     39 C                    -0.066403
     40 C                     0.017392
     41 C                    -0.006768
     42 C                    -0.011250
     43 C                     0.051126
     44 C                     0.017266
     45 C                    -0.094849
     46 C                     0.038248
     47 C                    -0.010234
     48 C                     0.016651
     49 C                    -0.012784
     50 C                     0.001702
     51 C                     0.002878
     52 C                    -0.010841
     53 C                    -0.016541
     54 C                    -0.006563
     55 C                    -0.027510
     56 C                    -0.007111
     57 C                    -0.012788
     58 C                     0.004702
     59 C                    -0.007497
     60 C                    -0.002051
     61 C                    -0.039002
     62 C                    -0.006111
     63 C                    -0.009236
     64 C                    -0.013586
     65 C                     0.012496
     66 C                    -0.010735
     67 C                     0.013572
     68 C                     0.008829
     69 C                     0.005480
     70 C                     0.019081
     71 C                    -0.013848
     72 C                     0.018398
     73 C                     0.046188
     74 C                    -0.026872
     75 C                    -0.000438
     76 C                    -0.008286
     77 C                     0.012505
     78 C                    -0.038727
     79 C                     0.013059
     80 C                     0.001880
     81 C                    -0.002068
     82 C                    -0.011075
     83 C                     0.011697
     84 C                    -0.000134
     85 C                    -0.041311
     86 C                    -0.020448
     87 C                     0.044485
     88 C                     0.013250
     89 O                    -0.452900
     90 C                    -0.096313
     91 H                     0.133469
     92 H                     0.134924
     93 H                     0.142355
     94 O                    -0.495181
     95 C                     0.578371
     96 C                    -0.234026
     97 H                     0.114694
     98 H                     0.136743
     99 C                    -0.184592
    100 H                     0.122521
    101 H                     0.124178
    102 C                    -0.195398
    103 H                     0.114090
    104 H                     0.121571
    105 C                    -0.018746
    106 C                     0.099321
    107 C                    -0.108302
    108 H                     0.097185
    109 C                    -0.109423
    110 H                     0.096938
    111 C                    -0.076442
    112 H                     0.094567
    113 C                    -0.094744
    114 H                     0.091593
    115 C                    -0.094395
    116 H                     0.093021
    117 C                    -0.040191
    118 C                     0.015076
    119 C                     0.005317
    120 C                    -0.020746
    121 C                     0.007719
    122 C                    -0.006991
    123 C                    -0.018463
    124 C                     0.025162
    125 C                    -0.015344
    126 C                    -0.006790
    127 C                    -0.086433
    128 C                     0.026794
    129 C                     0.040272
    130 C                    -0.001079
    131 C                     0.026873
    132 C                    -0.009845
    133 C                    -0.072257
    134 C                     0.018309
    135 C                     0.015658
    136 C                     0.012599
    137 C                     0.011828
    138 C                    -0.000774
    139 C                     0.002025
    140 C                    -0.004194
    141 C                     0.005970
    142 C                    -0.023921
    143 C                    -0.002009
    144 C                    -0.023744
    145 C                    -0.011806
    146 C                     0.004763
    147 C                     0.012517
    148 C                     0.043376
    149 C                    -0.011684
    150 C                     0.026307
    151 C                     0.007921
    152 C                    -0.034363
    153 C                    -0.035221
    154 C                     0.000251
    155 C                    -0.006732
    156 C                     0.011684
    157 C                     0.007784
    158 C                     0.024001
    159 C                     0.015954
    160 C                    -0.054330
    161 C                    -0.022052
    162 C                    -0.007498
    163 C                    -0.020359
    164 C                     0.016780
    165 C                    -0.031777
    166 C                    -0.016475
    167 C                    -0.004376
    168 C                     0.000284
    169 C                    -0.003900
    170 C                    -0.008085
    171 C                     0.009595
    172 C                    -0.026261
    173 C                     0.033605
    174 C                     0.069548
    175 C                     0.035093
    176 C                    -0.017638
  ----------------------------------------
  Sum of atomic charges =     0.000000

                    Cartesian Multipole Moments
 -----------------------------------------------------------------
    Charge (ESU x 10^10)
                 0.0000
    Dipole Moment (Debye)
         X      -6.7385      Y       0.7393      Z      -3.1964
       Tot       7.4947
    Quadrupole Moments (Debye-Ang)
        XX    -735.9275     XY     -27.1564     YY    -827.8533
        XZ       6.5140     YZ      11.6962     ZZ    -789.6993

 Total job time:  933.37s(wall), 8943.22s(cpu)
        *  Thank you very much for using Q-Chem.  Have a nice day.  *
