 Q-Chem 4.4, Q-Chem, Inc., Pleasanton, CA (2016)
 Q-Chem 4.4.2 for Intel X86 Linux

User input:
--------------------------------------------------------------
$comment
OPTIMIZATION
$end

$rem
JOBTYPE OPT
EXCHANGE omegaB97X-D
BASIS cc-pVTZ
$end

$molecule
0 1
C          0.00000        0.00000        0.00000
C         -0.65396       -1.22126       -0.00000
C          1.38563        0.00000        0.00000
C          0.09526       -2.37957        0.00866
N          2.11912       -1.10562        0.01199
C          1.48546       -2.27640        0.02149
C          2.30642       -3.51253        0.03449
N          1.74513       -4.60745       -0.39909
C          3.65824       -3.56714        0.50995
C          2.40434       -5.79109       -0.42442
N          4.38617       -2.58332        1.04242
C          4.35289       -4.81920        0.47143
C          3.70163       -5.99343       -0.01477
S          5.80914       -3.21778        1.41887
N          5.59255       -4.74484        0.95148
C          4.33823       -7.30129       -0.04468
S          6.02589       -7.51949        0.20234
C          3.75434       -8.55173       -0.24928
C          5.99762       -9.21427        0.01351
N          2.43078       -8.79033       -0.46746
C          4.69159       -9.63209       -0.21260
C          7.19111      -10.02404        0.10954
C          2.09912      -10.03238       -0.63993
N          4.30733      -10.92364       -0.39820
C          7.36011      -11.32132       -0.28999
S          8.66322       -9.40042        0.78252
C          3.03978      -11.10696       -0.60697
C          8.66438      -11.81213       -0.04248
C          9.47483      -10.88826        0.53850
H         -0.54853        0.93120        0.00000
H         -1.73532       -1.26909       -0.00410
H          1.93662        0.93286       -0.01167
H         -0.36319       -3.35650        0.00329
H          1.82722       -6.62671       -0.78554
H          1.05088      -10.24576       -0.82054
H          6.56808      -11.88646       -0.75164
H          2.69937      -12.12548       -0.75876
H          8.97887      -12.81591       -0.28449
H         10.50528      -11.00042        0.82929
$end

$opt
CONSTRAINT
tors 4 6 7 8 21.82164
tors 10 13 16 17 169.06444
tors 17 19 22 25 -165.00000
ENDCONSTRAINT
$end
--------------------------------------------------------------

   16   -2291.1502816337      5.76E-09 Convergence criterion met
 Total energy in the final basis set = -2291.1502816337
   12   -2291.1505149370      6.07E-09 Convergence criterion met
 Total energy in the final basis set = -2291.1505149370
   12   -2291.1505816790      5.51E-09 Convergence criterion met
 Total energy in the final basis set = -2291.1505816790
   11   -2291.1506184073      5.03E-09 Convergence criterion met
 Total energy in the final basis set = -2291.1506184073
   11   -2291.1506355905      9.42E-09 Convergence criterion met
 Total energy in the final basis set = -2291.1506355905
   10   -2291.1506393359      6.21E-09 Convergence criterion met
 Total energy in the final basis set = -2291.1506393359

             Standard Nuclear Orientation (Angstroms)
    I     Atom           X                Y                Z
 ----------------------------------------------------------------
    1      C       7.6666374825     0.3016471527    -0.2847511677
    2      C       7.0220424524     1.4557532458     0.1294338747
    3      C       6.8939095564    -0.8079163388    -0.5876109706
    4      C       5.6444185092     1.4526431142     0.2257612847
    5      N       5.5711455765    -0.8276385657    -0.4927422016
    6      C       4.9572360339     0.2816938692    -0.0873180437
    7      C       3.4748361690     0.2613864372    -0.0157718763
    8      N       2.8554031535     1.4066000443    -0.0918416507
    9      C       2.7054411389    -0.9360961998     0.1483115899
   10      C       1.5026720291     1.4941616196    -0.0677796226
   11      N       3.1471574437    -2.1828805779     0.3256860267
   12      C       1.2770871129    -0.8385873628     0.1730092448
   13      C       0.6360970991     0.4319491169     0.0476144183
   14      S       1.8493580600    -3.1105005325     0.4808069345
   15      N       0.6757144151    -2.0147460320     0.3461499215
   16      C      -0.8109109434     0.5893899745     0.0455254159
   17      S      -1.8794348335    -0.7512946726    -0.0863629975
   18      C      -1.5709422042     1.7568304194     0.1018696604
   19      C      -3.3083388259     0.1780023104    -0.0621934809
   20      N      -1.0796546729     3.0234645143     0.2114407829
   21      C      -2.9821000604     1.5250323443     0.0422374283
   22      C      -4.6169830924    -0.4334161849    -0.1382014809
   23      C      -1.9614830426     3.9735494100     0.2549801466
   24      N      -3.8778252900     2.5476025049     0.0955968389
   25      C      -5.8162108684     0.1688323975    -0.4094383767
   26      S      -4.8380505224    -2.1335051850     0.1202059198
   27      C      -3.3688795718     3.7363473553     0.1974208920
   28      C      -6.9021165056    -0.7385215024    -0.4158396134
   29      C      -6.5247186460    -2.0166137524    -0.1501415021
   30      H       8.7426242173     0.2588977926    -0.3770783545
   31      H       7.5861359038     2.3457034923     0.3734642409
   32      H       7.3582411700    -1.7256413459    -0.9297374311
   33      H       5.0912627451     2.3268703189     0.5325664760
   34      H       1.1063941445     2.4940804766    -0.1453959120
   35      H      -1.5956642716     4.9908935835     0.3416283648
   36      H      -5.9007638240     1.2281076396    -0.5884587398
   37      H      -4.0528495593     4.5764271038     0.2433549428
   38      H      -7.9234994549    -0.4517018021    -0.6140719080
   39      H      -7.1406802851    -2.8978569159    -0.0958052707
 ----------------------------------------------------------------

    9   -2291.1506405260      6.72E-09 Convergence criterion met
 Total energy in the final basis set = -2291.1506405260
 Final energy is   -2291.15064052602
 **  OPTIMIZATION CONVERGED  **

                    Orbital Energies (a.u.)
 --------------------------------------------------------------

 Alpha MOs
 -- Occupied --
-89.146 -89.099 -89.079 -14.482 -14.479 -14.463 -14.462 -14.445
-14.434 -10.355 -10.351 -10.350 -10.346 -10.344 -10.344 -10.342
-10.341 -10.338 -10.336 -10.335 -10.330 -10.326 -10.323 -10.320
-10.309 -10.301 -10.298 -10.295 -10.293  -8.156  -8.113  -8.095
 -6.106  -6.101  -6.100  -6.062  -6.058  -6.057  -6.044  -6.040
 -6.037  -1.143  -1.102  -1.068  -1.048  -1.030  -1.014  -1.003
 -0.986  -0.925  -0.911  -0.896  -0.879  -0.870  -0.853  -0.838
 -0.812  -0.777  -0.772  -0.749  -0.738  -0.731  -0.716  -0.711
 -0.672  -0.655  -0.649  -0.629  -0.628  -0.620  -0.607  -0.603
 -0.587  -0.576  -0.567  -0.560  -0.557  -0.548  -0.543  -0.526
 -0.512  -0.508  -0.501  -0.499  -0.493  -0.492  -0.486  -0.483
 -0.473  -0.464  -0.464  -0.461  -0.451  -0.443  -0.429  -0.426
 -0.418  -0.411  -0.392  -0.377  -0.372  -0.360  -0.358  -0.351
 -0.344  -0.338  -0.335  -0.334  -0.321  -0.262

          Ground-State Mulliken Net Atomic Charges

     Atom                 Charge (a.u.)
  ----------------------------------------
      1 C                    -0.092540
      2 C                    -0.129259
      3 C                    -0.080486
      4 C                    -0.118678
      5 N                    -0.145699
      6 C                     0.083086
      7 C                     0.098893
      8 N                    -0.176589
      9 C                    -0.019498
     10 C                    -0.086080
     11 N                    -0.217770
     12 C                     0.052039
     13 C                     0.063276
     14 S                     0.405174
     15 N                    -0.305427
     16 C                    -0.070319
     17 S                     0.171660
     18 C                     0.060658
     19 C                    -0.054702
     20 N                    -0.168909
     21 C                     0.068073
     22 C                    -0.010483
     23 C                    -0.046168
     24 N                    -0.162578
     25 C                    -0.142913
     26 S                     0.097635
     27 C                    -0.044895
     28 C                    -0.159441
     29 C                    -0.180035
     30 H                     0.132885
     31 H                     0.120152
     32 H                     0.119287
     33 H                     0.137383
     34 H                     0.138464
     35 H                     0.128315
     36 H                     0.141434
     37 H                     0.126888
     38 H                     0.130402
     39 H                     0.136767
  ----------------------------------------
  Sum of atomic charges =     0.000000

                    Cartesian Multipole Moments
 -----------------------------------------------------------------
    Charge (ESU x 10^10)
                 0.0000
    Dipole Moment (Debye)
         X      -0.3108      Y       1.5079      Z       0.3282
       Tot       1.5742
    Quadrupole Moments (Debye-Ang)
        XX    -151.3812     XY       2.7746     YY    -164.2599
        XZ       2.9764     YZ       0.9210     ZZ    -187.1988

 Total job time:  6608.20s(wall), 98660.78s(cpu)
        *  Thank you very much for using Q-Chem.  Have a nice day.  *
