 Q-Chem 4.4, Q-Chem, Inc., Pleasanton, CA (2016)
 Q-Chem 4.4.2 for Intel X86 Linux

User input:
--------------------------------------------------------------
$comment
OPTIMIZATION
$end

$rem
JOBTYPE OPT
EXCHANGE omegaB97X-D
BASIS cc-pVTZ
$end

$molecule
0 1
C          0.00000        0.00000        0.00000
C         -0.65396       -1.22126       -0.00000
C          1.38563        0.00000        0.00000
C          0.09526       -2.37957        0.00866
N          2.11912       -1.10562        0.01199
C          1.48546       -2.27640        0.02149
C          2.30642       -3.51253        0.03449
N          1.74513       -4.60745       -0.39909
C          3.65824       -3.56714        0.50995
C          2.40434       -5.79109       -0.42442
N          4.38617       -2.58332        1.04242
C          4.35289       -4.81920        0.47143
C          3.70163       -5.99343       -0.01477
S          5.80914       -3.21778        1.41887
N          5.59255       -4.74484        0.95148
C          4.33823       -7.30129       -0.04468
S          6.02589       -7.51949        0.20234
C          3.75434       -8.55173       -0.24928
C          5.99762       -9.21427        0.01351
N          2.43078       -8.79033       -0.46746
C          4.69159       -9.63209       -0.21260
C          7.19111      -10.02404        0.10954
C          2.09912      -10.03238       -0.63993
N          4.30733      -10.92364       -0.39820
C          8.31073       -9.78411        0.85787
S          7.35596      -11.51106       -0.76825
C          3.03978      -11.10696       -0.60697
C          9.29942      -10.78653        0.71329
C          8.92546      -11.77819       -0.13799
H         -0.54853        0.93120        0.00000
H         -1.73532       -1.26909       -0.00410
H          1.93662        0.93286       -0.01167
H         -0.36319       -3.35650        0.00329
H          1.82722       -6.62671       -0.78554
H          1.05088      -10.24576       -0.82054
H          8.40172       -8.91793        1.49133
H          2.69937      -12.12548       -0.75876
H         10.25150      -10.76168        1.22122
H          9.48478      -12.65295       -0.42245
$end

$opt
CONSTRAINT
tors 4 6 7 8 21.82164
tors 10 13 16 17 169.06444
tors 17 19 22 25 30.00000
ENDCONSTRAINT
$end
--------------------------------------------------------------

   16   -2291.1497990461      5.20E-09 Convergence criterion met
 Total energy in the final basis set = -2291.1497990461
   12   -2291.1502232462      7.54E-09 Convergence criterion met
 Total energy in the final basis set = -2291.1502232462
   12   -2291.1502812727      5.76E-09 Convergence criterion met
 Total energy in the final basis set = -2291.1502812727
   11   -2291.1503203630      6.70E-09 Convergence criterion met
 Total energy in the final basis set = -2291.1503203630
   11   -2291.1503333171      5.49E-09 Convergence criterion met
 Total energy in the final basis set = -2291.1503333171
   11   -2291.1503402717      7.05E-09 Convergence criterion met
 Total energy in the final basis set = -2291.1503402717

             Standard Nuclear Orientation (Angstroms)
    I     Atom           X                Y                Z
 ----------------------------------------------------------------
    1      C       7.6944208450     0.4827424529    -0.3247169554
    2      C       7.0078015093     1.6077419951     0.1019279730
    3      C       6.9632149762    -0.6531561276    -0.6331968505
    4      C       5.6318802293     1.5506847113     0.2049225406
    5      N       5.6426429947    -0.7247029763    -0.5322563141
    6      C       4.9885890252     0.3569102954    -0.1150272762
    7      C       3.5085969555     0.2791149273    -0.0314686605
    8      N       2.8459297221     1.4007191229    -0.0904689127
    9      C       2.7861620804    -0.9481035056     0.1265087261
   10      C       1.4912747242     1.4372621299    -0.0503327895
   11      N       3.2763267149    -2.1791811089     0.2837927802
   12      C       1.3550132549    -0.9047420412     0.1667461827
   13      C       0.6662993924     0.3423669804     0.0630244100
   14      S       2.0162203762    -3.1566153446     0.4407053355
   15      N       0.7998037895    -2.1046846481     0.3318408393
   16      C      -0.7855733198     0.4492996614     0.0803767690
   17      S      -1.8127064716    -0.9249238870    -0.0543447822
   18      C      -1.5808099094     1.5917117078     0.1615793459
   19      C      -3.2676632421    -0.0401701356     0.0190628192
   20      N      -1.1344919954     2.8753064346     0.2751847084
   21      C      -2.9829039314     1.3124699219     0.1231261799
   22      C      -4.5488381172    -0.7100389403    -0.0438367768
   23      C      -2.0508883109     3.7908769835     0.3386423717
   24      N      -3.9169522840     2.2979936998     0.1965241555
   25      C      -4.8467719061    -1.9743930714     0.3908483500
   26      S      -5.9493350141     0.0444660242    -0.7224487264
   27      C      -3.4510394108     3.5035095164     0.2989219759
   28      C      -6.1931011293    -2.3390468516     0.1612081872
   29      C      -6.9036243670    -1.3469850074    -0.4391503041
   30      H       8.7707790268     0.4827005574    -0.4222671153
   31      H       7.5380122659     2.5168957503     0.3510512396
   32      H       7.4606858572    -1.5498903700    -0.9842042955
   33      H       5.0464423815     2.4004334479     0.5205330027
   34      H       1.0571538139     2.4224854746    -0.1127015802
   35      H      -1.7225385911     4.8206376897     0.4293354850
   36      H      -4.1233638706    -2.6132602120     0.8756853353
   37      H      -4.1647987385     4.3171767665     0.3624039391
   38      H      -6.6155562151    -3.2903434861     0.4455593677
   39      H      -7.9452982163    -1.3503398740    -0.7127314476
 ----------------------------------------------------------------

    9   -2291.1503412683      7.25E-09 Convergence criterion met
 Total energy in the final basis set = -2291.1503412683
 Final energy is   -2291.15034126831
 **  OPTIMIZATION CONVERGED  **

                    Orbital Energies (a.u.)
 --------------------------------------------------------------

 Alpha MOs
 -- Occupied --
-89.146 -89.099 -89.077 -14.483 -14.480 -14.462 -14.462 -14.445
-14.434 -10.355 -10.352 -10.351 -10.345 -10.343 -10.343 -10.342
-10.341 -10.337 -10.336 -10.334 -10.330 -10.326 -10.324 -10.317
-10.309 -10.301 -10.298 -10.297 -10.294  -8.157  -8.113  -8.092
 -6.107  -6.101  -6.100  -6.062  -6.058  -6.057  -6.041  -6.037
 -6.035  -1.143  -1.101  -1.068  -1.049  -1.030  -1.013  -1.003
 -0.986  -0.925  -0.912  -0.896  -0.879  -0.869  -0.853  -0.838
 -0.812  -0.777  -0.772  -0.748  -0.738  -0.730  -0.716  -0.711
 -0.671  -0.660  -0.645  -0.630  -0.628  -0.621  -0.607  -0.603
 -0.586  -0.576  -0.568  -0.561  -0.559  -0.548  -0.542  -0.527
 -0.512  -0.507  -0.500  -0.499  -0.493  -0.492  -0.485  -0.484
 -0.475  -0.466  -0.464  -0.461  -0.448  -0.441  -0.431  -0.426
 -0.419  -0.409  -0.393  -0.377  -0.372  -0.360  -0.358  -0.349
 -0.342  -0.340  -0.335  -0.330  -0.321  -0.265

          Ground-State Mulliken Net Atomic Charges

     Atom                 Charge (a.u.)
  ----------------------------------------
      1 C                    -0.092787
      2 C                    -0.129302
      3 C                    -0.080407
      4 C                    -0.118414
      5 N                    -0.145713
      6 C                     0.082761
      7 C                     0.098936
      8 N                    -0.176947
      9 C                    -0.019281
     10 C                    -0.084120
     11 N                    -0.217102
     12 C                     0.053955
     13 C                     0.059458
     14 S                     0.404058
     15 N                    -0.306809
     16 C                    -0.073847
     17 S                     0.183909
     18 C                     0.060573
     19 C                    -0.046546
     20 N                    -0.169715
     21 C                     0.033821
     22 C                     0.012924
     23 C                    -0.046941
     24 N                    -0.150351
     25 C                    -0.187259
     26 S                     0.140616
     27 C                    -0.047732
     28 C                    -0.154180
     29 C                    -0.186289
     30 H                     0.132971
     31 H                     0.120268
     32 H                     0.119427
     33 H                     0.137808
     34 H                     0.137944
     35 H                     0.128252
     36 H                     0.131537
     37 H                     0.129524
     38 H                     0.129720
     39 H                     0.135279
  ----------------------------------------
  Sum of atomic charges =     0.000000

                    Cartesian Multipole Moments
 -----------------------------------------------------------------
    Charge (ESU x 10^10)
                 0.0000
    Dipole Moment (Debye)
         X       0.0643      Y       0.8188      Z       0.6849
       Tot       1.0694
    Quadrupole Moments (Debye-Ang)
        XX    -155.6696     XY       6.1978     YY    -164.0704
        XZ       1.6257     YZ       0.0594     ZZ    -186.4171

 Total job time:  6638.43s(wall), 99191.76s(cpu)
        *  Thank you very much for using Q-Chem.  Have a nice day.  *
