 Q-Chem 4.4, Q-Chem, Inc., Pleasanton, CA (2016)
 Q-Chem 4.4.2 for Intel X86 Linux

User input:
--------------------------------------------------------------
$comment
OPTIMIZATION
$end

$rem
JOBTYPE OPT
EXCHANGE omegaB97X-D
BASIS cc-pVTZ
$end

$molecule
0 1
C          0.00000        0.00000        0.00000
C         -0.65396       -1.22126       -0.00000
C          1.38563        0.00000        0.00000
C          0.09526       -2.37957        0.00866
N          2.11912       -1.10562        0.01199
C          1.48546       -2.27640        0.02149
C          2.30642       -3.51253        0.03449
N          1.74513       -4.60745       -0.39909
C          3.65824       -3.56714        0.50995
C          2.40434       -5.79109       -0.42442
N          4.38617       -2.58332        1.04242
C          4.35289       -4.81920        0.47143
C          3.70163       -5.99343       -0.01477
S          5.80914       -3.21778        1.41887
N          5.59255       -4.74484        0.95148
C          4.33823       -7.30129       -0.04468
S          6.02589       -7.51949        0.20234
C          3.75434       -8.55173       -0.24928
C          5.99762       -9.21427        0.01351
N          2.43078       -8.79033       -0.46746
C          4.69159       -9.63209       -0.21260
C          7.19111      -10.02404        0.10954
C          2.09912      -10.03238       -0.63993
N          4.30733      -10.92364       -0.39820
C          7.73290      -10.83794       -0.84709
S          8.15644      -10.05628        1.55038
C          3.03978      -11.10696       -0.60697
C          8.91108      -11.49275       -0.41534
C          9.25661      -11.17181        0.85962
H         -0.54853        0.93120        0.00000
H         -1.73532       -1.26909       -0.00410
H          1.93662        0.93286       -0.01167
H         -0.36319       -3.35650        0.00329
H          1.82722       -6.62671       -0.78554
H          1.05088      -10.24576       -0.82054
H          7.29328      -10.94485       -1.82439
H          2.69937      -12.12548       -0.75876
H          9.47138      -12.17870       -1.03225
H         10.10095      -11.52557        1.42610
$end

$opt
CONSTRAINT
tors 4 6 7 8 21.82164
tors 10 13 16 17 169.06444
tors 17 19 22 25 -120.00000
ENDCONSTRAINT
$end
--------------------------------------------------------------

   16   -2291.1472588337      5.09E-09 Convergence criterion met
 Total energy in the final basis set = -2291.1472588337
   12   -2291.1476378073      5.76E-09 Convergence criterion met
 Total energy in the final basis set = -2291.1476378073
   12   -2291.1477478570      6.38E-09 Convergence criterion met
 Total energy in the final basis set = -2291.1477478570
   12   -2291.1478323259      3.91E-09 Convergence criterion met
 Total energy in the final basis set = -2291.1478323259
   12   -2291.1478739949      4.06E-09 Convergence criterion met
 Total energy in the final basis set = -2291.1478739949
   11   -2291.1478844402      4.93E-09 Convergence criterion met
 Total energy in the final basis set = -2291.1478844402
    9   -2291.1478870476      8.06E-09 Convergence criterion met
 Total energy in the final basis set = -2291.1478870476

             Standard Nuclear Orientation (Angstroms)
    I     Atom           X                Y                Z
 ----------------------------------------------------------------
    1      C       7.6754998731     0.3189551420    -0.2506256013
    2      C       7.0217752524     1.4624945268     0.1782272210
    3      C       6.9110231990    -0.7901463944    -0.5754210200
    4      C       5.6436443513     1.4498121929     0.2666856785
    5      N       5.5878821732    -0.8189621118    -0.4886094760
    6      C       4.9652134743     0.2801556501    -0.0691394346
    7      C       3.4824391863     0.2500415154    -0.0051115674
    8      N       2.8571811111     1.3927331315    -0.0652014941
    9      C       2.7190842102    -0.9546265356     0.1338939226
   10      C       1.5033717780     1.4717548182    -0.0458574131
   11      N       3.1676158823    -2.2013766471     0.2928419754
   12      C       1.2899423865    -0.8659764523     0.1517877082
   13      C       0.6429868740     0.4030805763     0.0458127436
   14      S       1.8745339066    -3.1391021351     0.4238311898
   15      N       0.6947042974    -2.0486017529     0.3008067262
   16      C      -0.8064994067     0.5548312397     0.0380416899
   17      S      -1.8706159049    -0.7851368482    -0.1234585225
   18      C      -1.5678217084     1.7211990796     0.1163016790
   19      C      -3.2963234054     0.1432753739    -0.0664823016
   20      N      -1.0831479694     2.9890612820     0.2497120338
   21      C      -2.9776543188     1.4847789211     0.0536002818
   22      C      -4.6126172098    -0.4559146406    -0.2136024438
   23      C      -1.9726379843     3.9308655607     0.3071804240
   24      N      -3.8851389994     2.4980711306     0.1197590301
   25      C      -5.5504332517    -0.1873882402    -1.1670814848
   26      S      -5.1492532998    -1.7278062757     0.8284047903
   27      C      -3.3806746408     3.6858189136     0.2414505651
   28      C      -6.7067585746    -0.9966750784    -1.0515104717
   29      C      -6.6271970781    -1.8792824523    -0.0202377408
   30      H       8.7522407839     0.2839554463    -0.3372069330
   31      H       7.5790647238     2.3517646601     0.4396829191
   32      H       7.3825728756    -1.6998495132    -0.9288550698
   33      H       5.0837033449     2.3158680761     0.5841623949
   34      H       1.1015900439     2.4706528070    -0.1073193211
   35      H      -1.6151374650     4.9494469688     0.4127056366
   36      H      -5.4057755626     0.5707967229    -1.9209717322
   37      H      -4.0681114758     4.5225602174     0.2999111424
   38      H      -7.5587782102    -0.9287712364    -1.7102782936
   39      H      -7.3582856799    -2.6072937085     0.2874839564
 ----------------------------------------------------------------

    9   -2291.1478877963      4.34E-09 Convergence criterion met
 Total energy in the final basis set = -2291.1478877963
 Final energy is   -2291.14788779629
 **  OPTIMIZATION CONVERGED  **

                    Orbital Energies (a.u.)
 --------------------------------------------------------------

 Alpha MOs
 -- Occupied --
-89.146 -89.099 -89.079 -14.483 -14.479 -14.461 -14.460 -14.445
-14.434 -10.355 -10.352 -10.351 -10.345 -10.343 -10.342 -10.340
-10.340 -10.337 -10.336 -10.332 -10.330 -10.326 -10.324 -10.318
-10.310 -10.301 -10.298 -10.295 -10.295  -8.156  -8.113  -8.094
 -6.107  -6.101  -6.100  -6.062  -6.058  -6.057  -6.043  -6.040
 -6.037  -1.143  -1.100  -1.069  -1.049  -1.028  -1.013  -1.003
 -0.986  -0.925  -0.912  -0.896  -0.878  -0.868  -0.853  -0.839
 -0.811  -0.777  -0.771  -0.748  -0.738  -0.730  -0.716  -0.710
 -0.671  -0.656  -0.647  -0.629  -0.628  -0.620  -0.608  -0.604
 -0.586  -0.576  -0.568  -0.561  -0.558  -0.546  -0.543  -0.527
 -0.512  -0.507  -0.500  -0.498  -0.493  -0.492  -0.485  -0.481
 -0.475  -0.468  -0.463  -0.461  -0.449  -0.440  -0.429  -0.426
 -0.420  -0.411  -0.393  -0.376  -0.371  -0.360  -0.357  -0.343
 -0.340  -0.338  -0.335  -0.333  -0.320  -0.272

          Ground-State Mulliken Net Atomic Charges

     Atom                 Charge (a.u.)
  ----------------------------------------
      1 C                    -0.092381
      2 C                    -0.129091
      3 C                    -0.080269
      4 C                    -0.118437
      5 N                    -0.145557
      6 C                     0.083115
      7 C                     0.099276
      8 N                    -0.177240
      9 C                    -0.018072
     10 C                    -0.082580
     11 N                    -0.217678
     12 C                     0.053673
     13 C                     0.056283
     14 S                     0.405703
     15 N                    -0.305629
     16 C                    -0.066703
     17 S                     0.210096
     18 C                     0.045135
     19 C                    -0.089882
     20 N                    -0.169309
     21 C                     0.045687
     22 C                    -0.022502
     23 C                    -0.049211
     24 N                    -0.135838
     25 C                    -0.140623
     26 S                     0.119659
     27 C                    -0.049251
     28 C                    -0.149374
     29 C                    -0.184397
     30 H                     0.132996
     31 H                     0.120281
     32 H                     0.119315
     33 H                     0.137629
     34 H                     0.138500
     35 H                     0.128055
     36 H                     0.133663
     37 H                     0.131392
     38 H                     0.129654
     39 H                     0.133911
  ----------------------------------------
  Sum of atomic charges =     0.000000

                    Cartesian Multipole Moments
 -----------------------------------------------------------------
    Charge (ESU x 10^10)
                 0.0000
    Dipole Moment (Debye)
         X      -0.0091      Y       1.2714      Z      -0.0589
       Tot       1.2728
    Quadrupole Moments (Debye-Ang)
        XX    -153.9243     XY       4.9073     YY    -166.5242
        XZ       5.6370     YZ       0.1324     ZZ    -183.7945

 Total job time:  7405.86s(wall), 110617.19s(cpu)
        *  Thank you very much for using Q-Chem.  Have a nice day.  *
