 Q-Chem 4.4, Q-Chem, Inc., Pleasanton, CA (2016)
 Q-Chem 4.4.2 for Intel X86 Linux

User input:
--------------------------------------------------------------
$comment
OPTIMIZATION
$end

$rem
JOBTYPE OPT
EXCHANGE omegaB97X-D
BASIS cc-pVTZ
$end

$molecule
0 1
C          0.00000        0.00000        0.00000
C         -0.65396       -1.22126       -0.00000
C          1.38563        0.00000        0.00000
C          0.09526       -2.37957        0.00866
N          2.11912       -1.10562        0.01199
C          1.48546       -2.27640        0.02149
C          2.30642       -3.51253        0.03449
N          1.74513       -4.60745       -0.39909
C          3.65824       -3.56714        0.50995
C          2.40434       -5.79109       -0.42442
N          4.38617       -2.58332        1.04242
C          4.35289       -4.81920        0.47143
C          3.70163       -5.99343       -0.01477
S          5.80914       -3.21778        1.41887
N          5.59255       -4.74484        0.95148
C          4.33823       -7.30129       -0.04468
S          6.02589       -7.51949        0.20234
C          3.75434       -8.55173       -0.24928
C          5.99762       -9.21427        0.01351
N          2.43078       -8.79033       -0.46746
C          4.69159       -9.63209       -0.21260
C          7.19111      -10.02404        0.10954
C          2.09912      -10.03238       -0.63993
N          4.30733      -10.92364       -0.39820
C          8.47447       -9.66861       -0.20316
S          7.13813      -11.65984        0.68423
C          3.03978      -11.10696       -0.60697
C          9.40588      -10.71337        0.00712
C          8.82736      -11.84968        0.47832
H         -0.54853        0.93120        0.00000
H         -1.73532       -1.26909       -0.00410
H          1.93662        0.93286       -0.01167
H         -0.36319       -3.35650        0.00329
H          1.82722       -6.62671       -0.78554
H          1.05088      -10.24576       -0.82054
H          8.72519       -8.68471       -0.56217
H          2.69937      -12.12548       -0.75876
H         10.46250      -10.61827       -0.19182
H          9.30385      -12.78398        0.72123
$end

$opt
CONSTRAINT
tors 4 6 7 8 21.82164
tors 10 13 16 17 169.06444
tors 17 19 22 25 -30.00000
ENDCONSTRAINT
$end
--------------------------------------------------------------

   16   -2291.1497760720      5.09E-09 Convergence criterion met
 Total energy in the final basis set = -2291.1497760720
   13   -2291.1502368758      3.68E-09 Convergence criterion met
 Total energy in the final basis set = -2291.1502368758
   12   -2291.1503092982      5.84E-09 Convergence criterion met
 Total energy in the final basis set = -2291.1503092982
   11   -2291.1503498322      5.98E-09 Convergence criterion met
 Total energy in the final basis set = -2291.1503498322
   10   -2291.1503616740      7.16E-09 Convergence criterion met
 Total energy in the final basis set = -2291.1503616740
   10   -2291.1503673124      8.04E-09 Convergence criterion met
 Total energy in the final basis set = -2291.1503673124
    9   -2291.1503685357      9.41E-09 Convergence criterion met
 Total energy in the final basis set = -2291.1503685357

             Standard Nuclear Orientation (Angstroms)
    I     Atom           X                Y                Z
 ----------------------------------------------------------------
    1      C       7.6975853972     0.4537560626    -0.2379619059
    2      C       7.0047011195     1.6013717649     0.1114050414
    3      C       6.9707855053    -0.6968625505    -0.4985110468
    4      C       5.6268532033     1.5512328191     0.1883329404
    5      N       5.6481835575    -0.7615762299    -0.4222194820
    6      C       4.9880414530     0.3421805278    -0.0792356699
    7      C       3.5063381850     0.2721483350    -0.0235091680
    8      N       2.8493195432     1.3905542735    -0.1587811439
    9      C       2.7762465903    -0.9424616970     0.1882586241
   10      C       1.4942544105     1.4331996238    -0.1482274350
   11      N       3.2577761514    -2.1641933706     0.4251512688
   12      C       1.3449435205    -0.8924844372     0.1970046433
   13      C       0.6633646154     0.3487223802     0.0101480541
   14      S       1.9903571363    -3.1270965482     0.6129013818
   15      N       0.7812591496    -2.0789661482     0.4193091548
   16      C      -0.7881264638     0.4596505275    -0.0043309852
   17      S      -1.8178148034    -0.9170327915    -0.0817932734
   18      C      -1.5806471687     1.6063512330     0.0180986677
   19      C      -3.2688431378    -0.0232593789    -0.1357425006
   20      N      -1.1319589819     2.8912895415     0.1028446809
   21      C      -2.9824705297     1.3301870317    -0.0467812115
   22      C      -4.5494910458    -0.6917389755    -0.2181910628
   23      C      -2.0464603136     3.8108696618     0.1202963925
   24      N      -3.9142345241     2.3203441426    -0.0263676998
   25      C      -4.8165641324    -1.8991482912    -0.8075402517
   26      S      -5.9899757523    -0.0164875707     0.4606747273
   27      C      -3.4463717517     3.5267642983     0.0553241783
   28      C      -6.1711414386    -2.2870527217    -0.6942404046
   29      C      -6.9189976865    -1.3674612638    -0.0272639988
   30      H       8.7757765970     0.4470657198    -0.3124975246
   31      H       7.5315102553     2.5227926966     0.3191816076
   32      H       7.4747444132    -1.6118452535    -0.7879470296
   33      H       5.0358155566     2.4167545678     0.4451892763
   34      H       1.0657218373     2.4152175485    -0.2718499842
   35      H      -1.7164879025     4.8417659668     0.1898699403
   36      H      -4.0638237133    -2.4804190709    -1.3195131589
   37      H      -4.1577520902     4.3447446991     0.0744947106
   38      H      -6.5722589785    -3.2029981143    -1.0997063189
   39      H      -7.9738805314    -1.4017063252     0.1873361021
 ----------------------------------------------------------------

    9   -2291.1503689446      4.93E-09 Convergence criterion met
 Total energy in the final basis set = -2291.1503689446
 Final energy is   -2291.15036894465
 **  OPTIMIZATION CONVERGED  **

                    Orbital Energies (a.u.)
 --------------------------------------------------------------

 Alpha MOs
 -- Occupied --
-89.146 -89.099 -89.077 -14.483 -14.480 -14.462 -14.462 -14.445
-14.434 -10.355 -10.352 -10.351 -10.345 -10.343 -10.343 -10.342
-10.341 -10.337 -10.336 -10.334 -10.330 -10.326 -10.324 -10.317
-10.309 -10.301 -10.298 -10.297 -10.294  -8.157  -8.113  -8.092
 -6.107  -6.101  -6.101  -6.062  -6.058  -6.057  -6.041  -6.037
 -6.035  -1.143  -1.101  -1.068  -1.049  -1.029  -1.013  -1.003
 -0.986  -0.925  -0.912  -0.896  -0.879  -0.869  -0.853  -0.838
 -0.812  -0.777  -0.772  -0.748  -0.738  -0.730  -0.716  -0.711
 -0.671  -0.660  -0.645  -0.630  -0.628  -0.621  -0.606  -0.603
 -0.586  -0.576  -0.568  -0.561  -0.559  -0.548  -0.543  -0.527
 -0.512  -0.507  -0.500  -0.499  -0.493  -0.492  -0.484  -0.484
 -0.475  -0.467  -0.463  -0.461  -0.448  -0.441  -0.430  -0.427
 -0.419  -0.409  -0.392  -0.377  -0.372  -0.360  -0.357  -0.350
 -0.342  -0.340  -0.335  -0.330  -0.320  -0.265

          Ground-State Mulliken Net Atomic Charges

     Atom                 Charge (a.u.)
  ----------------------------------------
      1 C                    -0.092765
      2 C                    -0.129225
      3 C                    -0.080491
      4 C                    -0.118278
      5 N                    -0.146117
      6 C                     0.082742
      7 C                     0.099101
      8 N                    -0.176908
      9 C                    -0.018498
     10 C                    -0.084221
     11 N                    -0.217353
     12 C                     0.051492
     13 C                     0.061153
     14 S                     0.404135
     15 N                    -0.305379
     16 C                    -0.074144
     17 S                     0.180066
     18 C                     0.062382
     19 C                    -0.043231
     20 N                    -0.170107
     21 C                     0.031593
     22 C                     0.012549
     23 C                    -0.046933
     24 N                    -0.150232
     25 C                    -0.185418
     26 S                     0.140704
     27 C                    -0.047816
     28 C                    -0.152538
     29 C                    -0.186704
     30 H                     0.132975
     31 H                     0.120224
     32 H                     0.119794
     33 H                     0.137853
     34 H                     0.137752
     35 H                     0.128538
     36 H                     0.130011
     37 H                     0.129537
     38 H                     0.128394
     39 H                     0.135364
  ----------------------------------------
  Sum of atomic charges =     0.000000

                    Cartesian Multipole Moments
 -----------------------------------------------------------------
    Charge (ESU x 10^10)
                 0.0000
    Dipole Moment (Debye)
         X       0.0847      Y       0.8584      Z       0.1989
       Tot       0.8852
    Quadrupole Moments (Debye-Ang)
        XX    -155.7303     XY       6.2059     YY    -164.3671
        XZ       1.8992     YZ       3.4357     ZZ    -186.1022

 Total job time:  7314.06s(wall), 109331.11s(cpu)
        *  Thank you very much for using Q-Chem.  Have a nice day.  *
