 Q-Chem 4.4, Q-Chem, Inc., Pleasanton, CA (2016)
 Q-Chem 4.4.2 for Intel X86 Linux

User input:
--------------------------------------------------------------
$comment
OPTIMIZATION
$end

$rem
JOBTYPE OPT
EXCHANGE omegaB97X-D
BASIS cc-pVTZ
$end

$molecule
0 1
C          0.00000        0.00000        0.00000
C         -0.65396       -1.22126       -0.00000
C          1.38563        0.00000        0.00000
C          0.09526       -2.37957        0.00866
N          2.11912       -1.10562        0.01199
C          1.48546       -2.27640        0.02149
C          2.30642       -3.51253        0.03449
N          1.74513       -4.60745       -0.39909
C          3.65824       -3.56714        0.50995
C          2.40434       -5.79109       -0.42442
N          4.38617       -2.58332        1.04242
C          4.35289       -4.81920        0.47143
C          3.70163       -5.99343       -0.01477
S          5.80914       -3.21778        1.41887
N          5.59255       -4.74484        0.95148
C          4.33823       -7.30129       -0.04468
S          6.02589       -7.51949        0.20234
C          3.75434       -8.55173       -0.24928
C          5.99762       -9.21427        0.01351
N          2.43078       -8.79033       -0.46746
C          4.69159       -9.63209       -0.21260
C          7.19111      -10.02404        0.10954
C          2.09912      -10.03238       -0.63993
N          4.30733      -10.92364       -0.39820
C          8.19449      -10.15337       -0.81112
S          7.52473      -10.99217        1.50967
C          3.03978      -11.10696       -0.60697
C          9.21822      -11.03763       -0.39480
C          8.98842      -11.57004        0.83469
H         -0.54853        0.93120        0.00000
H         -1.73532       -1.26909       -0.00410
H          1.93662        0.93286       -0.01167
H         -0.36319       -3.35650        0.00329
H          1.82722       -6.62671       -0.78554
H          1.05088      -10.24576       -0.82054
H          8.18678       -9.61864       -1.74591
H          2.69937      -12.12548       -0.75876
H         10.08592      -11.26841       -0.99387
H          9.60330      -12.26434        1.38134
$end

$opt
CONSTRAINT
tors 4 6 7 8 21.82164
tors 10 13 16 17 169.06444
tors 17 19 22 25 -75.00000
ENDCONSTRAINT
$end
--------------------------------------------------------------

   16   -2291.1461797406      4.85E-09 Convergence criterion met
 Total energy in the final basis set = -2291.1461797406
   12   -2291.1465830929      7.09E-09 Convergence criterion met
 Total energy in the final basis set = -2291.1465830929
   12   -2291.1466661918      6.83E-09 Convergence criterion met
 Total energy in the final basis set = -2291.1466661918
   11   -2291.1467176610      6.89E-09 Convergence criterion met
 Total energy in the final basis set = -2291.1467176610
   11   -2291.1467389261      5.94E-09 Convergence criterion met
 Total energy in the final basis set = -2291.1467389261
   11   -2291.1467479562      5.03E-09 Convergence criterion met
 Total energy in the final basis set = -2291.1467479562
    9   -2291.1467497441      5.50E-09 Convergence criterion met
 Total energy in the final basis set = -2291.1467497441

             Standard Nuclear Orientation (Angstroms)
    I     Atom           X                Y                Z
 ----------------------------------------------------------------
    1      C       7.7014031036     0.3890448375    -0.1889767554
    2      C       7.0206063186     1.5315748809     0.1985035012
    3      C       6.9617994178    -0.7408285199    -0.4996570866
    4      C       5.6414827929     1.4972322021     0.2621196125
    5      N       5.6379483640    -0.7905483138    -0.4360843370
    6      C       4.9893528748     0.3078759733    -0.0560209093
    7      C       3.5063406019     0.2541844908    -0.0156885646
    8      N       2.8638577739     1.3845301726    -0.1143091165
    9      C       2.7606796889    -0.9592581784     0.1429774992
   10      C       1.5086536302     1.4417081577    -0.1164456146
   11      N       3.2264192834    -2.1939746075     0.3413982883
   12      C       1.3302692797    -0.8933737296     0.1378065834
   13      C       0.6650313741     0.3615626284    -0.0104616997
   14      S       1.9463870178    -3.1484764895     0.4798720139
   15      N       0.7513085725    -2.0807479856     0.3109636817
   16      C      -0.7870636485     0.4887529902    -0.0364603917
   17      S      -1.8295388291    -0.8687162961    -0.1794730512
   18      C      -1.5664552622     1.6450903104     0.0152998149
   19      C      -3.2660453760     0.0432275549    -0.2086097561
   20      N      -1.1027035641     2.9211148725     0.1437360213
   21      C      -2.9710264401     1.3872169553    -0.0739005401
   22      C      -4.5717379155    -0.6007052388    -0.2969082081
   23      C      -2.0072950702     3.8496136869     0.1772945110
   24      N      -3.8953937288     2.3872344140    -0.0342149803
   25      C      -5.1513010963    -1.1771085506    -1.3883926703
   26      S      -5.6389914720    -0.6545094175     1.0602980718
   27      C      -3.4104154051     3.5827106115     0.0876599465
   28      C      -6.4517991119    -1.6768187687    -1.1291510132
   29      C      -6.8440135920    -1.4635842849     0.1548754678
   30      H       8.7800147760     0.3706372609    -0.2548553823
   31      H       7.5577651257     2.4366789012     0.4473977421
   32      H       7.4554854318    -1.6506777332    -0.8210808434
   33      H       5.0602846672     2.3607097867     0.5468456527
   34      H       1.0917930791     2.4323142983    -0.2070559154
   35      H      -1.6676768946     4.8744697776     0.2810276610
   36      H      -4.6564623536    -1.2300603700    -2.3464756752
   37      H      -4.1105556558     4.4101750677     0.1235496127
   38      H      -7.0668860503    -2.1708280991    -1.8652919177
   39      H      -7.7762914132    -1.7408868593     0.6170440786
 ----------------------------------------------------------------

    9   -2291.1467504544      3.75E-09 Convergence criterion met
 Total energy in the final basis set = -2291.1467504544
 Final energy is   -2291.14675045436
 **  OPTIMIZATION CONVERGED  **

                    Orbital Energies (a.u.)
 --------------------------------------------------------------

 Alpha MOs
 -- Occupied --
-89.147 -89.099 -89.077 -14.483 -14.480 -14.461 -14.459 -14.446
-14.435 -10.355 -10.353 -10.351 -10.344 -10.343 -10.342 -10.340
-10.339 -10.337 -10.336 -10.332 -10.331 -10.327 -10.324 -10.317
-10.310 -10.301 -10.299 -10.296 -10.294  -8.157  -8.113  -8.092
 -6.107  -6.101  -6.101  -6.062  -6.058  -6.057  -6.041  -6.038
 -6.035  -1.144  -1.100  -1.069  -1.049  -1.028  -1.013  -1.003
 -0.986  -0.925  -0.912  -0.896  -0.878  -0.867  -0.852  -0.838
 -0.811  -0.777  -0.771  -0.749  -0.738  -0.730  -0.716  -0.710
 -0.670  -0.658  -0.645  -0.629  -0.628  -0.620  -0.608  -0.604
 -0.586  -0.576  -0.568  -0.561  -0.559  -0.546  -0.543  -0.527
 -0.512  -0.507  -0.499  -0.498  -0.493  -0.492  -0.484  -0.481
 -0.475  -0.468  -0.463  -0.461  -0.449  -0.438  -0.428  -0.425
 -0.420  -0.411  -0.393  -0.376  -0.371  -0.360  -0.357  -0.342
 -0.339  -0.337  -0.334  -0.331  -0.319  -0.277

          Ground-State Mulliken Net Atomic Charges

     Atom                 Charge (a.u.)
  ----------------------------------------
      1 C                    -0.092466
      2 C                    -0.128977
      3 C                    -0.080171
      4 C                    -0.118221
      5 N                    -0.145784
      6 C                     0.082758
      7 C                     0.100003
      8 N                    -0.177509
      9 C                    -0.017723
     10 C                    -0.080835
     11 N                    -0.217518
     12 C                     0.052964
     13 C                     0.058223
     14 S                     0.405693
     15 N                    -0.305125
     16 C                    -0.071384
     17 S                     0.218105
     18 C                     0.045947
     19 C                    -0.097278
     20 N                    -0.169720
     21 C                     0.041653
     22 C                    -0.024926
     23 C                    -0.049715
     24 N                    -0.130394
     25 C                    -0.160262
     26 S                     0.135325
     27 C                    -0.049213
     28 C                    -0.151659
     29 C                    -0.181676
     30 H                     0.133083
     31 H                     0.120374
     32 H                     0.119733
     33 H                     0.137915
     34 H                     0.138147
     35 H                     0.128150
     36 H                     0.136532
     37 H                     0.132065
     38 H                     0.129774
     39 H                     0.134108
  ----------------------------------------
  Sum of atomic charges =     0.000000

                    Cartesian Multipole Moments
 -----------------------------------------------------------------
    Charge (ESU x 10^10)
                 0.0000
    Dipole Moment (Debye)
         X       0.2241      Y       0.9765      Z       0.0303
       Tot       1.0023
    Quadrupole Moments (Debye-Ang)
        XX    -155.4408     XY       6.6162     YY    -167.8184
        XZ       3.4244     YZ       3.1130     ZZ    -182.2760

 Total job time:  7297.50s(wall), 109023.82s(cpu)
        *  Thank you very much for using Q-Chem.  Have a nice day.  *
