 Q-Chem 4.4, Q-Chem, Inc., Pleasanton, CA (2016)
 Q-Chem 4.4.2 for Intel X86 Linux

User input:
--------------------------------------------------------------
$comment
OPTIMIZATION
$end

$rem
JOBTYPE OPT
EXCHANGE omegaB97X-D
BASIS cc-pVTZ
$end

$molecule
0 1
C          0.00000        0.00000        0.00000
C         -0.65396       -1.22126       -0.00000
C          1.38563        0.00000        0.00000
C          0.09526       -2.37957        0.00866
N          2.11912       -1.10562        0.01199
C          1.48546       -2.27640        0.02149
C          2.30642       -3.51253        0.03449
N          1.74513       -4.60745       -0.39909
C          3.65824       -3.56714        0.50995
C          2.40434       -5.79109       -0.42442
N          4.38617       -2.58332        1.04242
C          4.35289       -4.81920        0.47143
C          3.70163       -5.99343       -0.01477
S          5.80914       -3.21778        1.41887
N          5.59255       -4.74484        0.95148
C          4.33823       -7.30129       -0.04468
S          6.02589       -7.51949        0.20234
C          3.75434       -8.55173       -0.24928
C          5.99762       -9.21427        0.01351
N          2.43078       -8.79033       -0.46746
C          4.69159       -9.63209       -0.21260
C          7.19111      -10.02404        0.10954
C          2.09912      -10.03238       -0.63993
N          4.30733      -10.92364       -0.39820
C          7.58537      -11.03999       -0.71722
S          8.35753       -9.78126        1.37027
C          3.03978      -11.10696       -0.60697
C          8.81323      -11.62660       -0.32798
C          9.34272      -11.05370        0.78528
H         -0.54853        0.93120        0.00000
H         -1.73532       -1.26909       -0.00410
H          1.93662        0.93286       -0.01167
H         -0.36319       -3.35650        0.00329
H          1.82722       -6.62671       -0.78554
H          1.05088      -10.24576       -0.82054
H          7.00683      -11.33751       -1.57546
H          2.69937      -12.12548       -0.75876
H          9.27588      -12.44603       -0.85670
H         10.26060      -11.30668        1.28775
$end

$opt
CONSTRAINT
tors 4 6 7 8 21.82164
tors 10 13 16 17 169.06444
tors 17 19 22 25 -135.00000
ENDCONSTRAINT
$end
--------------------------------------------------------------

   16   -2291.1488791985      5.21E-09 Convergence criterion met
 Total energy in the final basis set = -2291.1488791985
   12   -2291.1491998394      5.05E-09 Convergence criterion met
 Total energy in the final basis set = -2291.1491998394
   12   -2291.1492881243      5.37E-09 Convergence criterion met
 Total energy in the final basis set = -2291.1492881243
   11   -2291.1493506462      8.10E-09 Convergence criterion met
 Total energy in the final basis set = -2291.1493506462
   12   -2291.1493764061      3.37E-09 Convergence criterion met
 Total energy in the final basis set = -2291.1493764061
   10   -2291.1493816151      9.00E-09 Convergence criterion met
 Total energy in the final basis set = -2291.1493816151
    9   -2291.1493828339      6.54E-09 Convergence criterion met
 Total energy in the final basis set = -2291.1493828339

             Standard Nuclear Orientation (Angstroms)
    I     Atom           X                Y                Z
 ----------------------------------------------------------------
    1      C       7.6747611069     0.3149886187    -0.2404511379
    2      C       7.0206555371     1.4587409926     0.1872800998
    3      C       6.9100729035    -0.7919510606    -0.5720272961
    4      C       5.6420426777     1.4483751234     0.2678699648
    5      N       5.5864071694    -0.8185761315    -0.4927543637
    6      C       4.9632893700     0.2807409243    -0.0744543575
    7      C       3.4802061616     0.2531399024    -0.0176355246
    8      N       2.8572761184     1.3972278167    -0.0776124156
    9      C       2.7138639160    -0.9502606010     0.1153832733
   10      C       1.5038005969     1.4794012347    -0.0611658858
   11      N       3.1589895518    -2.1988622168     0.2696656929
   12      C       1.2849020114    -0.8582807907     0.1314112376
   13      C       0.6406507798     0.4124950391     0.0287473211
   14      S       1.8634810300    -3.1340297275     0.3946532563
   15      N       0.6865719828    -2.0400460541     0.2746113944
   16      C      -0.8078290314     0.5671036191     0.0248336687
   17      S      -1.8747949528    -0.7714062557    -0.1390071825
   18      C      -1.5676148053     1.7337390808     0.1093047716
   19      C      -3.3000964461     0.1578766803    -0.0717541052
   20      N      -1.0802372490     3.0002051864     0.2446625218
   21      C      -2.9780860501     1.5002208509     0.0522072771
   22      C      -4.6150676919    -0.4403223042    -0.1894066536
   23      C      -1.9672828442     3.9438608252     0.3116423854
   24      N      -3.8819469864     2.5148515529     0.1303641901
   25      C      -5.6703674239    -0.0053378628    -0.9391126512
   26      S      -5.0107998115    -1.9163124415     0.6231844625
   27      C      -3.3755552789     3.7019675880     0.2547514640
   28      C      -6.7972173856    -0.8582146681    -0.8551543667
   29      C      -6.5835345633    -1.9342199806    -0.0517652195
   30      H       8.7519170345     0.2781617078    -0.3209265560
   31      H       7.5780143114     2.3463896462     0.4540723348
   32      H       7.3819495723    -1.7017426997    -0.9248129636
   33      H       5.0818735920     2.3147138736     0.5841723106
   34      H       1.1044523277     2.4792958983    -0.1218606790
   35      H      -1.6067121884     4.9611875259     0.4187567344
   36      H      -5.6324956064     0.9020913095    -1.5206120036
   37      H      -4.0618077269     4.5388120624     0.3231277756
   38      H      -7.7262720569    -0.6822375120    -1.3752982025
   39      H      -7.2669726404    -2.7314966275     0.1854190571
 ----------------------------------------------------------------

    8   -2291.1493830704      6.23E-09 Convergence criterion met
 Total energy in the final basis set = -2291.1493830704
 Final energy is   -2291.14938307045
 **  OPTIMIZATION CONVERGED  **

                    Orbital Energies (a.u.)
 --------------------------------------------------------------

 Alpha MOs
 -- Occupied --
-89.146 -89.099 -89.080 -14.482 -14.479 -14.462 -14.461 -14.445
-14.434 -10.355 -10.352 -10.350 -10.345 -10.342 -10.342 -10.341
-10.341 -10.337 -10.336 -10.333 -10.330 -10.326 -10.323 -10.319
-10.309 -10.301 -10.298 -10.295 -10.295  -8.156  -8.113  -8.095
 -6.106  -6.101  -6.100  -6.062  -6.058  -6.057  -6.044  -6.040
 -6.038  -1.143  -1.101  -1.068  -1.048  -1.029  -1.013  -1.003
 -0.986  -0.925  -0.912  -0.896  -0.878  -0.868  -0.853  -0.839
 -0.811  -0.777  -0.772  -0.748  -0.738  -0.730  -0.716  -0.710
 -0.671  -0.656  -0.648  -0.629  -0.628  -0.620  -0.608  -0.603
 -0.586  -0.576  -0.567  -0.560  -0.558  -0.547  -0.543  -0.526
 -0.512  -0.507  -0.500  -0.498  -0.493  -0.492  -0.486  -0.482
 -0.474  -0.467  -0.463  -0.461  -0.450  -0.441  -0.429  -0.426
 -0.419  -0.412  -0.393  -0.376  -0.371  -0.360  -0.357  -0.346
 -0.341  -0.339  -0.335  -0.334  -0.321  -0.268

          Ground-State Mulliken Net Atomic Charges

     Atom                 Charge (a.u.)
  ----------------------------------------
      1 C                    -0.092523
      2 C                    -0.129173
      3 C                    -0.080356
      4 C                    -0.118509
      5 N                    -0.145499
      6 C                     0.082966
      7 C                     0.099012
      8 N                    -0.177028
      9 C                    -0.018361
     10 C                    -0.083800
     11 N                    -0.217738
     12 C                     0.053705
     13 C                     0.057207
     14 S                     0.405395
     15 N                    -0.305862
     16 C                    -0.068376
     17 S                     0.197789
     18 C                     0.048873
     19 C                    -0.071081
     20 N                    -0.169278
     21 C                     0.048555
     22 C                    -0.013354
     23 C                    -0.048357
     24 N                    -0.146177
     25 C                    -0.142757
     26 S                     0.112673
     27 C                    -0.047122
     28 C                    -0.151387
     29 C                    -0.183802
     30 H                     0.132929
     31 H                     0.120200
     32 H                     0.119258
     33 H                     0.137577
     34 H                     0.138384
     35 H                     0.128083
     36 H                     0.132840
     37 H                     0.130606
     38 H                     0.130009
     39 H                     0.134478
  ----------------------------------------
  Sum of atomic charges =     0.000000

                    Cartesian Multipole Moments
 -----------------------------------------------------------------
    Charge (ESU x 10^10)
                 0.0000
    Dipole Moment (Debye)
         X      -0.1868      Y       1.3674      Z       0.0821
       Tot       1.3826
    Quadrupole Moments (Debye-Ang)
        XX    -152.7090     XY       3.9669     YY    -165.6633
        XZ       5.2315     YZ       0.1380     ZZ    -185.1757

 Total job time:  7264.93s(wall), 108484.82s(cpu)
        *  Thank you very much for using Q-Chem.  Have a nice day.  *
