 Q-Chem 4.4, Q-Chem, Inc., Pleasanton, CA (2016)
 Q-Chem 4.4.2 for Intel X86 Linux

User input:
--------------------------------------------------------------
$comment
OPTIMIZATION
$end

$rem
JOBTYPE OPT
EXCHANGE omegaB97X-D
BASIS cc-pVTZ
$end

$molecule
0 1
C          0.00000        0.00000        0.00000
C         -0.65396       -1.22126       -0.00000
C          1.38563        0.00000        0.00000
C          0.09526       -2.37957        0.00866
N          2.11912       -1.10562        0.01199
C          1.48546       -2.27640        0.02149
C          2.30642       -3.51253        0.03449
N          1.74513       -4.60745       -0.39909
C          3.65824       -3.56714        0.50995
C          2.40434       -5.79109       -0.42442
N          4.38617       -2.58332        1.04242
C          4.35289       -4.81920        0.47143
C          3.70163       -5.99343       -0.01477
S          5.80914       -3.21778        1.41887
N          5.59255       -4.74484        0.95148
C          4.33823       -7.30129       -0.04468
S          6.02589       -7.51949        0.20234
C          3.75434       -8.55173       -0.24928
C          5.99762       -9.21427        0.01351
N          2.43078       -8.79033       -0.46746
C          4.69159       -9.63209       -0.21260
C          7.19111      -10.02404        0.10954
C          2.09912      -10.03238       -0.63993
N          4.30733      -10.92364       -0.39820
C          8.18358       -9.94898        1.04789
S          7.52881      -11.28736       -1.03015
C          3.03978      -11.10696       -0.60697
C          9.21528      -10.89547        0.84047
C          8.99989      -11.68148       -0.24752
H         -0.54853        0.93120        0.00000
H         -1.73532       -1.26909       -0.00410
H          1.93662        0.93286       -0.01167
H         -0.36319       -3.35650        0.00329
H          1.82722       -6.62671       -0.78554
H          1.05088      -10.24576       -0.82054
H          8.15437       -9.23910        1.85722
H          2.69937      -12.12548       -0.75876
H         10.08351      -10.97902        1.47627
H          9.62269      -12.47383       -0.62602
$end

$opt
CONSTRAINT
tors 4 6 7 8 21.82164
tors 10 13 16 17 169.06444
tors 17 19 22 25 45.00000
ENDCONSTRAINT
$end
--------------------------------------------------------------

   16   -2291.1488093136      4.96E-09 Convergence criterion met
 Total energy in the final basis set = -2291.1488093136
   12   -2291.1492224145      6.38E-09 Convergence criterion met
 Total energy in the final basis set = -2291.1492224145
   12   -2291.1492911676      5.76E-09 Convergence criterion met
 Total energy in the final basis set = -2291.1492911676
   11   -2291.1493380186      6.48E-09 Convergence criterion met
 Total energy in the final basis set = -2291.1493380186
   11   -2291.1493532909      4.93E-09 Convergence criterion met
 Total energy in the final basis set = -2291.1493532909
   11   -2291.1493615252      5.77E-09 Convergence criterion met
 Total energy in the final basis set = -2291.1493615252

             Standard Nuclear Orientation (Angstroms)
    I     Atom           X                Y                Z
 ----------------------------------------------------------------
    1      C       7.6933918667     0.4616377159    -0.3360369202
    2      C       7.0115886387     1.5903116997     0.0885727742
    3      C       6.9575063388    -0.6721025619    -0.6413348353
    4      C       5.6355358568     1.5388484394     0.1930933190
    5      N       5.6367849386    -0.7382170702    -0.5389462159
    6      C       4.9873885509     0.3468133819    -0.1233384635
    7      C       3.5072049210     0.2743486095    -0.0373717149
    8      N       2.8480646689     1.3978521540    -0.0976580243
    9      C       2.7813759166    -0.9503988872     0.1248191925
   10      C       1.4933356521     1.4385115713    -0.0544278719
   11      N       3.2681906010    -2.1824828393     0.2847115524
   12      C       1.3505372240    -0.9025758031     0.1674020501
   13      C       0.6656144678     0.3464821704     0.0626789007
   14      S       2.0053703688    -3.1556921258     0.4462169416
   15      N       0.7920341599    -2.1004312468     0.3365262459
   16      C      -0.7865920112     0.4574130813     0.0858482607
   17      S      -1.8182850405    -0.9122189134    -0.0439501859
   18      C      -1.5779287419     1.6024029533     0.1778546649
   19      C      -3.2682088039    -0.0239735901     0.0523886587
   20      N      -1.1259067684     2.8840802849     0.2911802619
   21      C      -2.9816683302     1.3274520322     0.1543429124
   22      C      -4.5525365233    -0.6937535825    -0.0145970075
   23      C      -2.0388321187     3.8019416801     0.3680811139
   24      N      -3.9129558605     2.3156390417     0.2431473311
   25      C      -4.9304150368    -1.8343518899     0.6394815272
   26      S      -5.8576929576    -0.0743463277    -0.9623599866
   27      C      -3.4404894873     3.5185008177     0.3441388345
   28      C      -6.2623398063    -2.2202919065     0.3581435260
   29      C      -6.8822446721    -1.3623040455    -0.4953816251
   30      H       8.7696645789     0.4570536249    -0.4344295855
   31      H       7.5456475826     2.4979785805     0.3348771853
   32      H       7.4511286050    -1.5715456011    -0.9908429164
   33      H       5.0537681363     2.3915676507     0.5074863822
   34      H       1.0619278183     2.4249242464    -0.1172362663
   35      H      -1.7065189767     4.8305245333     0.4578876427
   36      H      -4.2729976681    -2.3702875158     1.3077960238
   37      H      -4.1503836786     4.3346508758     0.4197240920
   38      H      -6.7385946440    -3.0911651535     0.7812143394
   39      H      -7.8920528360    -1.4093502922    -0.8665274648
 ----------------------------------------------------------------

    9   -2291.1493624357      4.60E-09 Convergence criterion met
 Total energy in the final basis set = -2291.1493624357
 Final energy is   -2291.14936243570
 **  OPTIMIZATION CONVERGED  **

                    Orbital Energies (a.u.)
 --------------------------------------------------------------

 Alpha MOs
 -- Occupied --
-89.146 -89.099 -89.077 -14.483 -14.480 -14.461 -14.461 -14.445
-14.434 -10.355 -10.352 -10.351 -10.345 -10.342 -10.342 -10.341
-10.341 -10.337 -10.336 -10.334 -10.330 -10.326 -10.324 -10.317
-10.310 -10.301 -10.298 -10.297 -10.294  -8.157  -8.113  -8.092
 -6.107  -6.101  -6.100  -6.062  -6.058  -6.057  -6.042  -6.038
 -6.035  -1.143  -1.101  -1.068  -1.049  -1.029  -1.013  -1.003
 -0.986  -0.925  -0.912  -0.896  -0.879  -0.868  -0.853  -0.838
 -0.812  -0.777  -0.771  -0.748  -0.738  -0.730  -0.716  -0.710
 -0.670  -0.660  -0.645  -0.629  -0.628  -0.621  -0.607  -0.603
 -0.586  -0.576  -0.568  -0.561  -0.559  -0.547  -0.542  -0.527
 -0.512  -0.507  -0.500  -0.498  -0.493  -0.492  -0.484  -0.483
 -0.475  -0.467  -0.464  -0.461  -0.448  -0.440  -0.430  -0.425
 -0.420  -0.410  -0.393  -0.376  -0.372  -0.360  -0.358  -0.346
 -0.342  -0.340  -0.335  -0.330  -0.321  -0.268

          Ground-State Mulliken Net Atomic Charges

     Atom                 Charge (a.u.)
  ----------------------------------------
      1 C                    -0.092673
      2 C                    -0.129291
      3 C                    -0.080377
      4 C                    -0.118397
      5 N                    -0.145674
      6 C                     0.082851
      7 C                     0.099178
      8 N                    -0.177158
      9 C                    -0.018569
     10 C                    -0.083155
     11 N                    -0.217141
     12 C                     0.054083
     13 C                     0.057900
     14 S                     0.404372
     15 N                    -0.306802
     16 C                    -0.073387
     17 S                     0.198025
     18 C                     0.054889
     19 C                    -0.058145
     20 N                    -0.169929
     21 C                     0.030442
     22 C                     0.000948
     23 C                    -0.047871
     24 N                    -0.143677
     25 C                    -0.183753
     26 S                     0.140564
     27 C                    -0.047994
     28 C                    -0.152951
     29 C                    -0.183938
     30 H                     0.133002
     31 H                     0.120303
     32 H                     0.119442
     33 H                     0.137831
     34 H                     0.138016
     35 H                     0.128055
     36 H                     0.137041
     37 H                     0.130740
     38 H                     0.128389
     39 H                     0.134813
  ----------------------------------------
  Sum of atomic charges =     0.000000

                    Cartesian Multipole Moments
 -----------------------------------------------------------------
    Charge (ESU x 10^10)
                 0.0000
    Dipole Moment (Debye)
         X       0.0862      Y       0.8104      Z       0.7616
       Tot       1.1155
    Quadrupole Moments (Debye-Ang)
        XX    -155.4930     XY       6.5969     YY    -165.0775
        XZ       1.4364     YZ      -0.4335     ZZ    -185.3120

 Total job time:  6568.47s(wall), 98062.27s(cpu)
        *  Thank you very much for using Q-Chem.  Have a nice day.  *
