 Q-Chem 4.4, Q-Chem, Inc., Pleasanton, CA (2016)
 Q-Chem 4.4.2 for Intel X86 Linux

User input:
--------------------------------------------------------------
$comment
OPTIMIZATION
$end

$rem
JOBTYPE OPT
EXCHANGE omegaB97X-D
BASIS cc-pVTZ
$end

$molecule
0 1
C          0.00000        0.00000        0.00000
C         -0.65396       -1.22126       -0.00000
C          1.38563        0.00000        0.00000
C          0.09526       -2.37957        0.00866
N          2.11912       -1.10562        0.01199
C          1.48546       -2.27640        0.02149
C          2.30642       -3.51253        0.03449
N          1.74513       -4.60745       -0.39909
C          3.65824       -3.56714        0.50995
C          2.40434       -5.79109       -0.42442
N          4.38617       -2.58332        1.04242
C          4.35289       -4.81920        0.47143
C          3.70163       -5.99343       -0.01477
S          5.80914       -3.21778        1.41887
N          5.59255       -4.74484        0.95148
C          4.33823       -7.30129       -0.04468
S          6.02589       -7.51949        0.20234
C          3.75434       -8.55173       -0.24928
C          5.99762       -9.21427        0.01351
N          2.43078       -8.79033       -0.46746
C          4.69159       -9.63209       -0.21260
C          7.19111      -10.02404        0.10954
C          2.09912      -10.03238       -0.63993
N          4.30733      -10.92364       -0.39820
C          8.47121       -9.60753        0.35242
S          7.13935      -11.74806       -0.07482
C          3.03978      -11.10696       -0.60697
C          9.40500      -10.67089        0.37629
C          8.83079      -11.88299        0.15489
H         -0.54853        0.93120        0.00000
H         -1.73532       -1.26909       -0.00410
H          1.93662        0.93286       -0.01167
H         -0.36319       -3.35650        0.00329
H          1.82722       -6.62671       -0.78554
H          1.05088      -10.24576       -0.82054
H          8.71551       -8.57128        0.51465
H          2.69937      -12.12548       -0.75876
H         10.46177      -10.53179        0.54640
H          9.30964      -12.84659        0.12131
$end

$opt
CONSTRAINT
tors 4 6 7 8 21.82164
tors 10 13 16 17 169.06444
tors 17 19 22 25 0.00000
ENDCONSTRAINT
$end
--------------------------------------------------------------

   16   -2291.1505504961      5.72E-09 Convergence criterion met
 Total energy in the final basis set = -2291.1505504961
   13   -2291.1509087590      3.96E-09 Convergence criterion met
 Total energy in the final basis set = -2291.1509087590
   11   -2291.1509779823      9.79E-09 Convergence criterion met
 Total energy in the final basis set = -2291.1509779823
   11   -2291.1510054322      6.95E-09 Convergence criterion met
 Total energy in the final basis set = -2291.1510054322
   10   -2291.1510174010      9.42E-09 Convergence criterion met
 Total energy in the final basis set = -2291.1510174010
   10   -2291.1510229365      8.81E-09 Convergence criterion met
 Total energy in the final basis set = -2291.1510229365

             Standard Nuclear Orientation (Angstroms)
    I     Atom           X                Y                Z
 ----------------------------------------------------------------
    1      C       7.7026155657     0.5009707389    -0.2670900417
    2      C       7.0025676854     1.6336879660     0.1150345510
    3      C       6.9833139380    -0.6483488680    -0.5530776907
    4      C       5.6256114437     1.5706518691     0.1978528996
    5      N       5.6617008754    -0.7255876874    -0.4713116279
    6      C       4.9946726186     0.3638150248    -0.0971049129
    7      C       3.5139975293     0.2804189144    -0.0341150707
    8      N       2.8474052084     1.3967860079    -0.1362722247
    9      C       2.7944780033    -0.9447878263     0.1502803533
   10      C       1.4925696814     1.4287230922    -0.1143847859
   11      N       3.2872990772    -2.1688163358     0.3488610838
   12      C       1.3626544861    -0.9064381935     0.1717944709
   13      C       0.6704496826     0.3342959134     0.0238453061
   14      S       2.0291459682    -3.1466391703     0.5190943755
   15      N       0.8101375015    -2.1033283036     0.3649664600
   16      C      -0.7810002037     0.4376202496     0.0260828985
   17      S      -1.8035660056    -0.9444639522    -0.0774853588
   18      C      -1.5798717558     1.5777521594     0.0787351822
   19      C      -3.2645286163    -0.0618297685    -0.0644524736
   20      N      -1.1399273550     2.8648307572     0.1765603193
   21      C      -2.9798711067     1.2921429041     0.0304785443
   22      C      -4.5472572658    -0.7250832401    -0.1311330582
   23      C      -2.0601315960     3.7778316001     0.2192847751
   24      N      -3.9166743387     2.2751542950     0.0800431409
   25      C      -4.7789925764    -2.0741106209    -0.2099498498
   26      S      -6.0466976737     0.1455185851    -0.1178312228
   27      C      -3.4587049527     3.4846530602     0.1707970747
   28      C      -6.1510514834    -2.4052870670    -0.2585474674
   29      C      -6.9490910601    -1.3051251451    -0.2174121124
   30      H       8.7803822126     0.5049892718    -0.3476063222
   31      H       7.5231910819     2.5534588745     0.3446379597
   32      H       7.4924748409    -1.5516965029    -0.8686939501
   33      H       5.0294760842     2.4249519975     0.4793054682
   34      H       1.0557143505     2.4100475509    -0.2107733116
   35      H      -1.7363771630     4.8099617430     0.2986012113
   36      H      -3.9865071740    -2.8078723940    -0.2339879120
   37      H      -4.1768182350     4.2956420212     0.2145627514
   38      H      -6.5260929350    -3.4152055183    -0.3204202128
   39      H      -8.0252852708    -1.2668412682    -0.2400551626
 ----------------------------------------------------------------

    9   -2291.1510238312      6.66E-09 Convergence criterion met
 Total energy in the final basis set = -2291.1510238312
 Final energy is   -2291.15102383124
 **  OPTIMIZATION CONVERGED  **

                    Orbital Energies (a.u.)
 --------------------------------------------------------------

 Alpha MOs
 -- Occupied --
-89.147 -89.098 -89.076 -14.483 -14.480 -14.463 -14.463 -14.445
-14.434 -10.355 -10.352 -10.351 -10.346 -10.344 -10.344 -10.343
-10.341 -10.337 -10.336 -10.335 -10.331 -10.326 -10.324 -10.315
-10.309 -10.301 -10.298 -10.296 -10.294  -8.157  -8.113  -8.091
 -6.107  -6.101  -6.101  -6.062  -6.058  -6.056  -6.040  -6.036
 -6.034  -1.143  -1.102  -1.068  -1.049  -1.031  -1.013  -1.003
 -0.985  -0.925  -0.912  -0.896  -0.879  -0.870  -0.853  -0.837
 -0.811  -0.777  -0.772  -0.749  -0.738  -0.730  -0.717  -0.711
 -0.672  -0.660  -0.645  -0.631  -0.628  -0.621  -0.606  -0.602
 -0.587  -0.576  -0.568  -0.561  -0.559  -0.549  -0.543  -0.527
 -0.512  -0.508  -0.501  -0.499  -0.493  -0.491  -0.485  -0.484
 -0.475  -0.466  -0.464  -0.461  -0.447  -0.443  -0.432  -0.427
 -0.419  -0.406  -0.392  -0.378  -0.373  -0.360  -0.359  -0.351
 -0.343  -0.338  -0.335  -0.333  -0.320  -0.261

          Ground-State Mulliken Net Atomic Charges

     Atom                 Charge (a.u.)
  ----------------------------------------
      1 C                    -0.092874
      2 C                    -0.129301
      3 C                    -0.080426
      4 C                    -0.118276
      5 N                    -0.145911
      6 C                     0.082532
      7 C                     0.099050
      8 N                    -0.176629
      9 C                    -0.019579
     10 C                    -0.085878
     11 N                    -0.217183
     12 C                     0.050526
     13 C                     0.067038
     14 S                     0.403860
     15 N                    -0.305403
     16 C                    -0.074806
     17 S                     0.162114
     18 C                     0.065057
     19 C                    -0.031700
     20 N                    -0.169351
     21 C                     0.047365
     22 C                     0.019214
     23 C                    -0.045143
     24 N                    -0.155298
     25 C                    -0.181722
     26 S                     0.134228
     27 C                    -0.049675
     28 C                    -0.157575
     29 C                    -0.187248
     30 H                     0.132965
     31 H                     0.120240
     32 H                     0.119658
     33 H                     0.137820
     34 H                     0.137717
     35 H                     0.128532
     36 H                     0.121962
     37 H                     0.127004
     38 H                     0.130834
     39 H                     0.136265
  ----------------------------------------
  Sum of atomic charges =     0.000000

                    Cartesian Multipole Moments
 -----------------------------------------------------------------
    Charge (ESU x 10^10)
                 0.0000
    Dipole Moment (Debye)
         X       0.1030      Y       0.8813      Z       0.4577
       Tot       0.9984
    Quadrupole Moments (Debye-Ang)
        XX    -156.1777     XY       5.6603     YY    -163.0322
        XZ       1.7949     YZ       1.8713     ZZ    -187.5186

 Total job time:  6583.64s(wall), 98415.55s(cpu)
        *  Thank you very much for using Q-Chem.  Have a nice day.  *
