 Q-Chem 4.4, Q-Chem, Inc., Pleasanton, CA (2016)
 Q-Chem 4.4.2 for Intel X86 Linux

User input:
--------------------------------------------------------------
$comment
OPTIMIZATION
$end

$rem
JOBTYPE OPT
EXCHANGE omegaB97X-D
BASIS cc-pVTZ
$end

$molecule
0 1
C          0.00000        0.00000        0.00000
C         -0.65396       -1.22126       -0.00000
C          1.38563        0.00000        0.00000
C          0.09526       -2.37957        0.00866
N          2.11912       -1.10562        0.01199
C          1.48546       -2.27640        0.02149
C          2.30642       -3.51253        0.03449
N          1.74513       -4.60745       -0.39909
C          3.65824       -3.56714        0.50995
C          2.40434       -5.79109       -0.42442
N          4.38617       -2.58332        1.04242
C          4.35289       -4.81920        0.47143
C          3.70163       -5.99343       -0.01477
S          5.80914       -3.21778        1.41887
N          5.59255       -4.74484        0.95148
C          4.33823       -7.30129       -0.04468
S          6.02589       -7.51949        0.20234
C          3.75434       -8.55173       -0.24928
C          5.99762       -9.21427        0.01351
N          2.43078       -8.79033       -0.46746
C          4.69159       -9.63209       -0.21260
C          7.19111      -10.02404        0.10954
C          2.09912      -10.03238       -0.63993
N          4.30733      -10.92364       -0.39820
C          7.29448      -11.32035        0.53383
S          8.74821       -9.40878       -0.34411
C          3.03978      -11.10696       -0.60697
C          8.62263      -11.80869        0.50537
C          9.51526      -10.88550        0.05944
H         -0.54853        0.93120        0.00000
H         -1.73532       -1.26909       -0.00410
H          1.93662        0.93286       -0.01167
H         -0.36319       -3.35650        0.00329
H          1.82722       -6.62671       -0.78554
H          1.05088      -10.24576       -0.82054
H          6.43600      -11.89190        0.84394
H          2.69937      -12.12548       -0.75876
H          8.89689      -12.80678        0.81140
H         10.57944      -10.99653       -0.05950
$end

$opt
CONSTRAINT
tors 4 6 7 8 21.82164
tors 10 13 16 17 169.06444
tors 17 19 22 25 150.00000
ENDCONSTRAINT
$end
--------------------------------------------------------------

   16   -2291.1500783592      5.25E-09 Convergence criterion met
 Total energy in the final basis set = -2291.1500783592
   12   -2291.1501979886      5.78E-09 Convergence criterion met
 Total energy in the final basis set = -2291.1501979886
   12   -2291.1502747897      5.99E-09 Convergence criterion met
 Total energy in the final basis set = -2291.1502747897
   11   -2291.1503031895      8.01E-09 Convergence criterion met
 Total energy in the final basis set = -2291.1503031895
   11   -2291.1503173119      8.63E-09 Convergence criterion met
 Total energy in the final basis set = -2291.1503173119
    9   -2291.1503200845      9.99E-09 Convergence criterion met
 Total energy in the final basis set = -2291.1503200845

             Standard Nuclear Orientation (Angstroms)
    I     Atom           X                Y                Z
 ----------------------------------------------------------------
    1      C       7.6655771413     0.2945015613    -0.3546815174
    2      C       7.0216076735     1.4689100650    -0.0007962964
    3      C       6.8939975173    -0.8344047291    -0.5785626524
    4      C       5.6456402934     1.4658682999     0.1167534834
    5      N       5.5727892161    -0.8536297650    -0.4638410854
    6      C       4.9597555380     0.2756670512    -0.1166978018
    7      C       3.4786122645     0.2549324796    -0.0222948700
    8      N       2.8540741675     1.3919077067    -0.1568301990
    9      C       2.7159894889    -0.9327389859     0.2246500092
   10      C       1.5014291338     1.4770196601    -0.1180178787
   11      N       3.1643935508    -2.1652054804     0.4715512182
   12      C       1.2878090566    -0.8378637959     0.2629766532
   13      C       0.6407301120     0.4209561788     0.0705024878
   14      S       1.8720602673    -3.0848416816     0.7023279118
   15      N       0.6928020898    -2.0024800511     0.5169169016
   16      C      -0.8070897145     0.5739316878     0.0772726843
   17      S      -1.8742814057    -0.7741329334     0.0379131729
   18      C      -1.5678425940     1.7422347785     0.0899056341
   19      C      -3.3016227301     0.1566655846    -0.0041467275
   20      N      -1.0791106285     3.0138709412     0.1442543213
   21      C      -2.9785527312     1.5058215612     0.0475976314
   22      C      -4.6135252810    -0.4523856168    -0.0422731103
   23      C      -1.9640157850     3.9619453455     0.1470727015
   24      N      -3.8784293321     2.5264374702     0.0475877574
   25      C      -5.7848926444     0.0411981138     0.4628975749
   26      S      -4.8679397469    -2.0092671041    -0.7583788838
   27      C      -3.3714818347     3.7192127933     0.0947652265
   28      C      -6.8798958974    -0.8357014066     0.2761278929
   29      C      -6.5331934675    -1.9843895584    -0.3626451044
   30      H       8.7402610123     0.2505535650    -0.4605759176
   31      H       7.5845321062     2.3747610449     0.1787067874
   32      H       7.3584150924    -1.7691386485    -0.8710071208
   33      H       5.0920804143     2.3540978693     0.3794360209
   34      H       1.1009581832     2.4700490736    -0.2468225866
   35      H      -1.6012129334     4.9830921650     0.1923338111
   36      H      -5.8445706021     1.0031475668     0.9454211522
   37      H      -4.0562438753     4.5599764125     0.0923816396
   38      H      -7.8849822646    -0.6198122088     0.6047128336
   39      H      -7.1657531679    -2.8137753860    -0.6290282359
 ----------------------------------------------------------------

    9   -2291.1503208012      4.24E-09 Convergence criterion met
 Total energy in the final basis set = -2291.1503208012
 Final energy is   -2291.15032080125
 **  OPTIMIZATION CONVERGED  **

                    Orbital Energies (a.u.)
 --------------------------------------------------------------

 Alpha MOs
 -- Occupied --
-89.146 -89.099 -89.080 -14.482 -14.479 -14.462 -14.462 -14.445
-14.434 -10.355 -10.352 -10.350 -10.345 -10.343 -10.343 -10.342
-10.341 -10.338 -10.336 -10.334 -10.330 -10.326 -10.323 -10.319
-10.309 -10.301 -10.298 -10.295 -10.294  -8.156  -8.113  -8.095
 -6.106  -6.101  -6.100  -6.062  -6.058  -6.057  -6.044  -6.040
 -6.038  -1.143  -1.101  -1.068  -1.048  -1.029  -1.013  -1.003
 -0.986  -0.925  -0.911  -0.896  -0.879  -0.869  -0.853  -0.839
 -0.811  -0.777  -0.772  -0.748  -0.738  -0.731  -0.716  -0.710
 -0.672  -0.656  -0.648  -0.629  -0.628  -0.620  -0.607  -0.603
 -0.587  -0.576  -0.568  -0.560  -0.557  -0.547  -0.543  -0.526
 -0.511  -0.508  -0.501  -0.499  -0.493  -0.492  -0.485  -0.484
 -0.474  -0.467  -0.462  -0.461  -0.451  -0.442  -0.429  -0.426
 -0.419  -0.412  -0.392  -0.377  -0.372  -0.359  -0.357  -0.350
 -0.343  -0.339  -0.335  -0.334  -0.320  -0.265

          Ground-State Mulliken Net Atomic Charges

     Atom                 Charge (a.u.)
  ----------------------------------------
      1 C                    -0.092403
      2 C                    -0.129292
      3 C                    -0.080824
      4 C                    -0.118526
      5 N                    -0.145926
      6 C                     0.082997
      7 C                     0.099191
      8 N                    -0.176879
      9 C                    -0.018731
     10 C                    -0.084842
     11 N                    -0.217732
     12 C                     0.051505
     13 C                     0.061011
     14 S                     0.405123
     15 N                    -0.305274
     16 C                    -0.070238
     17 S                     0.181392
     18 C                     0.057455
     19 C                    -0.061662
     20 N                    -0.169450
     21 C                     0.056634
     22 C                    -0.007986
     23 C                    -0.047237
     24 N                    -0.157577
     25 C                    -0.138402
     26 S                     0.105728
     27 C                    -0.045553
     28 C                    -0.156211
     29 C                    -0.182006
     30 H                     0.132919
     31 H                     0.120121
     32 H                     0.119810
     33 H                     0.137484
     34 H                     0.138130
     35 H                     0.128458
     36 H                     0.133403
     37 H                     0.129111
     38 H                     0.130419
     39 H                     0.135859
  ----------------------------------------
  Sum of atomic charges =     0.000000

                    Cartesian Multipole Moments
 -----------------------------------------------------------------
    Charge (ESU x 10^10)
                 0.0000
    Dipole Moment (Debye)
         X      -0.2893      Y       1.4535      Z       0.6715
       Tot       1.6270
    Quadrupole Moments (Debye-Ang)
        XX    -151.4642     XY       3.5623     YY    -165.0143
        XZ      -1.0729     YZ       2.5310     ZZ    -186.4229

 Total job time:  6516.40s(wall), 97296.39s(cpu)
        *  Thank you very much for using Q-Chem.  Have a nice day.  *
