 Q-Chem 4.4, Q-Chem, Inc., Pleasanton, CA (2016)
 Q-Chem 4.4.2 for Intel X86 Linux

User input:
--------------------------------------------------------------
$comment
OPTIMIZATION
$end

$rem
JOBTYPE OPT
EXCHANGE omegaB97X-D
BASIS cc-pVTZ
$end

$molecule
0 1
C          0.00000        0.00000        0.00000
C         -0.65396       -1.22126       -0.00000
C          1.38563        0.00000        0.00000
C          0.09526       -2.37957        0.00866
N          2.11912       -1.10562        0.01199
C          1.48546       -2.27640        0.02149
C          2.30642       -3.51253        0.03449
N          1.74513       -4.60745       -0.39909
C          3.65824       -3.56714        0.50995
C          2.40434       -5.79109       -0.42442
N          4.38617       -2.58332        1.04242
C          4.35289       -4.81920        0.47143
C          3.70163       -5.99343       -0.01477
S          5.80914       -3.21778        1.41887
N          5.59255       -4.74484        0.95148
C          4.33823       -7.30129       -0.04468
S          6.02589       -7.51949        0.20234
C          3.75434       -8.55173       -0.24928
C          5.99762       -9.21427        0.01351
N          2.43078       -8.79033       -0.46746
C          4.69159       -9.63209       -0.21260
C          7.19111      -10.02404        0.10954
C          2.09912      -10.03238       -0.63993
N          4.30733      -10.92364       -0.39820
C          7.72074      -10.60997        1.22637
S          8.16099      -10.38553       -1.28242
C          3.03978      -11.10696       -0.60697
C          8.90780      -11.33419        0.96242
C          9.26941      -11.29609       -0.34744
H         -0.54853        0.93120        0.00000
H         -1.73532       -1.26909       -0.00410
H          1.93662        0.93286       -0.01167
H         -0.36319       -3.35650        0.00329
H          1.82722       -6.62671       -0.78554
H          1.05088      -10.24576       -0.82054
H          7.25713      -10.52152        2.19439
H          2.69937      -12.12548       -0.75876
H          9.46869      -11.85593        1.72283
H         10.12258      -11.75922       -0.81282
$end

$opt
CONSTRAINT
tors 4 6 7 8 21.82164
tors 10 13 16 17 169.06444
tors 17 19 22 25 90.00000
ENDCONSTRAINT
$end
--------------------------------------------------------------

   16   -2291.1453889613      4.77E-09 Convergence criterion met
 Total energy in the final basis set = -2291.1453889613
   12   -2291.1457919812      6.72E-09 Convergence criterion met
 Total energy in the final basis set = -2291.1457919812
   12   -2291.1458435894      5.63E-09 Convergence criterion met
 Total energy in the final basis set = -2291.1458435894
   11   -2291.1458792134      6.07E-09 Convergence criterion met
 Total energy in the final basis set = -2291.1458792134
   11   -2291.1458902745      5.11E-09 Convergence criterion met
 Total energy in the final basis set = -2291.1458902745
   11   -2291.1458958408      5.96E-09 Convergence criterion met
 Total energy in the final basis set = -2291.1458958408
    9   -2291.1458968534      6.49E-09 Convergence criterion met
 Total energy in the final basis set = -2291.1458968534

             Standard Nuclear Orientation (Angstroms)
    I     Atom           X                Y                Z
 ----------------------------------------------------------------
    1      C       7.6895193265     0.3798424325    -0.3721212330
    2      C       7.0226892562     1.5308631828     0.0145090357
    3      C       6.9398796731    -0.7563358880    -0.6315014393
    4      C       5.6467824198     1.4982885849     0.1285481755
    5      N       5.6192096418    -0.8043238841    -0.5190023176
    6      C       4.9844072826     0.3022561700    -0.1394637753
    7      C       3.5037598805     0.2501839217    -0.0441330972
    8      N       2.8577470610     1.3783034178    -0.1442931921
    9      C       2.7651872496    -0.9585684363     0.1724097590
   10      C       1.5034576149     1.4359185175    -0.0947562726
   11      N       3.2391989534    -2.1887604609     0.3786911354
   12      C       1.3356013185    -0.8920572143     0.2244795420
   13      C       0.6650264249     0.3597066821     0.0729605291
   14      S       1.9664956080    -3.1392438894     0.5913238296
   15      N       0.7648222782    -2.0750101285     0.4480496629
   16      C      -0.7871529785     0.4891675160     0.1000505895
   17      S      -1.8353438533    -0.8693504581     0.0341296329
   18      C      -1.5623926957     1.6483644315     0.1540358710
   19      C      -3.2708871744     0.0431843046     0.0674935093
   20      N      -1.0932776804     2.9267591270     0.2287528486
   21      C      -2.9695441385     1.3898217845     0.1357031081
   22      C      -4.5872012105    -0.5897723411     0.0497942461
   23      C      -1.9954410243     3.8569764610     0.2750586947
   24      N      -3.8917223787     2.3918255775     0.1870988304
   25      C      -5.3376716154    -0.9872019190     1.1153208418
   26      S      -5.4176192552    -0.9030498366    -1.4323416395
   27      C      -3.4013708609     3.5893576825     0.2527521102
   28      C      -6.5841091068    -1.5477820946     0.7396575170
   29      C      -6.7611832318    -1.5679015211    -0.6076666654
   30      H       8.7650598585     0.3596095649    -0.4764275819
   31      H       7.5680368696     2.4413532308     0.2225726222
   32      H       7.4221351672    -1.6728106374    -0.9514419804
   33      H       5.0757189955     2.3678897032     0.4150954265
   34      H       1.0827971529     2.4240473450    -0.1942026624
   35      H      -1.6512665062     4.8837764186     0.3358053464
   36      H      -5.0025817332    -0.8734923187     2.1352280823
   37      H      -4.0989891570     4.4187038836     0.2953508096
   38      H      -7.3158680705    -1.9153427320     1.4424743965
   39      H      -7.6099039643    -1.9362469126    -1.1584941810
 ----------------------------------------------------------------

    9   -2291.1458971767      3.28E-09 Convergence criterion met
 Total energy in the final basis set = -2291.1458971767
 Final energy is   -2291.14589717667
 **  OPTIMIZATION CONVERGED  **

                    Orbital Energies (a.u.)
 --------------------------------------------------------------

 Alpha MOs
 -- Occupied --
-89.147 -89.099 -89.077 -14.483 -14.480 -14.461 -14.459 -14.446
-14.435 -10.356 -10.353 -10.351 -10.344 -10.343 -10.342 -10.340
-10.338 -10.337 -10.336 -10.331 -10.331 -10.327 -10.324 -10.317
-10.310 -10.301 -10.299 -10.295 -10.294  -8.157  -8.113  -8.092
 -6.107  -6.101  -6.101  -6.062  -6.058  -6.057  -6.042  -6.038
 -6.035  -1.144  -1.100  -1.069  -1.049  -1.028  -1.013  -1.003
 -0.986  -0.925  -0.912  -0.896  -0.877  -0.867  -0.852  -0.838
 -0.811  -0.777  -0.771  -0.749  -0.738  -0.730  -0.716  -0.710
 -0.670  -0.657  -0.645  -0.630  -0.628  -0.620  -0.608  -0.604
 -0.586  -0.576  -0.568  -0.561  -0.559  -0.545  -0.543  -0.527
 -0.512  -0.507  -0.499  -0.498  -0.493  -0.491  -0.485  -0.481
 -0.475  -0.468  -0.463  -0.461  -0.449  -0.438  -0.428  -0.425
 -0.420  -0.410  -0.394  -0.376  -0.371  -0.360  -0.357  -0.343
 -0.337  -0.337  -0.334  -0.332  -0.318  -0.279

          Ground-State Mulliken Net Atomic Charges

     Atom                 Charge (a.u.)
  ----------------------------------------
      1 C                    -0.092237
      2 C                    -0.129174
      3 C                    -0.080347
      4 C                    -0.118180
      5 N                    -0.145824
      6 C                     0.082713
      7 C                     0.100770
      8 N                    -0.177662
      9 C                    -0.017789
     10 C                    -0.080497
     11 N                    -0.217247
     12 C                     0.053095
     13 C                     0.057924
     14 S                     0.405740
     15 N                    -0.305453
     16 C                    -0.070344
     17 S                     0.222071
     18 C                     0.044237
     19 C                    -0.112854
     20 N                    -0.169332
     21 C                     0.049341
     22 C                    -0.029141
     23 C                    -0.050372
     24 N                    -0.128609
     25 C                    -0.146963
     26 S                     0.131713
     27 C                    -0.049687
     28 C                    -0.149429
     29 C                    -0.184662
     30 H                     0.133144
     31 H                     0.120399
     32 H                     0.119782
     33 H                     0.137843
     34 H                     0.138325
     35 H                     0.128305
     36 H                     0.135041
     37 H                     0.132136
     38 H                     0.129107
     39 H                     0.134115
  ----------------------------------------
  Sum of atomic charges =     0.000000

                    Cartesian Multipole Moments
 -----------------------------------------------------------------
    Charge (ESU x 10^10)
                 0.0000
    Dipole Moment (Debye)
         X       0.2175      Y       1.0495      Z       0.9653
       Tot       1.4424
    Quadrupole Moments (Debye-Ang)
        XX    -154.9484     XY       6.6682     YY    -168.0374
        XZ      -1.0755     YZ       0.7848     ZZ    -182.2047

 Total job time:  7250.57s(wall), 108280.40s(cpu)
        *  Thank you very much for using Q-Chem.  Have a nice day.  *
