 Q-Chem 4.4, Q-Chem, Inc., Pleasanton, CA (2016)
 Q-Chem 4.4.2 for Intel X86 Linux

User input:
--------------------------------------------------------------
$comment
OPTIMIZATION
$end

$rem
JOBTYPE OPT
EXCHANGE omegaB97X-D
BASIS cc-pVTZ
$end

$molecule
0 1
C          0.00000        0.00000        0.00000
C         -0.65396       -1.22126       -0.00000
C          1.38563        0.00000        0.00000
C          0.09526       -2.37957        0.00866
N          2.11912       -1.10562        0.01199
C          1.48546       -2.27640        0.02149
C          2.30642       -3.51253        0.03449
N          1.74513       -4.60745       -0.39909
C          3.65824       -3.56714        0.50995
C          2.40434       -5.79109       -0.42442
N          4.38617       -2.58332        1.04242
C          4.35289       -4.81920        0.47143
C          3.70163       -5.99343       -0.01477
S          5.80914       -3.21778        1.41887
N          5.59255       -4.74484        0.95148
C          4.33823       -7.30129       -0.04468
S          6.02589       -7.51949        0.20234
C          3.75434       -8.55173       -0.24928
C          5.99762       -9.21427        0.01351
N          2.43078       -8.79033       -0.46746
C          4.69159       -9.63209       -0.21260
C          7.19111      -10.02404        0.10954
C          2.09912      -10.03238       -0.63993
N          4.30733      -10.92364       -0.39820
C          7.45821      -11.20486       -0.52720
S          8.53039       -9.55756        1.10837
C          3.03978      -11.10696       -0.60697
C          8.72909      -11.73553       -0.20081
C          9.41716      -10.95699        0.67575
H         -0.54853        0.93120        0.00000
H         -1.73532       -1.26909       -0.00410
H          1.93662        0.93286       -0.01167
H         -0.36319       -3.35650        0.00329
H          1.82722       -6.62671       -0.78554
H          1.05088      -10.24576       -0.82054
H          6.75947      -11.65868       -1.20957
H          2.69937      -12.12548       -0.75876
H          9.10789      -12.66337       -0.60165
H         10.39851      -11.12756        1.08419
$end

$opt
CONSTRAINT
tors 4 6 7 8 21.82164
tors 10 13 16 17 169.06444
tors 17 19 22 25 -150.00000
ENDCONSTRAINT
$end
--------------------------------------------------------------

   16   -2291.1499858751      5.44E-09 Convergence criterion met
 Total energy in the final basis set = -2291.1499858751
   12   -2291.1502312256      5.39E-09 Convergence criterion met
 Total energy in the final basis set = -2291.1502312256
   12   -2291.1502976298      5.38E-09 Convergence criterion met
 Total energy in the final basis set = -2291.1502976298
   11   -2291.1503374304      6.32E-09 Convergence criterion met
 Total energy in the final basis set = -2291.1503374304
   11   -2291.1503525370      8.13E-09 Convergence criterion met
 Total energy in the final basis set = -2291.1503525370
   10   -2291.1503564749      7.28E-09 Convergence criterion met
 Total energy in the final basis set = -2291.1503564749

             Standard Nuclear Orientation (Angstroms)
    I     Atom           X                Y                Z
 ----------------------------------------------------------------
    1      C       7.6712302547     0.3131017047    -0.2616021113
    2      C       7.0209081668     1.4595001836     0.1648156057
    3      C       6.9034456909    -0.7945826642    -0.5833902567
    4      C       5.6428225065     1.4509618325     0.2537179103
    5      N       5.5802363977    -0.8194873836    -0.4960272385
    6      C       4.9607826302     0.2824993196    -0.0792186745
    7      C       3.4780255390     0.2571456248    -0.0153619164
    8      N       2.8562600304     1.4017876556    -0.0785092307
    9      C       2.7105932067    -0.9444344980     0.1267061936
   10      C       1.5031346665     1.4858420974    -0.0590326669
   11      N       3.1544529627    -2.1928034339     0.2866853176
   12      C       1.2818414432    -0.8505853342     0.1461097195
   13      C       0.6386309858     0.4202592751     0.0374930318
   14      S       1.8581883856    -3.1257507476     0.4206806997
   15      N       0.6824771053    -2.0307707582     0.2977021424
   16      C      -0.8090831855     0.5758096829     0.0337329378
   17      S      -1.8768525939    -0.7635547280    -0.1218765844
   18      C      -1.5689606545     1.7427716809     0.1069934085
   19      C      -3.3036882416     0.1663411421    -0.0749994997
   20      N      -1.0800196547     3.0091167296     0.2347734132
   21      C      -2.9795624217     1.5106547643     0.0456296032
   22      C      -4.6160072721    -0.4358252529    -0.1695485227
   23      C      -1.9646875550     3.9555759512     0.2943142217
   24      N      -3.8796874275     2.5283982293     0.1177728924
   25      C      -5.7551540891     0.1104255063    -0.6927631312
   26      S      -4.9156281130    -2.0481386515     0.3892121976
   27      C      -3.3725002578     3.7160230360     0.2371344159
   28      C      -6.8625315714    -0.7694629503    -0.6456932387
   29      C      -6.5567016699    -1.9732254396    -0.0930861772
   30      H       8.7478221237     0.2748521706    -0.3486981193
   31      H       7.5808400863     2.3477624253     0.4241383116
   32      H       7.3722824087    -1.7064154823    -0.9349417357
   33      H       5.0855038875     2.3194287475     0.5692100816
   34      H       1.1049862353     2.4858899494    -0.1239323712
   35      H      -1.6016897175     4.9726553553     0.3952050509
   36      H      -5.7855692321     1.1117593539    -1.0907237790
   37      H      -4.0580121462     4.5537908423     0.3003549266
   38      H      -7.8464285335    -0.5158178349    -1.0094259599
   39      H      -7.2064227297    -2.8166542771     0.0661884787
 ----------------------------------------------------------------

    9   -2291.1503572102      4.84E-09 Convergence criterion met
 Total energy in the final basis set = -2291.1503572102
 Final energy is   -2291.15035721019
 **  OPTIMIZATION CONVERGED  **

                    Orbital Energies (a.u.)
 --------------------------------------------------------------

 Alpha MOs
 -- Occupied --
-89.146 -89.099 -89.080 -14.482 -14.479 -14.462 -14.462 -14.445
-14.434 -10.355 -10.352 -10.350 -10.345 -10.343 -10.343 -10.342
-10.341 -10.338 -10.336 -10.334 -10.330 -10.326 -10.323 -10.319
-10.309 -10.301 -10.298 -10.295 -10.294  -8.156  -8.113  -8.095
 -6.106  -6.101  -6.100  -6.062  -6.059  -6.057  -6.044  -6.040
 -6.038  -1.143  -1.101  -1.068  -1.048  -1.029  -1.013  -1.003
 -0.986  -0.925  -0.911  -0.896  -0.879  -0.869  -0.853  -0.839
 -0.811  -0.777  -0.772  -0.748  -0.738  -0.731  -0.716  -0.710
 -0.672  -0.656  -0.648  -0.629  -0.628  -0.620  -0.607  -0.603
 -0.587  -0.576  -0.567  -0.560  -0.557  -0.548  -0.543  -0.526
 -0.512  -0.508  -0.501  -0.498  -0.493  -0.492  -0.486  -0.483
 -0.474  -0.465  -0.464  -0.461  -0.451  -0.442  -0.429  -0.426
 -0.419  -0.412  -0.392  -0.377  -0.372  -0.360  -0.358  -0.349
 -0.343  -0.339  -0.334  -0.334  -0.321  -0.264

          Ground-State Mulliken Net Atomic Charges

     Atom                 Charge (a.u.)
  ----------------------------------------
      1 C                    -0.092589
      2 C                    -0.129209
      3 C                    -0.080412
      4 C                    -0.118589
      5 N                    -0.145582
      6 C                     0.083076
      7 C                     0.098732
      8 N                    -0.176782
      9 C                    -0.018901
     10 C                    -0.084969
     11 N                    -0.217794
     12 C                     0.053259
     13 C                     0.059425
     14 S                     0.405266
     15 N                    -0.305856
     16 C                    -0.069583
     17 S                     0.183722
     18 C                     0.055941
     19 C                    -0.060300
     20 N                    -0.169071
     21 C                     0.057383
     22 C                    -0.010891
     23 C                    -0.047452
     24 N                    -0.156861
     25 C                    -0.140342
     26 S                     0.105799
     27 C                    -0.045538
     28 C                    -0.155056
     29 C                    -0.182503
     30 H                     0.132895
     31 H                     0.120156
     32 H                     0.119230
     33 H                     0.137461
     34 H                     0.138414
     35 H                     0.128164
     36 H                     0.134055
     37 H                     0.129224
     38 H                     0.130436
     39 H                     0.135644
  ----------------------------------------
  Sum of atomic charges =     0.000000

                    Cartesian Multipole Moments
 -----------------------------------------------------------------
    Charge (ESU x 10^10)
                 0.0000
    Dipole Moment (Debye)
         X      -0.2880      Y       1.4558      Z       0.2098
       Tot       1.4988
    Quadrupole Moments (Debye-Ang)
        XX    -151.8203     XY       3.2118     YY    -164.9065
        XZ       4.1875     YZ       0.4019     ZZ    -186.3445

 Total job time:  6561.78s(wall), 97934.02s(cpu)
        *  Thank you very much for using Q-Chem.  Have a nice day.  *
