 Q-Chem 4.4, Q-Chem, Inc., Pleasanton, CA (2016)
 Q-Chem 4.4.2 for Intel X86 Linux

User input:
--------------------------------------------------------------
$comment
OPTIMIZATION
$end

$rem
JOBTYPE OPT
EXCHANGE omegaB97X-D
BASIS cc-pVTZ
$end

$molecule
0 1
C          0.00000        0.00000        0.00000
C         -0.65396       -1.22126       -0.00000
C          1.38563        0.00000        0.00000
C          0.09526       -2.37957        0.00866
N          2.11912       -1.10562        0.01199
C          1.48546       -2.27640        0.02149
C          2.30642       -3.51253        0.03449
N          1.74513       -4.60745       -0.39909
C          3.65824       -3.56714        0.50995
C          2.40434       -5.79109       -0.42442
N          4.38617       -2.58332        1.04242
C          4.35289       -4.81920        0.47143
C          3.70163       -5.99343       -0.01477
S          5.80914       -3.21778        1.41887
N          5.59255       -4.74484        0.95148
C          4.33823       -7.30129       -0.04468
S          6.02589       -7.51949        0.20234
C          3.75434       -8.55173       -0.24928
C          5.99762       -9.21427        0.01351
N          2.43078       -8.79033       -0.46746
C          4.69159       -9.63209       -0.21260
C          7.19111      -10.02404        0.10954
C          2.09912      -10.03238       -0.63993
N          4.30733      -10.92364       -0.39820
C          8.41513       -9.78565       -0.45264
S          7.22076      -11.49777        1.02396
C          3.03978      -11.10696       -0.60697
C          9.36584      -10.79200       -0.15821
C          8.86116      -11.78258        0.62408
H         -0.54853        0.93120        0.00000
H         -1.73532       -1.26909       -0.00410
H          1.93662        0.93286       -0.01167
H         -0.36319       -3.35650        0.00329
H          1.82722       -6.62671       -0.78554
H          1.05088      -10.24576       -0.82054
H          8.61183       -8.90928       -1.04686
H          2.69937      -12.12548       -0.75876
H         10.38191      -10.77621       -0.52207
H          9.36681      -12.65914        0.99139
$end

$opt
CONSTRAINT
tors 4 6 7 8 21.82164
tors 10 13 16 17 169.06444
tors 17 19 22 25 -45.00000
ENDCONSTRAINT
$end
--------------------------------------------------------------

   16   -2291.1487888419      5.04E-09 Convergence criterion met
 Total energy in the final basis set = -2291.1487888419
   12   -2291.1491913418      7.69E-09 Convergence criterion met
 Total energy in the final basis set = -2291.1491913418
   12   -2291.1492729907      7.03E-09 Convergence criterion met
 Total energy in the final basis set = -2291.1492729907
   11   -2291.1493240836      5.50E-09 Convergence criterion met
 Total energy in the final basis set = -2291.1493240836
   11   -2291.1493400104      4.46E-09 Convergence criterion met
 Total energy in the final basis set = -2291.1493400104
   10   -2291.1493472233      9.75E-09 Convergence criterion met
 Total energy in the final basis set = -2291.1493472233
    9   -2291.1493483482      7.42E-09 Convergence criterion met
 Total energy in the final basis set = -2291.1493483482

             Standard Nuclear Orientation (Angstroms)
    I     Atom           X                Y                Z
 ----------------------------------------------------------------
    1      C       7.6974691832     0.4295338982    -0.2172377491
    2      C       7.0083401751     1.5782505909     0.1358568956
    3      C       6.9665531716    -0.7161841521    -0.4877313336
    4      C       5.6299203863     1.5340448617     0.2064346503
    5      N       5.6433806327    -0.7752923708    -0.4172471600
    6      C       4.9868340253     0.3294347379    -0.0705621590
    7      C       3.5045360444     0.2656681040    -0.0218815735
    8      N       2.8531299759     1.3876151485    -0.1539903292
    9      C       2.7683454278    -0.9469361105     0.1805910058
   10      C       1.4979684618     1.4359289379    -0.1494007985
   11      N       3.2434806283    -2.1719378361     0.4136110172
   12      C       1.3373698304    -0.8905815611     0.1835958495
   13      C       0.6620716378     0.3543653465    -0.0002099921
   14      S       1.9708961282    -3.1299942446     0.5913701984
   15      N       0.7674279468    -2.0755421226     0.3978994637
   16      C      -0.7896747268     0.4705702533    -0.0200923897
   17      S      -1.8242852285    -0.9001326947    -0.1088759819
   18      C      -1.5774810064     1.6211875358     0.0024381470
   19      C      -3.2691798564     0.0006563486    -0.1711081472
   20      N      -1.1223645477     2.9034495425     0.0940213945
   21      C      -2.9806144385     1.3521089957    -0.0729259050
   22      C      -4.5537642001    -0.6674718553    -0.2468871024
   23      C      -2.0323117842     3.8274142441     0.1069369862
   24      N      -3.9084379460     2.3474635631    -0.0584195055
   25      C      -4.8961372278    -1.7216133412    -1.0488166238
   26      S      -5.9030222168    -0.1690993956     0.7107498005
   27      C      -3.4332923679     3.5503418213     0.0295447490
   28      C      -6.2363887245    -2.1397628147    -0.8756942634
   29      C      -6.8984349641    -1.3919891043     0.0476166201
   30      H       8.7759318059     0.4182801500    -0.2871543035
   31      H       7.5385125664     2.4958720380     0.3517284981
   32      H       7.4674708979    -1.6317052110    -0.7806957532
   33      H       5.0418049890     2.4008319617     0.4657455946
   34      H       1.0741423188     2.4203533365    -0.2699962063
   35      H      -1.6978677667     4.8564820372     0.1821746424
   36      H      -4.2060898103    -2.1696317875    -1.7484008747
   37      H      -4.1396996783     4.3728690879     0.0435408881
   38      H      -6.6897895126    -2.9551242048    -1.4177932263
   39      H      -7.9237229322    -1.4847835063     0.3638273919
 ----------------------------------------------------------------

    8   -2291.1493486517      7.76E-09 Convergence criterion met
 Total energy in the final basis set = -2291.1493486517
 Final energy is   -2291.14934865165
 **  OPTIMIZATION CONVERGED  **

                    Orbital Energies (a.u.)
 --------------------------------------------------------------

 Alpha MOs
 -- Occupied --
-89.146 -89.099 -89.077 -14.483 -14.480 -14.461 -14.461 -14.445
-14.434 -10.355 -10.352 -10.351 -10.345 -10.342 -10.342 -10.341
-10.340 -10.337 -10.336 -10.334 -10.330 -10.326 -10.324 -10.317
-10.310 -10.301 -10.298 -10.297 -10.294  -8.157  -8.113  -8.092
 -6.107  -6.101  -6.101  -6.062  -6.058  -6.057  -6.041  -6.038
 -6.035  -1.143  -1.101  -1.069  -1.049  -1.029  -1.013  -1.003
 -0.986  -0.925  -0.912  -0.896  -0.879  -0.868  -0.853  -0.838
 -0.812  -0.777  -0.771  -0.748  -0.738  -0.730  -0.716  -0.710
 -0.670  -0.660  -0.645  -0.629  -0.628  -0.621  -0.607  -0.603
 -0.586  -0.576  -0.568  -0.561  -0.559  -0.547  -0.543  -0.527
 -0.512  -0.507  -0.499  -0.498  -0.493  -0.492  -0.484  -0.483
 -0.475  -0.467  -0.463  -0.461  -0.449  -0.440  -0.429  -0.426
 -0.419  -0.410  -0.393  -0.377  -0.372  -0.360  -0.357  -0.347
 -0.342  -0.340  -0.335  -0.330  -0.320  -0.268

          Ground-State Mulliken Net Atomic Charges

     Atom                 Charge (a.u.)
  ----------------------------------------
      1 C                    -0.092688
      2 C                    -0.129163
      3 C                    -0.080430
      4 C                    -0.118246
      5 N                    -0.146069
      6 C                     0.082684
      7 C                     0.099401
      8 N                    -0.177120
      9 C                    -0.018241
     10 C                    -0.083030
     11 N                    -0.217404
     12 C                     0.052576
     13 C                     0.058968
     14 S                     0.404575
     15 N                    -0.305443
     16 C                    -0.073244
     17 S                     0.194905
     18 C                     0.056292
     19 C                    -0.057939
     20 N                    -0.170229
     21 C                     0.028769
     22 C                     0.003236
     23 C                    -0.047788
     24 N                    -0.144047
     25 C                    -0.184175
     26 S                     0.140153
     27 C                    -0.048132
     28 C                    -0.153396
     29 C                    -0.183091
     30 H                     0.133002
     31 H                     0.120272
     32 H                     0.119811
     33 H                     0.137884
     34 H                     0.137887
     35 H                     0.128296
     36 H                     0.136376
     37 H                     0.130903
     38 H                     0.129022
     39 H                     0.134865
  ----------------------------------------
  Sum of atomic charges =     0.000000

                    Cartesian Multipole Moments
 -----------------------------------------------------------------
    Charge (ESU x 10^10)
                 0.0000
    Dipole Moment (Debye)
         X       0.1118      Y       0.8593      Z       0.1334
       Tot       0.8768
    Quadrupole Moments (Debye-Ang)
        XX    -155.5884     XY       6.5760     YY    -165.5268
        XZ       2.1220     YZ       3.7747     ZZ    -184.8216

 Total job time:  7260.26s(wall), 108078.34s(cpu)
        *  Thank you very much for using Q-Chem.  Have a nice day.  *
