 Q-Chem 4.4, Q-Chem, Inc., Pleasanton, CA (2016)
 Q-Chem 4.4.2 for Intel X86 Linux

User input:
--------------------------------------------------------------
$comment
OPTIMIZATION
$end

$rem
JOBTYPE OPT
EXCHANGE omegaB97X-D
BASIS cc-pVTZ
$end

$molecule
0 1
C          0.00000        0.00000        0.00000
C         -0.65396       -1.22126       -0.00000
C          1.38563        0.00000        0.00000
C          0.09526       -2.37957        0.00866
N          2.11912       -1.10562        0.01199
C          1.48546       -2.27640        0.02149
C          2.30642       -3.51253        0.03449
N          1.74513       -4.60745       -0.39909
C          3.65824       -3.56714        0.50995
C          2.40434       -5.79109       -0.42442
N          4.38617       -2.58332        1.04242
C          4.35289       -4.81920        0.47143
C          3.70163       -5.99343       -0.01477
S          5.80914       -3.21778        1.41887
N          5.59255       -4.74484        0.95148
C          4.33823       -7.30129       -0.04468
S          6.02589       -7.51949        0.20234
C          3.75434       -8.55173       -0.24928
C          5.99762       -9.21427        0.01351
N          2.43078       -8.79033       -0.46746
C          4.69159       -9.63209       -0.21260
C          7.19111      -10.02404        0.10954
C          2.09912      -10.03238       -0.63993
N          4.30733      -10.92364       -0.39820
C          7.44930      -11.03797        0.99067
S          8.53372       -9.79858       -0.96539
C          3.03978      -11.10696       -0.60697
C          8.72669      -11.61946        0.80778
C          9.42652      -11.04797       -0.20787
H         -0.54853        0.93120        0.00000
H         -1.73532       -1.26909       -0.00410
H          1.93662        0.93286       -0.01167
H         -0.36319       -3.35650        0.00329
H          1.82722       -6.62671       -0.78554
H          1.05088      -10.24576       -0.82054
H          6.73301      -11.34879        1.73238
H          2.69937      -12.12548       -0.75876
H          9.10592      -12.42709        1.41521
H         10.41434      -11.29861       -0.55482
$end

$opt
CONSTRAINT
tors 4 6 7 8 21.82164
tors 10 13 16 17 169.06444
tors 17 19 22 25 120.00000
ENDCONSTRAINT
$end
--------------------------------------------------------------

   16   -2291.1472823400      4.89E-09 Convergence criterion met
 Total energy in the final basis set = -2291.1472823400
   12   -2291.1475847521      6.34E-09 Convergence criterion met
 Total energy in the final basis set = -2291.1475847521
   12   -2291.1476942281      7.08E-09 Convergence criterion met
 Total energy in the final basis set = -2291.1476942281
   11   -2291.1477617857      9.34E-09 Convergence criterion met
 Total energy in the final basis set = -2291.1477617857
   12   -2291.1478042621      4.34E-09 Convergence criterion met
 Total energy in the final basis set = -2291.1478042621
   11   -2291.1478156849      6.50E-09 Convergence criterion met
 Total energy in the final basis set = -2291.1478156849
    9   -2291.1478185966      9.79E-09 Convergence criterion met
 Total energy in the final basis set = -2291.1478185966
    9   -2291.1478197425      6.26E-09 Convergence criterion met
 Total energy in the final basis set = -2291.1478197425

             Standard Nuclear Orientation (Angstroms)
    I     Atom           X                Y                Z
 ----------------------------------------------------------------
    1      C       7.6751941168     0.3184232157    -0.3462648952
    2      C       7.0204311517     1.4841676081     0.0162376501
    3      C       6.9132199959    -0.8130152511    -0.5897139890
    4      C       5.6436236814     1.4702478787     0.1229247843
    5      N       5.5914178944    -0.8429863149    -0.4843506533
    6      C       4.9681186246     0.2777972847    -0.1282308135
    7      C       3.4865032222     0.2457896331    -0.0417815279
    8      N       2.8554080902     1.3800572153    -0.1662379193
    9      C       2.7309478791    -0.9494395460     0.1905761552
   10      C       1.5018735976     1.4559071611    -0.1289998871
   11      N       3.1870310773    -2.1813101465     0.4256668107
   12      C       1.3020763634    -0.8638024442     0.2285837308
   13      C       0.6481382206     0.3930598460     0.0486209389
   14      S       1.9002611925    -3.1111342350     0.6463518761
   15      N       0.7141343946    -2.0344707195     0.4710871906
   16      C      -0.8017429506     0.5395128546     0.0610707923
   17      S      -1.8644187260    -0.8103874841     0.0077810569
   18      C      -1.5645412378     1.7069578678     0.0872169260
   19      C      -3.2908146873     0.1195589915    -0.0268495794
   20      N      -1.0811936678     2.9805233598     0.1542420667
   21      C      -2.9741731212     1.4652678310     0.0444526835
   22      C      -4.6114488509    -0.4876864359    -0.0086773886
   23      C      -1.9721114058     3.9225715175     0.1737886852
   24      N      -3.8828779168     2.4793937942     0.0663648452
   25      C      -5.5952584503    -0.3123993550     0.9204049016
   26      S      -5.0956116746    -1.6435653135    -1.1997902067
   27      C      -3.3799472710     3.6724468639     0.1281001894
   28      C      -6.7444440889    -1.0990997181     0.6649862620
   29      C      -6.6138062951    -1.8728344386    -0.4453884836
   30      H       8.7509904426     0.2830625390    -0.4438244434
   31      H       7.5757216788     2.3915669056     0.2110231257
   32      H       7.3863050218    -1.7407589863    -0.8903529332
   33      H       5.0816140027     2.3514641178     0.3912574477
   34      H       1.0951176067     2.4476413195    -0.2479368076
   35      H      -1.6155263462     4.9454386333     0.2291084438
   36      H      -5.4893009383     0.3656899573     1.7527960947
   37      H      -4.0680279671     4.5105380496     0.1447424760
   38      H      -7.6294086848    -1.0937422176     1.2826267082
   39      H      -7.3290602372    -2.5610993757    -0.8625274006
 ----------------------------------------------------------------

    9   -2291.1478203140      5.97E-09 Convergence criterion met
 Total energy in the final basis set = -2291.1478203140
 Final energy is   -2291.14782031397
 **  OPTIMIZATION CONVERGED  **

                    Orbital Energies (a.u.)
 --------------------------------------------------------------

 Alpha MOs
 -- Occupied --
-89.146 -89.099 -89.079 -14.483 -14.479 -14.461 -14.460 -14.445
-14.434 -10.355 -10.352 -10.351 -10.344 -10.343 -10.342 -10.340
-10.340 -10.337 -10.336 -10.332 -10.330 -10.327 -10.324 -10.318
-10.310 -10.301 -10.298 -10.295 -10.295  -8.157  -8.113  -8.094
 -6.107  -6.101  -6.100  -6.062  -6.058  -6.057  -6.043  -6.040
 -6.037  -1.143  -1.100  -1.069  -1.049  -1.028  -1.013  -1.003
 -0.986  -0.925  -0.912  -0.896  -0.878  -0.867  -0.853  -0.839
 -0.811  -0.777  -0.771  -0.748  -0.738  -0.730  -0.716  -0.710
 -0.671  -0.656  -0.647  -0.629  -0.628  -0.620  -0.608  -0.604
 -0.586  -0.576  -0.568  -0.561  -0.558  -0.546  -0.543  -0.527
 -0.512  -0.507  -0.500  -0.498  -0.493  -0.492  -0.485  -0.482
 -0.475  -0.468  -0.462  -0.461  -0.449  -0.440  -0.429  -0.426
 -0.420  -0.411  -0.393  -0.376  -0.371  -0.360  -0.357  -0.344
 -0.341  -0.338  -0.335  -0.333  -0.320  -0.272

          Ground-State Mulliken Net Atomic Charges

     Atom                 Charge (a.u.)
  ----------------------------------------
      1 C                    -0.092301
      2 C                    -0.129225
      3 C                    -0.080527
      4 C                    -0.118346
      5 N                    -0.145898
      6 C                     0.082691
      7 C                     0.100224
      8 N                    -0.177329
      9 C                    -0.018155
     10 C                    -0.082150
     11 N                    -0.217618
     12 C                     0.053293
     13 C                     0.056426
     14 S                     0.405577
     15 N                    -0.305369
     16 C                    -0.066294
     17 S                     0.207553
     18 C                     0.045339
     19 C                    -0.090426
     20 N                    -0.169721
     21 C                     0.044650
     22 C                    -0.017812
     23 C                    -0.049190
     24 N                    -0.136735
     25 C                    -0.142097
     26 S                     0.119922
     27 C                    -0.049085
     28 C                    -0.149298
     29 C                    -0.185243
     30 H                     0.133030
     31 H                     0.120272
     32 H                     0.119847
     33 H                     0.137722
     34 H                     0.138281
     35 H                     0.128314
     36 H                     0.134764
     37 H                     0.131341
     38 H                     0.128832
     39 H                     0.134738
  ----------------------------------------
  Sum of atomic charges =     0.000000

                    Cartesian Multipole Moments
 -----------------------------------------------------------------
    Charge (ESU x 10^10)
                 0.0000
    Dipole Moment (Debye)
         X      -0.0382      Y       1.2558      Z       0.9687
       Tot       1.5865
    Quadrupole Moments (Debye-Ang)
        XX    -153.3804     XY       5.3807     YY    -166.7851
        XZ      -2.4249     YZ       2.7348     ZZ    -183.9268

 Total job time:  8174.91s(wall), 122051.17s(cpu)
        *  Thank you very much for using Q-Chem.  Have a nice day.  *
