 Q-Chem 4.4, Q-Chem, Inc., Pleasanton, CA (2016)
 Q-Chem 4.4.2 for Intel X86 Linux

User input:
--------------------------------------------------------------
$comment
OPTIMIZATION
$end

$rem
JOBTYPE OPT
EXCHANGE omegaB97X-D
BASIS cc-pVTZ
$end

$molecule
0 1
C          0.00000        0.00000        0.00000
C         -0.65396       -1.22126       -0.00000
C          1.38563        0.00000        0.00000
C          0.09526       -2.37957        0.00866
N          2.11912       -1.10562        0.01199
C          1.48546       -2.27640        0.02149
C          2.30642       -3.51253        0.03449
N          1.74513       -4.60745       -0.39909
C          3.65824       -3.56714        0.50995
C          2.40434       -5.79109       -0.42442
N          4.38617       -2.58332        1.04242
C          4.35289       -4.81920        0.47143
C          3.70163       -5.99343       -0.01477
S          5.80914       -3.21778        1.41887
N          5.59255       -4.74484        0.95148
C          4.33823       -7.30129       -0.04468
S          6.02589       -7.51949        0.20234
C          3.75434       -8.55173       -0.24928
C          5.99762       -9.21427        0.01351
N          2.43078       -8.79033       -0.46746
C          4.69159       -9.63209       -0.21260
C          7.19111      -10.02404        0.10954
C          2.09912      -10.03238       -0.63993
N          4.30733      -10.92364       -0.39820
C          7.89077      -10.61249       -0.90797
S          7.94081      -10.36388        1.63643
C          3.03978      -11.10696       -0.60697
C          9.01595      -11.34311       -0.45694
C          9.16468      -11.30325        0.89370
H         -0.54853        0.93120        0.00000
H         -1.73532       -1.26909       -0.00410
H          1.93662        0.93286       -0.01167
H         -0.36319       -3.35650        0.00329
H          1.82722       -6.62671       -0.78554
H          1.05088      -10.24576       -0.82054
H          7.59931      -10.50743       -1.93939
H          2.69937      -12.12548       -0.75876
H          9.68109      -11.87960       -1.11635
H          9.93045      -11.76931        1.48981
$end

$opt
CONSTRAINT
tors 4 6 7 8 21.82164
tors 10 13 16 17 169.06444
tors 17 19 22 25 -105.00000
ENDCONSTRAINT
$end
--------------------------------------------------------------

   16   -2291.1459267452      4.99E-09 Convergence criterion met
 Total energy in the final basis set = -2291.1459267452
   12   -2291.1463211061      7.07E-09 Convergence criterion met
 Total energy in the final basis set = -2291.1463211061
   12   -2291.1463968758      6.61E-09 Convergence criterion met
 Total energy in the final basis set = -2291.1463968758
   11   -2291.1464502261      8.13E-09 Convergence criterion met
 Total energy in the final basis set = -2291.1464502261
   11   -2291.1464688851      6.49E-09 Convergence criterion met
 Total energy in the final basis set = -2291.1464688851
   11   -2291.1464759926      5.28E-09 Convergence criterion met
 Total energy in the final basis set = -2291.1464759926
    9   -2291.1464774715      5.11E-09 Convergence criterion met
 Total energy in the final basis set = -2291.1464774715

             Standard Nuclear Orientation (Angstroms)
    I     Atom           X                Y                Z
 ----------------------------------------------------------------
    1      C       7.6853607101     0.3409620385    -0.2349526344
    2      C       7.0239495872     1.4807931079     0.1919576601
    3      C       6.9281271206    -0.7726732875    -0.5613083289
    4      C       5.6456850090     1.4601503403     0.2769233526
    5      N       5.6049621075    -0.8091798614    -0.4777387873
    6      C       4.9749673190     0.2864998349    -0.0602850509
    7      C       3.4921416156     0.2482211875    -0.0007255592
    8      N       2.8611459634     1.3875342331    -0.0634158706
    9      C       2.7347871965    -0.9605469377     0.1359203518
   10      C       1.5067104844     1.4590091746    -0.0501201247
   11      N       3.1894809481    -2.2046383402     0.2981076510
   12      C       1.3051299285    -0.8797312365     0.1470949907
   13      C       0.6520999540     0.3856014581     0.0365128308
   14      S       1.9009894967    -3.1492600345     0.4244243984
   15      N       0.7156790950    -2.0654262679     0.2948714857
   16      C      -0.7987253231     0.5298834454     0.0190914644
   17      S      -1.8558856015    -0.8135471752    -0.1484570680
   18      C      -1.5650972029     1.6937556423     0.0907318668
   19      C      -3.2840475365     0.1112441410    -0.1231487667
   20      N      -1.0870953501     2.9631363636     0.2333377116
   21      C      -2.9730180856     1.4514746486     0.0098682443
   22      C      -4.6017738314    -0.4980855481    -0.2669353388
   23      C      -1.9815407991     3.9004343807     0.2856469140
   24      N      -3.8867129897     2.4604337037     0.0706154930
   25      C      -5.4163256648    -0.4774666673    -1.3593039241
   26      S      -5.3273703535    -1.3977667473     1.0181130861
   27      C      -3.3881048940     3.6489985485     0.2039261470
   28      C      -6.6298133806    -1.1816779637    -1.1609564014
   29      C      -6.7165007128    -1.7343476321     0.0779486413
   30      H       8.7624897277     0.3123015175    -0.3189515573
   31      H       7.5753356731     2.3733848889     0.4545849653
   32      H       7.4058156023    -1.6797075246    -0.9133212899
   33      H       5.0797888739     2.3230999094     0.5923052859
   34      H       1.0997280730     2.4557298689    -0.1132938831
   35      H      -1.6303854659     4.9202939177     0.3996223910
   36      H      -5.1467139930     0.0308422735    -2.2724197871
   37      H      -4.0794114542     4.4828896123     0.2587734005
   38      H      -7.4002496423    -1.2809478213    -1.9100596473
   39      H      -7.5227884337    -2.3172866023     0.4896206887
 ----------------------------------------------------------------

    9   -2291.1464781273      3.73E-09 Convergence criterion met
 Total energy in the final basis set = -2291.1464781273
 Final energy is   -2291.14647812726
 **  OPTIMIZATION CONVERGED  **

                    Orbital Energies (a.u.)
 --------------------------------------------------------------

 Alpha MOs
 -- Occupied --
-89.147 -89.099 -89.078 -14.483 -14.480 -14.461 -14.459 -14.445
-14.434 -10.355 -10.353 -10.351 -10.344 -10.343 -10.342 -10.340
-10.339 -10.337 -10.336 -10.331 -10.331 -10.327 -10.324 -10.317
-10.310 -10.301 -10.299 -10.295 -10.294  -8.157  -8.113  -8.093
 -6.107  -6.101  -6.101  -6.062  -6.058  -6.057  -6.042  -6.039
 -6.036  -1.144  -1.100  -1.069  -1.049  -1.028  -1.013  -1.003
 -0.986  -0.925  -0.912  -0.896  -0.878  -0.867  -0.852  -0.838
 -0.811  -0.777  -0.771  -0.749  -0.738  -0.730  -0.716  -0.710
 -0.670  -0.657  -0.646  -0.629  -0.628  -0.620  -0.608  -0.604
 -0.586  -0.576  -0.568  -0.561  -0.558  -0.546  -0.543  -0.527
 -0.512  -0.507  -0.499  -0.498  -0.493  -0.491  -0.485  -0.480
 -0.475  -0.468  -0.463  -0.461  -0.449  -0.439  -0.428  -0.426
 -0.420  -0.411  -0.394  -0.376  -0.371  -0.360  -0.357  -0.343
 -0.338  -0.337  -0.334  -0.332  -0.319  -0.277

          Ground-State Mulliken Net Atomic Charges

     Atom                 Charge (a.u.)
  ----------------------------------------
      1 C                    -0.092307
      2 C                    -0.128967
      3 C                    -0.080163
      4 C                    -0.118310
      5 N                    -0.145590
      6 C                     0.083127
      7 C                     0.099633
      8 N                    -0.177458
      9 C                    -0.017851
     10 C                    -0.081079
     11 N                    -0.217586
     12 C                     0.053468
     13 C                     0.056765
     14 S                     0.406095
     15 N                    -0.305337
     16 C                    -0.067855
     17 S                     0.219286
     18 C                     0.044396
     19 C                    -0.107014
     20 N                    -0.169159
     21 C                     0.047699
     22 C                    -0.032490
     23 C                    -0.049955
     24 N                    -0.129405
     25 C                    -0.139523
     26 S                     0.127031
     27 C                    -0.050015
     28 C                    -0.148603
     29 C                    -0.184963
     30 H                     0.133074
     31 H                     0.120359
     32 H                     0.119442
     33 H                     0.137744
     34 H                     0.138502
     35 H                     0.128059
     36 H                     0.133675
     37 H                     0.131971
     38 H                     0.129174
     39 H                     0.134134
  ----------------------------------------
  Sum of atomic charges =     0.000000

                    Cartesian Multipole Moments
 -----------------------------------------------------------------
    Charge (ESU x 10^10)
                 0.0000
    Dipole Moment (Debye)
         X       0.1647      Y       1.1808      Z      -0.0750
       Tot       1.1946
    Quadrupole Moments (Debye-Ang)
        XX    -154.7962     XY       5.6945     YY    -167.6742
        XZ       5.1051     YZ       0.8052     ZZ    -182.4052

 Total job time:  7283.95s(wall), 108519.36s(cpu)
        *  Thank you very much for using Q-Chem.  Have a nice day.  *
