 Q-Chem 4.4, Q-Chem, Inc., Pleasanton, CA (2016)
 Q-Chem 4.4.2 for Intel X86 Linux

User input:
--------------------------------------------------------------
$comment
OPTIMIZATION
$end

$rem
JOBTYPE OPT
EXCHANGE omegaB97X-D
BASIS cc-pVTZ
$end

$molecule
0 1
C          0.00000        0.00000        0.00000
C         -0.65396       -1.22126       -0.00000
C          1.38563        0.00000        0.00000
C          0.09526       -2.37957        0.00866
N          2.11912       -1.10562        0.01199
C          1.48546       -2.27640        0.02149
C          2.30642       -3.51253        0.03449
N          1.74513       -4.60745       -0.39909
C          3.65824       -3.56714        0.50995
C          2.40434       -5.79109       -0.42442
N          4.38617       -2.58332        1.04242
C          4.35289       -4.81920        0.47143
C          3.70163       -5.99343       -0.01477
S          5.80914       -3.21778        1.41887
N          5.59255       -4.74484        0.95148
C          4.33823       -7.30129       -0.04468
S          6.02589       -7.51949        0.20234
C          3.75434       -8.55173       -0.24928
C          5.99762       -9.21427        0.01351
N          2.43078       -8.79033       -0.46746
C          4.69159       -9.63209       -0.21260
C          7.19111      -10.02404        0.10954
C          2.09912      -10.03238       -0.63993
N          4.30733      -10.92364       -0.39820
C          7.27535      -11.38110        0.25924
S          8.77598       -9.32340        0.03066
C          3.03978      -11.10696       -0.60697
C          8.60927      -11.85000        0.32306
C          9.52561      -10.85125        0.21947
H         -0.54853        0.93120        0.00000
H         -1.73532       -1.26909       -0.00410
H          1.93662        0.93286       -0.01167
H         -0.36319       -3.35650        0.00329
H          1.82722       -6.62671       -0.78554
H          1.05088      -10.24576       -0.82054
H          6.40064      -12.00718        0.31133
H          2.69937      -12.12548       -0.75876
H          8.86965      -12.89015        0.44696
H         10.59894      -10.93259        0.23727
$end

$opt
CONSTRAINT
tors 4 6 7 8 21.82164
tors 10 13 16 17 169.06444
tors 17 19 22 25 165.00000
ENDCONSTRAINT
$end
--------------------------------------------------------------

   16   -2291.1503451983      5.35E-09 Convergence criterion met
 Total energy in the final basis set = -2291.1503451983
   12   -2291.1504866591      6.66E-09 Convergence criterion met
 Total energy in the final basis set = -2291.1504866591
   12   -2291.1505473081      5.12E-09 Convergence criterion met
 Total energy in the final basis set = -2291.1505473081
   12   -2291.1505764434      3.07E-09 Convergence criterion met
 Total energy in the final basis set = -2291.1505764434
   11   -2291.1505901238      8.36E-09 Convergence criterion met
 Total energy in the final basis set = -2291.1505901238
   11   -2291.1505946547      4.20E-09 Convergence criterion met
 Total energy in the final basis set = -2291.1505946547

             Standard Nuclear Orientation (Angstroms)
    I     Atom           X                Y                Z
 ----------------------------------------------------------------
    1      C       7.6628630615     0.2915156571    -0.3429960216
    2      C       7.0217722842     1.4631555091     0.0249264433
    3      C       6.8883011619    -0.8320957064    -0.5827293426
    4      C       5.6456054942     1.4627747018     0.1401168552
    5      N       5.5669046706    -0.8489214102    -0.4698942258
    6      C       4.9565885675     0.2775852706    -0.1089988771
    7      C       3.4752693905     0.2596238210    -0.0175170364
    8      N       2.8535853170     1.3996773033    -0.1392302390
    9      C       2.7094937897    -0.9290466799     0.2140493756
   10      C       1.5011734659     1.4874899938    -0.1021164427
   11      N       3.1547284227    -2.1655297306     0.4462280449
   12      C       1.2814793300    -0.8313059224     0.2515915174
   13      C       0.6375069179     0.4312775795     0.0731507518
   14      S       1.8599235628    -3.0849555443     0.6633969093
   15      N       0.6834794481    -1.9976928934     0.4898368932
   16      C      -0.8095892208     0.5869199071     0.0783869926
   17      S      -1.8780249992    -0.7590688785     0.0221917638
   18      C      -1.5699844369     1.7550772266     0.0987340834
   19      C      -3.3072821885     0.1705819926    -0.0036981464
   20      N      -1.0786308422     3.0248664400     0.1617797295
   21      C      -2.9813461414     1.5205826985     0.0545808976
   22      C      -4.6155571569    -0.4434950306    -0.0635295825
   23      C      -1.9604620844     3.9758542542     0.1704428325
   24      N      -3.8767114906     2.5449553378     0.0623028946
   25      C      -5.8319487164     0.1325373726     0.1881786185
   26      S      -4.8130839929    -2.1121445603    -0.4921198280
   27      C      -3.3677348342     3.7367377072     0.1171448602
   28      C      -6.9120464534    -0.7703459092     0.0434233950
   29      C      -6.5134275690    -2.0185631471    -0.3162129266
   30      H       8.7375732269     0.2457613408    -0.4478743981
   31      H       7.5872344373     2.3647421595     0.2175694878
   32      H       7.3502170060    -1.7642195032    -0.8871825881
   33      H       5.0944443056     2.3493706655     0.4131708562
   34      H       1.1030887388     2.4827130269    -0.2207207948
   35      H      -1.5946192392     4.9955860699     0.2218645595
   36      H      -5.9316081205     1.1700472269     0.4615989494
   37      H      -4.0511538432     4.5785228132     0.1217831686
   38      H      -7.9448376403    -0.5013818617     0.2040214618
   39      H      -7.1231340185    -2.8882330709    -0.4917304117
 ----------------------------------------------------------------

    9   -2291.1505954604      5.02E-09 Convergence criterion met
 Total energy in the final basis set = -2291.1505954604
 Final energy is   -2291.15059546038
 **  OPTIMIZATION CONVERGED  **

                    Orbital Energies (a.u.)
 --------------------------------------------------------------

 Alpha MOs
 -- Occupied --
-89.146 -89.099 -89.079 -14.482 -14.479 -14.463 -14.462 -14.445
-14.434 -10.355 -10.352 -10.350 -10.346 -10.344 -10.344 -10.342
-10.341 -10.338 -10.336 -10.335 -10.330 -10.326 -10.323 -10.320
-10.309 -10.301 -10.298 -10.295 -10.293  -8.156  -8.113  -8.095
 -6.106  -6.101  -6.100  -6.062  -6.058  -6.057  -6.044  -6.040
 -6.037  -1.143  -1.102  -1.068  -1.048  -1.030  -1.014  -1.003
 -0.986  -0.925  -0.911  -0.896  -0.879  -0.870  -0.853  -0.838
 -0.812  -0.777  -0.772  -0.749  -0.738  -0.731  -0.716  -0.711
 -0.672  -0.655  -0.649  -0.629  -0.628  -0.620  -0.607  -0.603
 -0.587  -0.576  -0.568  -0.560  -0.557  -0.548  -0.543  -0.526
 -0.512  -0.508  -0.501  -0.499  -0.493  -0.492  -0.486  -0.484
 -0.473  -0.466  -0.463  -0.461  -0.452  -0.443  -0.429  -0.427
 -0.418  -0.411  -0.392  -0.378  -0.372  -0.360  -0.358  -0.351
 -0.344  -0.338  -0.335  -0.334  -0.321  -0.262

          Ground-State Mulliken Net Atomic Charges

     Atom                 Charge (a.u.)
  ----------------------------------------
      1 C                    -0.092440
      2 C                    -0.129314
      3 C                    -0.080765
      4 C                    -0.118602
      5 N                    -0.145920
      6 C                     0.083019
      7 C                     0.099146
      8 N                    -0.176626
      9 C                    -0.019321
     10 C                    -0.086079
     11 N                    -0.217727
     12 C                     0.050358
     13 C                     0.064977
     14 S                     0.405093
     15 N                    -0.304988
     16 C                    -0.071167
     17 S                     0.170709
     18 C                     0.061581
     19 C                    -0.056504
     20 N                    -0.169159
     21 C                     0.068216
     22 C                    -0.007882
     23 C                    -0.045981
     24 N                    -0.162975
     25 C                    -0.142709
     26 S                     0.097476
     27 C                    -0.045066
     28 C                    -0.160086
     29 C                    -0.180279
     30 H                     0.132900
     31 H                     0.120136
     32 H                     0.119684
     33 H                     0.137393
     34 H                     0.138231
     35 H                     0.128496
     36 H                     0.141824
     37 H                     0.126764
     38 H                     0.130436
     39 H                     0.137150
  ----------------------------------------
  Sum of atomic charges =     0.000000

                    Cartesian Multipole Moments
 -----------------------------------------------------------------
    Charge (ESU x 10^10)
                 0.0000
    Dipole Moment (Debye)
         X      -0.3116      Y       1.5172      Z       0.5317
       Tot       1.6376
    Quadrupole Moments (Debye-Ang)
        XX    -151.1659     XY       2.9488     YY    -164.3486
        XZ       0.2333     YZ       2.0733     ZZ    -187.2223

 Total job time:  6671.81s(wall), 99524.96s(cpu)
        *  Thank you very much for using Q-Chem.  Have a nice day.  *
