 Q-Chem 4.4, Q-Chem, Inc., Pleasanton, CA (2016)
 Q-Chem 4.4.2 for Intel X86 Linux

User input:
--------------------------------------------------------------
$comment
OPTIMIZATION
$end

$rem
JOBTYPE OPT
EXCHANGE omegaB97X-D
BASIS cc-pVTZ
$end

$molecule
0 1
C          0.00000        0.00000        0.00000
C         -0.65396       -1.22126       -0.00000
C          1.38563        0.00000        0.00000
C          0.09526       -2.37957        0.00866
N          2.11912       -1.10562        0.01199
C          1.48546       -2.27640        0.02149
C          2.30642       -3.51253        0.03449
N          1.74513       -4.60745       -0.39909
C          3.65824       -3.56714        0.50995
C          2.40434       -5.79109       -0.42442
N          4.38617       -2.58332        1.04242
C          4.35289       -4.81920        0.47143
C          3.70163       -5.99343       -0.01477
S          5.80914       -3.21778        1.41887
N          5.59255       -4.74484        0.95148
C          4.33823       -7.30129       -0.04468
S          6.02589       -7.51949        0.20234
C          3.75434       -8.55173       -0.24928
C          5.99762       -9.21427        0.01351
N          2.43078       -8.79033       -0.46746
C          4.69159       -9.63209       -0.21260
C          7.19111      -10.02404        0.10954
C          2.09912      -10.03238       -0.63993
N          4.30733      -10.92364       -0.39820
C          8.04821      -10.37899       -0.89570
S          7.72535      -10.68309        1.62254
C          3.03978      -11.10696       -0.60697
C          9.12072      -11.18787       -0.44993
C          9.07321      -11.43908        0.88520
H         -0.54853        0.93120        0.00000
H         -1.73532       -1.26909       -0.00410
H          1.93662        0.93286       -0.01167
H         -0.36319       -3.35650        0.00329
H          1.82722       -6.62671       -0.78554
H          1.05088      -10.24576       -0.82054
H          7.90407      -10.05509       -1.91262
H          2.69937      -12.12548       -0.75876
H          9.89069      -11.56912       -1.10326
H          9.76071      -12.02129        1.47455
$end

$opt
CONSTRAINT
tors 4 6 7 8 21.82164
tors 10 13 16 17 169.06444
tors 17 19 22 25 -90.00000
ENDCONSTRAINT
$end
--------------------------------------------------------------

   16   -2291.1455822973      4.91E-09 Convergence criterion met
 Total energy in the final basis set = -2291.1455822973
   12   -2291.1459782186      6.83E-09 Convergence criterion met
 Total energy in the final basis set = -2291.1459782186
   12   -2291.1460322242      5.96E-09 Convergence criterion met
 Total energy in the final basis set = -2291.1460322242
   11   -2291.1460693221      5.85E-09 Convergence criterion met
 Total energy in the final basis set = -2291.1460693221
   10   -2291.1460793653      8.58E-09 Convergence criterion met
 Total energy in the final basis set = -2291.1460793653
   11   -2291.1460849173      5.68E-09 Convergence criterion met
 Total energy in the final basis set = -2291.1460849173

             Standard Nuclear Orientation (Angstroms)
    I     Atom           X                Y                Z
 ----------------------------------------------------------------
    1      C       7.6986899233     0.3687100849    -0.1879463836
    2      C       7.0226854727     1.5090211184     0.2140909702
    3      C       6.9543593053    -0.7542797748    -0.5121039490
    4      C       5.6434554633     1.4794916744     0.2779035603
    5      N       5.6303402699    -0.7993523526    -0.4486565571
    6      C       4.9863161198     0.2969732315    -0.0550179964
    7      C       3.5030273736     0.2489381251    -0.0157430815
    8      N       2.8654065235     1.3831312739    -0.1005916905
    9      C       2.7520904528    -0.9632451404     0.1262736141
   10      C       1.5104044271     1.4458978498    -0.1021997269
   11      N       3.2128154356    -2.2026272293     0.3068476201
   12      C       1.3219431162    -0.8915112836     0.1214046201
   13      C       0.6621579780     0.3681735290    -0.0098202327
   14      S       1.9290230314    -3.1539622073     0.4303321478
   15      N       0.7384036902    -2.0792083560     0.2764385842
   16      C      -0.7896389198     0.5033826743    -0.0321638215
   17      S      -1.8393923022    -0.8462515429    -0.1923318677
   18      C      -1.5626132369     1.6629945353     0.0403443904
   19      C      -3.2718662340     0.0716594042    -0.1810194492
   20      N      -1.0920653923     2.9352788680     0.1818535662
   21      C      -2.9689830997     1.4123185725    -0.0395991710
   22      C      -4.5878415012    -0.5516459513    -0.2946600474
   23      C      -1.9922186692     3.8669746561     0.2351629901
   24      N      -3.8892126723     2.4155872215     0.0223405531
   25      C      -5.2945884738    -0.8194641004    -1.4283417001
   26      S      -5.4817286507    -1.0247563863     1.1067398849
   27      C      -3.3975233012     3.6069351635     0.1550221317
   28      C      -6.5578198310    -1.4086753720    -1.1710035646
   29      C      -6.7920054952    -1.5797133181     0.1567753003
   30      H       8.7771745701     0.3468100598    -0.2548076830
   31      H       7.5635481224     2.4087328862     0.4743210207
   32      H       7.4440054869    -1.6621556291    -0.8450112347
   33      H       5.0661694451     2.3419678959     0.5733833996
   34      H       1.0978477740     2.4392371549    -0.1808672654
   35      H      -1.6475185539     4.8890879908     0.3487507782
   36      H      -4.9187747519    -0.5904875163    -2.4140154675
   37      H      -4.0936285537     4.4368695571     0.2096457616
   38      H      -7.2611795663    -1.6887692829    -1.9398444340
   39      H      -7.6642403688    -2.0017028238     0.6264755725
 ----------------------------------------------------------------

    9   -2291.1460858511      5.06E-09 Convergence criterion met
 Total energy in the final basis set = -2291.1460858511
 Final energy is   -2291.14608585106
 **  OPTIMIZATION CONVERGED  **

                    Orbital Energies (a.u.)
 --------------------------------------------------------------

 Alpha MOs
 -- Occupied --
-89.147 -89.099 -89.077 -14.483 -14.480 -14.461 -14.459 -14.446
-14.435 -10.355 -10.353 -10.351 -10.344 -10.343 -10.342 -10.340
-10.338 -10.337 -10.336 -10.331 -10.331 -10.327 -10.324 -10.317
-10.310 -10.301 -10.299 -10.295 -10.294  -8.157  -8.113  -8.092
 -6.107  -6.101  -6.101  -6.062  -6.058  -6.057  -6.041  -6.038
 -6.035  -1.144  -1.100  -1.069  -1.049  -1.028  -1.013  -1.002
 -0.986  -0.925  -0.912  -0.896  -0.877  -0.867  -0.852  -0.838
 -0.811  -0.777  -0.771  -0.749  -0.738  -0.730  -0.716  -0.710
 -0.670  -0.657  -0.645  -0.630  -0.628  -0.620  -0.608  -0.604
 -0.586  -0.576  -0.568  -0.561  -0.559  -0.546  -0.543  -0.527
 -0.512  -0.507  -0.499  -0.498  -0.493  -0.491  -0.485  -0.480
 -0.475  -0.468  -0.463  -0.461  -0.449  -0.438  -0.428  -0.426
 -0.420  -0.410  -0.394  -0.376  -0.371  -0.360  -0.357  -0.343
 -0.337  -0.337  -0.334  -0.332  -0.318  -0.279

          Ground-State Mulliken Net Atomic Charges

     Atom                 Charge (a.u.)
  ----------------------------------------
      1 C                    -0.092394
      2 C                    -0.128917
      3 C                    -0.080138
      4 C                    -0.118199
      5 N                    -0.145612
      6 C                     0.082806
      7 C                     0.100106
      8 N                    -0.177602
      9 C                    -0.017408
     10 C                    -0.080344
     11 N                    -0.217580
     12 C                     0.053037
     13 C                     0.057375
     14 S                     0.406164
     15 N                    -0.305091
     16 C                    -0.070247
     17 S                     0.222200
     18 C                     0.044485
     19 C                    -0.110686
     20 N                    -0.169275
     21 C                     0.048115
     22 C                    -0.030289
     23 C                    -0.050209
     24 N                    -0.128480
     25 C                    -0.147957
     26 S                     0.131521
     27 C                    -0.049614
     28 C                    -0.149247
     29 C                    -0.182876
     30 H                     0.133100
     31 H                     0.120373
     32 H                     0.119666
     33 H                     0.137887
     34 H                     0.138281
     35 H                     0.128165
     36 H                     0.134742
     37 H                     0.132087
     38 H                     0.128860
     39 H                     0.133191
  ----------------------------------------
  Sum of atomic charges =     0.000000

                    Cartesian Multipole Moments
 -----------------------------------------------------------------
    Charge (ESU x 10^10)
                 0.0000
    Dipole Moment (Debye)
         X       0.2277      Y       1.0933      Z      -0.0195
       Tot       1.1169
    Quadrupole Moments (Debye-Ang)
        XX    -155.1783     XY       6.1952     YY    -168.2295
        XZ       4.4284     YZ       1.9527     ZZ    -181.8532

 Total job time:  6488.05s(wall), 96862.82s(cpu)
        *  Thank you very much for using Q-Chem.  Have a nice day.  *
