 Q-Chem 4.4, Q-Chem, Inc., Pleasanton, CA (2016)
 Q-Chem 4.4.2 for Intel X86 Linux

User input:
--------------------------------------------------------------
$comment
OPTIMIZATION
$end

$rem
JOBTYPE OPT
EXCHANGE omegaB97X-D
BASIS cc-pVTZ
$end

$molecule
0 1
C          0.00000        0.00000        0.00000
C         -0.65396       -1.22126       -0.00000
C          1.38563        0.00000        0.00000
C          0.09526       -2.37957        0.00866
N          2.11912       -1.10562        0.01199
C          1.48546       -2.27640        0.02149
C          2.30642       -3.51253        0.03449
N          1.74513       -4.60745       -0.39909
C          3.65824       -3.56714        0.50995
C          2.40434       -5.79109       -0.42442
N          4.38617       -2.58332        1.04242
C          4.35289       -4.81920        0.47143
C          3.70163       -5.99343       -0.01477
S          5.80914       -3.21778        1.41887
N          5.59255       -4.74484        0.95148
C          4.33823       -7.30129       -0.04468
S          6.02589       -7.51949        0.20234
C          3.75434       -8.55173       -0.24928
C          5.99762       -9.21427        0.01351
N          2.43078       -8.79033       -0.46746
C          4.69159       -9.63209       -0.21260
C          7.19111      -10.02404        0.10954
C          2.09912      -10.03238       -0.63993
N          4.30733      -10.92364       -0.39820
C          7.87817      -10.37648        1.23864
S          7.94553      -10.70474       -1.29631
C          3.03978      -11.10696       -0.60697
C          9.01256      -11.17896        0.96942
C          9.17793      -11.43193       -0.35594
H         -0.54853        0.93120        0.00000
H         -1.73532       -1.26909       -0.00410
H          1.93662        0.93286       -0.01167
H         -0.36319       -3.35650        0.00329
H          1.82722       -6.62671       -0.78554
H          1.05088      -10.24576       -0.82054
H          7.56189      -10.06918        2.22115
H          2.69937      -12.12548       -0.75876
H          9.67830      -11.54545        1.73592
H          9.95284      -12.01120       -0.82808
$end

$opt
CONSTRAINT
tors 4 6 7 8 21.82164
tors 10 13 16 17 169.06444
tors 17 19 22 25 75.00000
ENDCONSTRAINT
$end
--------------------------------------------------------------

   16   -2291.1460883536      4.80E-09 Convergence criterion met
 Total energy in the final basis set = -2291.1460883536
   12   -2291.1465213899      6.17E-09 Convergence criterion met
 Total energy in the final basis set = -2291.1465213899
   12   -2291.1465937504      5.86E-09 Convergence criterion met
 Total energy in the final basis set = -2291.1465937504
   11   -2291.1466419113      7.09E-09 Convergence criterion met
 Total energy in the final basis set = -2291.1466419113
   11   -2291.1466605370      5.39E-09 Convergence criterion met
 Total energy in the final basis set = -2291.1466605370
   11   -2291.1466692481      4.62E-09 Convergence criterion met
 Total energy in the final basis set = -2291.1466692481

             Standard Nuclear Orientation (Angstroms)
    I     Atom           X                Y                Z
 ----------------------------------------------------------------
    1      C       7.6925237569     0.4109257512    -0.3762926056
    2      C       7.0220696502     1.5535618545     0.0285097468
    3      C       6.9466712327    -0.7243903225    -0.6499891786
    4      C       5.6466192242     1.5138872136     0.1456956641
    5      N       5.6265131933    -0.7792274500    -0.5347007599
    6      C       4.9882188425     0.3192365460    -0.1377109562
    7      C       3.5081397977     0.2590791525    -0.0391856097
    8      N       2.8561412454     1.3852239472    -0.1211591664
    9      C       2.7761574911    -0.9565435652     0.1601461061
   10      C       1.5016386199     1.4351448697    -0.0688246997
   11      N       3.2569874646    -2.1871264017     0.3473473071
   12      C       1.3462645803    -0.8984277125     0.2142582929
   13      C       0.6688315117     0.3519852041     0.0826533675
   14      S       1.9896393997    -3.1476484799     0.5457516448
   15      N       0.7820346089    -2.0878590938     0.4195860041
   16      C      -0.7838412912     0.4727257396     0.1110924446
   17      S      -1.8243224528    -0.8909128153     0.0246960976
   18      C      -1.5664862435     1.6261271027     0.1808882359
   19      C      -3.2655449536     0.0107457828     0.0911442210
   20      N      -1.1050554493     2.9064944034     0.2687031576
   21      C      -2.9721979038     1.3594789019     0.1663884986
   22      C      -4.5705677317    -0.6387522541     0.0413969030
   23      C      -2.0124352564     3.8307194705     0.3305425730
   24      N      -3.8996267863     2.3550858578     0.2361940599
   25      C      -5.1957075772    -1.3378648634     1.0315567439
   26      S      -5.5746964315    -0.5368127555    -1.3603843985
   27      C      -3.4167054752     3.5549915535     0.3135672029
   28      C      -6.4806039572    -1.8039203818     0.6573298566
   29      C      -6.8156678497    -1.4443006539    -0.6097523176
   30      H       8.7678424192     0.3966428367    -0.4837660870
   31      H       7.5643653630     2.4630434550     0.2486771566
   32      H       7.4314577188    -1.6343983717    -0.9842036678
   33      H       5.0730992214     2.3772106715     0.4459863557
   34      H       1.0756422796     2.4224188074    -0.1527007259
   35      H      -1.6741150776     4.8588530190     0.4010498319
   36      H      -4.7447475689    -1.5011453901     1.9988635485
   37      H      -4.1195723852     4.3788287941     0.3725234966
   38      H      -7.1253023866    -2.3797733227     1.3031979288
   39      H      -7.7256573138    -1.6627468305    -1.1424011584
 ----------------------------------------------------------------

    9   -2291.1466701365      3.36E-09 Convergence criterion met
 Total energy in the final basis set = -2291.1466701365
 Final energy is   -2291.14667013646
 **  OPTIMIZATION CONVERGED  **

                    Orbital Energies (a.u.)
 --------------------------------------------------------------

 Alpha MOs
 -- Occupied --
-89.147 -89.099 -89.077 -14.483 -14.480 -14.461 -14.459 -14.445
-14.434 -10.355 -10.353 -10.351 -10.344 -10.343 -10.342 -10.340
-10.339 -10.337 -10.336 -10.332 -10.331 -10.327 -10.324 -10.317
-10.310 -10.301 -10.299 -10.296 -10.294  -8.157  -8.113  -8.092
 -6.107  -6.101  -6.101  -6.062  -6.058  -6.057  -6.041  -6.038
 -6.035  -1.144  -1.100  -1.069  -1.049  -1.028  -1.013  -1.003
 -0.986  -0.925  -0.912  -0.896  -0.878  -0.867  -0.852  -0.838
 -0.811  -0.777  -0.771  -0.749  -0.738  -0.730  -0.716  -0.710
 -0.670  -0.658  -0.645  -0.629  -0.628  -0.620  -0.608  -0.604
 -0.586  -0.576  -0.568  -0.561  -0.559  -0.546  -0.543  -0.527
 -0.512  -0.507  -0.499  -0.498  -0.493  -0.492  -0.484  -0.481
 -0.475  -0.468  -0.463  -0.461  -0.448  -0.438  -0.428  -0.425
 -0.420  -0.411  -0.394  -0.376  -0.371  -0.360  -0.357  -0.342
 -0.339  -0.337  -0.334  -0.331  -0.319  -0.277

          Ground-State Mulliken Net Atomic Charges

     Atom                 Charge (a.u.)
  ----------------------------------------
      1 C                    -0.092340
      2 C                    -0.129198
      3 C                    -0.080340
      4 C                    -0.118263
      5 N                    -0.145794
      6 C                     0.082900
      7 C                     0.100329
      8 N                    -0.177593
      9 C                    -0.017894
     10 C                    -0.081037
     11 N                    -0.217149
     12 C                     0.053200
     13 C                     0.058266
     14 S                     0.405358
     15 N                    -0.305896
     16 C                    -0.071478
     17 S                     0.219593
     18 C                     0.045440
     19 C                    -0.100234
     20 N                    -0.169609
     21 C                     0.044004
     22 C                    -0.025000
     23 C                    -0.049952
     24 N                    -0.130189
     25 C                    -0.160416
     26 S                     0.136171
     27 C                    -0.049296
     28 C                    -0.150625
     29 C                    -0.183146
     30 H                     0.133119
     31 H                     0.120401
     32 H                     0.119634
     33 H                     0.137822
     34 H                     0.138246
     35 H                     0.128164
     36 H                     0.137833
     37 H                     0.132022
     38 H                     0.128586
     39 H                     0.134363
  ----------------------------------------
  Sum of atomic charges =     0.000000

                    Cartesian Multipole Moments
 -----------------------------------------------------------------
    Charge (ESU x 10^10)
                 0.0000
    Dipole Moment (Debye)
         X       0.2111      Y       0.9354      Z       0.8949
       Tot       1.3116
    Quadrupole Moments (Debye-Ang)
        XX    -155.2465     XY       6.9186     YY    -167.4191
        XZ      -0.0346     YZ      -0.2241     ZZ    -182.7741

 Total job time:  6518.96s(wall), 97281.82s(cpu)
        *  Thank you very much for using Q-Chem.  Have a nice day.  *
