 Q-Chem 4.4, Q-Chem, Inc., Pleasanton, CA (2016)
 Q-Chem 4.4.2 for Intel X86 Linux

User input:
--------------------------------------------------------------
$comment
OPTIMIZATION
$end

$rem
JOBTYPE OPT
EXCHANGE omegaB97X-D
BASIS cc-pVTZ
$end

$molecule
0 1
C          0.00000        0.00000        0.00000
C         -0.65396       -1.22126       -0.00000
C          1.38563        0.00000        0.00000
C          0.09526       -2.37957        0.00866
N          2.11912       -1.10562        0.01199
C          1.48546       -2.27640        0.02149
C          2.30642       -3.51253        0.03449
N          1.74513       -4.60745       -0.39909
C          3.65824       -3.56714        0.50995
C          2.40434       -5.79109       -0.42442
N          4.38617       -2.58332        1.04242
C          4.35289       -4.81920        0.47143
C          3.70163       -5.99343       -0.01477
S          5.80914       -3.21778        1.41887
N          5.59255       -4.74484        0.95148
C          4.33823       -7.30129       -0.04468
S          6.02589       -7.51949        0.20234
C          3.75434       -8.55173       -0.24928
C          5.99762       -9.21427        0.01351
N          2.43078       -8.79033       -0.46746
C          4.69159       -9.63209       -0.21260
C          7.19111      -10.02404        0.10954
C          2.09912      -10.03238       -0.63993
N          4.30733      -10.92364       -0.39820
C          8.40884       -9.66764        0.62066
S          7.22312      -11.66820       -0.44240
C          3.03978      -11.10696       -0.60697
C          9.36414      -10.70993        0.55497
C          8.86778      -11.84692       -0.00074
H         -0.54853        0.93120        0.00000
H         -1.73532       -1.26909       -0.00410
H          1.93662        0.93286       -0.01167
H         -0.36319       -3.35650        0.00329
H          1.82722       -6.62671       -0.78554
H          1.05088      -10.24576       -0.82054
H          8.59312       -8.69015        1.03340
H          2.69937      -12.12548       -0.75876
H         10.38052      -10.60914        0.90406
H          9.37800      -12.78009       -0.16755
$end

$opt
CONSTRAINT
tors 4 6 7 8 21.82164
tors 10 13 16 17 169.06444
tors 17 19 22 25 15.00000
ENDCONSTRAINT
$end
--------------------------------------------------------------

   16   -2291.1504575017      5.66E-09 Convergence criterion met
 Total energy in the final basis set = -2291.1504575017
   13   -2291.1508347924      3.37E-09 Convergence criterion met
 Total energy in the final basis set = -2291.1508347924
   12   -2291.1508904088      4.81E-09 Convergence criterion met
 Total energy in the final basis set = -2291.1508904088
   11   -2291.1509212125      6.85E-09 Convergence criterion met
 Total energy in the final basis set = -2291.1509212125
   11   -2291.1509321855      5.26E-09 Convergence criterion met
 Total energy in the final basis set = -2291.1509321855
   11   -2291.1509377716      6.42E-09 Convergence criterion met
 Total energy in the final basis set = -2291.1509377716

             Standard Nuclear Orientation (Angstroms)
    I     Atom           X                Y                Z
 ----------------------------------------------------------------
    1      C       7.6994957465     0.5003224900    -0.2970611641
    2      C       7.0042780994     1.6274202321     0.1097047977
    3      C       6.9760827126    -0.6429809034    -0.5964464495
    4      C       5.6279349365     1.5649509477     0.2028612884
    5      N       5.6550803681    -0.7196774365    -0.5050145174
    6      C       4.9927378457     0.3641387520    -0.1070431702
    7      C       3.5125496028     0.2810596150    -0.0330613209
    8      N       2.8461118138     1.3994118649    -0.1107083328
    9      C       2.7934356358    -0.9466953056     0.1352340700
   10      C       1.4914104453     1.4317306215    -0.0787012954
   11      N       3.2868787020    -2.1740938870     0.3099682758
   12      C       1.3617992104    -0.9080347557     0.1665013652
   13      C       0.6694035656     0.3354106323     0.0443455537
   14      S       2.0293055834    -3.1540848859     0.4713040421
   15      N       0.8098515710    -2.1078667221     0.3427053905
   16      C      -0.7821926087     0.4391022822     0.0561904312
   17      S      -1.8058588933    -0.9401538986    -0.0665270459
   18      C      -1.5803335585     1.5793593064     0.1259911864
   19      C      -3.2653546110    -0.0583394079    -0.0147294215
   20      N      -1.1389058533     2.8653716875     0.2306411170
   21      C      -2.9809132451     1.2952501521     0.0844853914
   22      C      -4.5475672129    -0.7233254940    -0.0777386513
   23      C      -2.0582521805     3.7788110798     0.2821090376
   24      N      -3.9172161821     2.2784804419     0.1437332428
   25      C      -4.7993134905    -2.0586606491     0.1023138133
   26      S      -6.0166660722     0.1288061404    -0.4194515897
   27      C      -3.4572037159     3.4870112052     0.2376430482
   28      C      -6.1627429849    -2.3956542356    -0.0491228947
   29      C      -6.9338784968    -1.3134808751    -0.3383222793
   30      H       8.7765691385     0.5042457746    -0.3863228281
   31      H       7.5281738911     2.5423551001     0.3508969559
   32      H       7.4808523043    -1.5417096953    -0.9316274255
   33      H       5.0357007823     2.4155567402     0.5031150963
   34      H       1.0544557424     2.4147072146    -0.1552546466
   35      H      -1.7333381473     4.8102348962     0.3658058677
   36      H      -4.0288684656    -2.7760455945     0.3443548893
   37      H      -4.1742835181     4.2985201702     0.2887178069
   38      H      -6.5525633715    -3.3960348239     0.0592826277
   39      H      -7.9994445146    -1.2813850630    -0.4918038344
 ----------------------------------------------------------------

    9   -2291.1509384315      5.62E-09 Convergence criterion met
 Total energy in the final basis set = -2291.1509384315
 Final energy is   -2291.15093843150
 **  OPTIMIZATION CONVERGED  **

                    Orbital Energies (a.u.)
 --------------------------------------------------------------

 Alpha MOs
 -- Occupied --
-89.146 -89.098 -89.076 -14.483 -14.480 -14.463 -14.462 -14.445
-14.434 -10.355 -10.352 -10.351 -10.346 -10.344 -10.344 -10.343
-10.341 -10.337 -10.336 -10.335 -10.331 -10.326 -10.324 -10.315
-10.309 -10.301 -10.298 -10.296 -10.294  -8.157  -8.113  -8.091
 -6.107  -6.101  -6.101  -6.062  -6.058  -6.057  -6.040  -6.037
 -6.034  -1.143  -1.102  -1.068  -1.049  -1.030  -1.013  -1.003
 -0.985  -0.925  -0.912  -0.896  -0.879  -0.869  -0.853  -0.838
 -0.811  -0.777  -0.772  -0.748  -0.738  -0.730  -0.716  -0.711
 -0.671  -0.660  -0.645  -0.630  -0.628  -0.621  -0.606  -0.602
 -0.587  -0.576  -0.568  -0.561  -0.559  -0.549  -0.543  -0.527
 -0.512  -0.508  -0.500  -0.499  -0.493  -0.492  -0.485  -0.484
 -0.475  -0.466  -0.464  -0.461  -0.447  -0.443  -0.432  -0.426
 -0.419  -0.407  -0.393  -0.378  -0.373  -0.360  -0.359  -0.351
 -0.343  -0.339  -0.335  -0.331  -0.320  -0.262

          Ground-State Mulliken Net Atomic Charges

     Atom                 Charge (a.u.)
  ----------------------------------------
      1 C                    -0.092866
      2 C                    -0.129325
      3 C                    -0.080402
      4 C                    -0.118328
      5 N                    -0.145785
      6 C                     0.082623
      7 C                     0.098893
      8 N                    -0.176785
      9 C                    -0.019544
     10 C                    -0.085114
     11 N                    -0.217136
     12 C                     0.052713
     13 C                     0.063006
     14 S                     0.403889
     15 N                    -0.306232
     16 C                    -0.074207
     17 S                     0.170117
     18 C                     0.063960
     19 C                    -0.037669
     20 N                    -0.169439
     21 C                     0.042524
     22 C                     0.017607
     23 C                    -0.045770
     24 N                    -0.153763
     25 C                    -0.182763
     26 S                     0.136561
     27 C                    -0.048505
     28 C                    -0.155765
     29 C                    -0.187595
     30 H                     0.132959
     31 H                     0.120250
     32 H                     0.119541
     33 H                     0.137819
     34 H                     0.137830
     35 H                     0.128445
     36 H                     0.123863
     37 H                     0.127902
     38 H                     0.130401
     39 H                     0.136091
  ----------------------------------------
  Sum of atomic charges =     0.000000

                    Cartesian Multipole Moments
 -----------------------------------------------------------------
    Charge (ESU x 10^10)
                 0.0000
    Dipole Moment (Debye)
         X       0.0778      Y       0.8552      Z       0.5747
       Tot       1.0333
    Quadrupole Moments (Debye-Ang)
        XX    -155.9843     XY       5.8119     YY    -163.2679
        XZ       1.7744     YZ       0.8879     ZZ    -187.2764

 Total job time:  6682.11s(wall), 99764.20s(cpu)
        *  Thank you very much for using Q-Chem.  Have a nice day.  *
