 Q-Chem 4.4, Q-Chem, Inc., Pleasanton, CA (2016)
 Q-Chem 4.4.2 for Intel X86 Linux

User input:
--------------------------------------------------------------
$comment
OPTIMIZATION
$end

$rem
JOBTYPE OPT
EXCHANGE omegaB97X-D
BASIS cc-pVTZ
$end

$molecule
0 1
C          0.00000        0.00000        0.00000
C         -0.65396       -1.22126       -0.00000
C          1.38563        0.00000        0.00000
C          0.09526       -2.37957        0.00866
N          2.11912       -1.10562        0.01199
C          1.48546       -2.27640        0.02149
C          2.30642       -3.51253        0.03449
N          1.74513       -4.60745       -0.39909
C          3.65824       -3.56714        0.50995
C          2.40434       -5.79109       -0.42442
N          4.38617       -2.58332        1.04242
C          4.35289       -4.81920        0.47143
C          3.70163       -5.99343       -0.01477
S          5.80914       -3.21778        1.41887
N          5.59255       -4.74484        0.95148
C          4.33823       -7.30129       -0.04468
S          6.02589       -7.51949        0.20234
C          3.75434       -8.55173       -0.24928
C          5.99762       -9.21427        0.01351
N          2.43078       -8.79033       -0.46746
C          4.69159       -9.63209       -0.21260
C          7.19111      -10.02404        0.10954
C          2.09912      -10.03238       -0.63993
N          4.30733      -10.92364       -0.39820
C          8.31964       -9.95099       -0.66000
S          7.35262      -11.27004        1.30550
C          3.03978      -11.10696       -0.60697
C          9.30183      -10.90260       -0.29530
C          8.91609      -11.68720        0.74563
H         -0.54853        0.93120        0.00000
H         -1.73532       -1.26909       -0.00410
H          1.93662        0.93286       -0.01167
H         -0.36319       -3.35650        0.00329
H          1.82722       -6.62671       -0.78554
H          1.05088      -10.24576       -0.82054
H          8.42819       -9.22782       -1.45061
H          2.69937      -12.12548       -0.75876
H         10.25347      -10.99796       -0.79564
H          9.46895      -12.48190        1.21655
$end

$opt
CONSTRAINT
tors 4 6 7 8 21.82164
tors 10 13 16 17 169.06444
tors 17 19 22 25 -60.00000
ENDCONSTRAINT
$end
--------------------------------------------------------------

   16   -2291.1474960622      4.89E-09 Convergence criterion met
 Total energy in the final basis set = -2291.1474960622
   12   -2291.1478653363      6.02E-09 Convergence criterion met
 Total energy in the final basis set = -2291.1478653363
   12   -2291.1479549310      6.72E-09 Convergence criterion met
 Total energy in the final basis set = -2291.1479549310
   11   -2291.1480056273      6.93E-09 Convergence criterion met
 Total energy in the final basis set = -2291.1480056273
   10   -2291.1480230668      9.78E-09 Convergence criterion met
 Total energy in the final basis set = -2291.1480230668
   10   -2291.1480297054      7.77E-09 Convergence criterion met
 Total energy in the final basis set = -2291.1480297054

             Standard Nuclear Orientation (Angstroms)
    I     Atom           X                Y                Z
 ----------------------------------------------------------------
    1      C       7.7030496161     0.4168034349    -0.1806842732
    2      C       7.0125623000     1.5617030270     0.1818969650
    3      C       6.9726777449    -0.7235655299    -0.4744269025
    4      C       5.6334264925     1.5192381323     0.2383118868
    5      N       5.6487975005    -0.7811146896    -0.4175031376
    6      C       4.9908885824     0.3199108212    -0.0617850727
    7      C       3.5080215107     0.2581004913    -0.0279035757
    8      N       2.8599063891     1.3829828563    -0.1501368351
    9      C       2.7680187180    -0.9559085968     0.1512810993
   10      C       1.5046465478     1.4337531508    -0.1549201612
   11      N       3.2392014785    -2.1852111012     0.3693984558
   12      C       1.3372065330    -0.8966397262     0.1450342713
   13      C       0.6658773264     0.3522200194    -0.0253166667
   14      S       1.9634781619    -3.1430960768     0.5236872629
   15      N       0.7635091855    -2.0835110744     0.3377118612
   16      C      -0.7862339113     0.4726043583    -0.0479772268
   17      S      -1.8249132283    -0.8919307860    -0.1613604992
   18      C      -1.5698869555     1.6260673907    -0.0082997286
   19      C      -3.2656368616     0.0147781366    -0.2046073315
   20      N      -1.1101375662     2.9053575296     0.1014362123
   21      C      -2.9739455988     1.3626390021    -0.0872378164
   22      C      -4.5614699842    -0.6412511170    -0.2734175193
   23      C      -2.0171830296     3.8316648438     0.1269132660
   24      N      -3.8999489996     2.3606784795    -0.0585170982
   25      C      -5.0254696746    -1.4816517610    -1.2451507313
   26      S      -5.7734590710    -0.3707436677     0.9272397070
   27      C      -3.4194660942     3.5597878766     0.0455564410
   28      C      -6.3513071253    -1.9215852922    -1.0128398323
   29      C      -6.8792937735    -1.4009559881     0.1270056963
   30      H       8.7821165856     0.4044733196    -0.2402421390
   31      H       7.5422428278     2.4749157531     0.4168833978
   32      H       7.4746082668    -1.6358671535    -0.7755213815
   33      H       5.0445943673     2.3835767306     0.5040873540
   34      H       1.0835793244     2.4205110057    -0.2653387530
   35      H      -1.6799013734     4.8586553096     0.2165007058
   36      H      -4.4317733433    -1.7618380049    -2.1024915607
   37      H      -4.1225257054     4.3850539742     0.0712470573
   38      H      -6.8920566639    -2.5867633175    -1.6681107726
   39      H      -7.8628903800    -1.5603320174     0.5356095202
 ----------------------------------------------------------------

    9   -2291.1480303887      3.35E-09 Convergence criterion met
 Total energy in the final basis set = -2291.1480303887
 Final energy is   -2291.14803038868
 **  OPTIMIZATION CONVERGED  **

                    Orbital Energies (a.u.)
 --------------------------------------------------------------

 Alpha MOs
 -- Occupied --
-89.147 -89.099 -89.077 -14.483 -14.480 -14.461 -14.460 -14.445
-14.434 -10.355 -10.353 -10.351 -10.344 -10.342 -10.342 -10.340
-10.340 -10.337 -10.336 -10.333 -10.330 -10.327 -10.324 -10.317
-10.310 -10.301 -10.298 -10.296 -10.294  -8.157  -8.113  -8.092
 -6.107  -6.101  -6.101  -6.062  -6.058  -6.057  -6.041  -6.038
 -6.035  -1.144  -1.100  -1.069  -1.049  -1.028  -1.013  -1.003
 -0.986  -0.925  -0.912  -0.896  -0.878  -0.867  -0.852  -0.838
 -0.812  -0.777  -0.771  -0.748  -0.738  -0.730  -0.716  -0.710
 -0.670  -0.659  -0.645  -0.629  -0.628  -0.620  -0.607  -0.603
 -0.586  -0.576  -0.568  -0.561  -0.559  -0.546  -0.543  -0.527
 -0.512  -0.507  -0.499  -0.498  -0.493  -0.492  -0.484  -0.482
 -0.475  -0.467  -0.463  -0.461  -0.449  -0.439  -0.429  -0.426
 -0.420  -0.411  -0.393  -0.376  -0.371  -0.360  -0.357  -0.343
 -0.342  -0.338  -0.335  -0.330  -0.320  -0.273

          Ground-State Mulliken Net Atomic Charges

     Atom                 Charge (a.u.)
  ----------------------------------------
      1 C                    -0.092628
      2 C                    -0.129069
      3 C                    -0.080307
      4 C                    -0.118201
      5 N                    -0.145888
      6 C                     0.082506
      7 C                     0.099913
      8 N                    -0.177330
      9 C                    -0.017887
     10 C                    -0.081733
     11 N                    -0.217448
     12 C                     0.052899
     13 C                     0.058264
     14 S                     0.405152
     15 N                    -0.305315
     16 C                    -0.072261
     17 S                     0.208393
     18 C                     0.049818
     19 C                    -0.076672
     20 N                    -0.170207
     21 C                     0.033406
     22 C                    -0.012734
     23 C                    -0.048715
     24 N                    -0.136041
     25 C                    -0.174185
     26 S                     0.138090
     27 C                    -0.048893
     28 C                    -0.151671
     29 C                    -0.182501
     30 H                     0.133039
     31 H                     0.120317
     32 H                     0.119816
     33 H                     0.137931
     34 H                     0.138004
     35 H                     0.128166
     36 H                     0.138586
     37 H                     0.131660
     38 H                     0.128774
     39 H                     0.134955
  ----------------------------------------
  Sum of atomic charges =     0.000000

                    Cartesian Multipole Moments
 -----------------------------------------------------------------
    Charge (ESU x 10^10)
                 0.0000
    Dipole Moment (Debye)
         X       0.1532      Y       0.9169      Z       0.0981
       Tot       0.9348
    Quadrupole Moments (Debye-Ang)
        XX    -155.4678     XY       6.6715     YY    -166.8426
        XZ       2.7484     YZ       3.7535     ZZ    -183.4177

 Total job time:  6462.24s(wall), 96579.97s(cpu)
        *  Thank you very much for using Q-Chem.  Have a nice day.  *
