 Q-Chem 4.4, Q-Chem, Inc., Pleasanton, CA (2016)
 Q-Chem 4.4.2 for Intel X86 Linux

User input:
--------------------------------------------------------------
$comment
OPTIMIZATION
$end

$rem
JOBTYPE OPT
EXCHANGE omegaB97X-D
BASIS cc-pVTZ
$end

$molecule
0 1
C          0.00000        0.00000        0.00000
C         -0.65396       -1.22126       -0.00000
C          1.38563        0.00000        0.00000
C          0.09526       -2.37957        0.00866
N          2.11912       -1.10562        0.01199
C          1.48546       -2.27640        0.02149
C          2.30642       -3.51253        0.03449
N          1.74513       -4.60745       -0.39909
C          3.65824       -3.56714        0.50995
C          2.40434       -5.79109       -0.42442
N          4.38617       -2.58332        1.04242
C          4.35289       -4.81920        0.47143
C          3.70163       -5.99343       -0.01477
S          5.80914       -3.21778        1.41887
N          5.59255       -4.74484        0.95148
C          4.33823       -7.30129       -0.04468
S          6.02589       -7.51949        0.20234
C          3.75434       -8.55173       -0.24928
C          5.99762       -9.21427        0.01351
N          2.43078       -8.79033       -0.46746
C          4.69159       -9.63209       -0.21260
C          7.19111      -10.02404        0.10954
C          2.09912      -10.03238       -0.63993
N          4.30733      -10.92364       -0.39820
C          7.29774      -11.38143       -0.02175
S          8.74699       -9.32056        0.41493
C          3.03978      -11.10696       -0.60697
C          8.62351      -11.85117        0.13620
C          9.51183      -10.85219        0.38287
H         -0.54853        0.93120        0.00000
H         -1.73532       -1.26909       -0.00410
H          1.93662        0.93286       -0.01167
H         -0.36319       -3.35650        0.00329
H          1.82722       -6.62671       -0.78554
H          1.05088      -10.24576       -0.82054
H          6.44569      -12.00533       -0.23289
H          2.69937      -12.12548       -0.75876
H          8.89761      -12.89326        0.07317
H         10.57365      -10.93392        0.54042
$end

$opt
CONSTRAINT
tors 4 6 7 8 21.82164
tors 10 13 16 17 169.06444
tors 17 19 22 25 180.00000
ENDCONSTRAINT
$end
--------------------------------------------------------------

   16   -2291.1503373810      5.74E-09 Convergence criterion met
 Total energy in the final basis set = -2291.1503373810
   12   -2291.1505218682      7.14E-09 Convergence criterion met
 Total energy in the final basis set = -2291.1505218682
   12   -2291.1505968963      4.71E-09 Convergence criterion met
 Total energy in the final basis set = -2291.1505968963
   11   -2291.1506302803      8.39E-09 Convergence criterion met
 Total energy in the final basis set = -2291.1506302803
   11   -2291.1506432496      5.82E-09 Convergence criterion met
 Total energy in the final basis set = -2291.1506432496
   11   -2291.1506482568      4.64E-09 Convergence criterion met
 Total energy in the final basis set = -2291.1506482568

             Standard Nuclear Orientation (Angstroms)
    I     Atom           X                Y                Z
 ----------------------------------------------------------------
    1      C       7.6654061048     0.3005506356    -0.3010692704
    2      C       7.0199417729     1.4621087084     0.0903557125
    3      C       6.8937476476    -0.8161695338    -0.5793690958
    4      C       5.6425555412     1.4589284555     0.1895489155
    5      N       5.5711869794    -0.8359730919    -0.4813670184
    6      C       4.9565446628     0.2806523939    -0.0977439138
    7      C       3.4743446131     0.2603769599    -0.0223425585
    8      N       2.8539703491     1.4034138359    -0.1207403166
    9      C       2.7061873451    -0.9336072682     0.1706121676
   10      C       1.5014271378     1.4909518953    -0.0931364586
   11      N       3.1490971438    -2.1762657753     0.3722368714
   12      C       1.2778686289    -0.8359873491     0.1999170353
   13      C       0.6358275530     0.4313396379     0.0502098788
   14      S       1.8522481500    -3.1005289068     0.5536013903
   15      N       0.6776166731    -2.0081768680     0.4012228046
   16      C      -0.8109656787     0.5886025767     0.0516389378
   17      S      -1.8806745747    -0.7538788627    -0.0449937400
   18      C      -1.5705283244     1.7567544771     0.0917429034
   19      C      -3.3102109989     0.1759023150    -0.0444746472
   20      N      -1.0774490179     3.0240768736     0.1810664987
   21      C      -2.9820912880     1.5248528203     0.0393600861
   22      C      -4.6189665380    -0.4373268011    -0.1063137441
   23      C      -1.9573546968     3.9764764191     0.2104051364
   24      N      -3.8749791865     2.5507367127     0.0740403961
   25      C      -5.8416472229     0.1799868144    -0.1134404657
   26      S      -4.8115910835    -2.1600647436    -0.1738134905
   27      C      -3.3646855367     3.7404885699     0.1555932301
   28      C      -6.9222062158    -0.7317417631    -0.1735176836
   29      C      -6.5188291997    -2.0284273847    -0.2108304216
   30      H       8.7412623766     0.2574822428    -0.3947776282
   31      H       7.5831756298     2.3578639222     0.3143134311
   32      H       7.3589682819    -1.7399266629    -0.9035998862
   33      H       5.0883636539     2.3382767479     0.4793962420
   34      H       1.1045455058     2.4888732070    -0.1906868553
   35      H      -1.5896012919     4.9942785027     0.2819570980
   36      H      -5.9417179963     1.2521995502    -0.0738240221
   37      H      -4.0474753338     4.5822711186     0.1843285567
   38      H      -7.9589949885    -0.4320392721    -0.1878254667
   39      H      -7.1251073783    -2.9168901243    -0.2557170219
 ----------------------------------------------------------------

    9   -2291.1506489832      3.98E-09 Convergence criterion met
 Total energy in the final basis set = -2291.1506489832
 Final energy is   -2291.15064898315
 **  OPTIMIZATION CONVERGED  **

                    Orbital Energies (a.u.)
 --------------------------------------------------------------

 Alpha MOs
 -- Occupied --
-89.146 -89.099 -89.079 -14.482 -14.479 -14.463 -14.463 -14.445
-14.434 -10.355 -10.351 -10.350 -10.346 -10.345 -10.344 -10.342
-10.341 -10.339 -10.336 -10.335 -10.330 -10.326 -10.323 -10.320
-10.309 -10.301 -10.298 -10.295 -10.292  -8.156  -8.113  -8.094
 -6.106  -6.101  -6.100  -6.062  -6.058  -6.057  -6.044  -6.040
 -6.037  -1.143  -1.102  -1.068  -1.048  -1.030  -1.014  -1.003
 -0.986  -0.925  -0.911  -0.896  -0.879  -0.870  -0.853  -0.838
 -0.812  -0.777  -0.773  -0.749  -0.738  -0.731  -0.716  -0.711
 -0.673  -0.655  -0.649  -0.629  -0.628  -0.620  -0.606  -0.603
 -0.587  -0.576  -0.568  -0.560  -0.557  -0.549  -0.543  -0.526
 -0.512  -0.508  -0.501  -0.499  -0.493  -0.492  -0.486  -0.484
 -0.473  -0.465  -0.463  -0.461  -0.452  -0.444  -0.429  -0.427
 -0.418  -0.411  -0.392  -0.378  -0.372  -0.360  -0.358  -0.352
 -0.345  -0.338  -0.335  -0.334  -0.321  -0.262

          Ground-State Mulliken Net Atomic Charges

     Atom                 Charge (a.u.)
  ----------------------------------------
      1 C                    -0.092552
      2 C                    -0.129301
      3 C                    -0.080587
      4 C                    -0.118600
      5 N                    -0.145830
      6 C                     0.082898
      7 C                     0.099173
      8 N                    -0.176476
      9 C                    -0.019789
     10 C                    -0.086656
     11 N                    -0.217727
     12 C                     0.050470
     13 C                     0.066695
     14 S                     0.405162
     15 N                    -0.304974
     16 C                    -0.071392
     17 S                     0.166183
     18 C                     0.061675
     19 C                    -0.052960
     20 N                    -0.168920
     21 C                     0.073484
     22 C                    -0.010047
     23 C                    -0.045068
     24 N                    -0.164089
     25 C                    -0.144194
     26 S                     0.092791
     27 C                    -0.045433
     28 C                    -0.162639
     29 C                    -0.178251
     30 H                     0.132893
     31 H                     0.120154
     32 H                     0.119485
     33 H                     0.137389
     34 H                     0.138404
     35 H                     0.128418
     36 H                     0.146867
     37 H                     0.125143
     38 H                     0.131046
     39 H                     0.137151
  ----------------------------------------
  Sum of atomic charges =     0.000000

                    Cartesian Multipole Moments
 -----------------------------------------------------------------
    Charge (ESU x 10^10)
                 0.0000
    Dipole Moment (Debye)
         X      -0.3160      Y       1.5471      Z       0.4595
       Tot       1.6446
    Quadrupole Moments (Debye-Ang)
        XX    -151.2379     XY       2.6581     YY    -164.0572
        XZ       1.5652     YZ       1.4909     ZZ    -187.5331

 Total job time:  6644.34s(wall), 99206.91s(cpu)
        *  Thank you very much for using Q-Chem.  Have a nice day.  *
