 Q-Chem 4.4, Q-Chem, Inc., Pleasanton, CA (2016)
 Q-Chem 4.4.2 for Intel X86 Linux

User input:
--------------------------------------------------------------
$comment
OPTIMIZATION
$end

$rem
JOBTYPE OPT
EXCHANGE omegaB97X-D
BASIS cc-pVTZ
$end

$molecule
0 1
C          0.00000        0.00000        0.00000
C         -0.65396       -1.22126       -0.00000
C          1.38563        0.00000        0.00000
C          0.09526       -2.37957        0.00866
N          2.11912       -1.10562        0.01199
C          1.48546       -2.27640        0.02149
C          2.30642       -3.51253        0.03449
N          1.74513       -4.60745       -0.39909
C          3.65824       -3.56714        0.50995
C          2.40434       -5.79109       -0.42442
N          4.38617       -2.58332        1.04242
C          4.35289       -4.81920        0.47143
C          3.70163       -5.99343       -0.01477
S          5.80914       -3.21778        1.41887
N          5.59255       -4.74484        0.95148
C          4.33823       -7.30129       -0.04468
S          6.02589       -7.51949        0.20234
C          3.75434       -8.55173       -0.24928
C          5.99762       -9.21427        0.01351
N          2.43078       -8.79033       -0.46746
C          4.69159       -9.63209       -0.21260
C          7.19111      -10.02404        0.10954
C          2.09912      -10.03238       -0.63993
N          4.30733      -10.92364       -0.39820
C          7.57446      -10.83560        1.14179
S          8.36162      -10.07645       -1.16955
C          3.03978      -11.10696       -0.60697
C          8.81029      -11.48444        0.90728
C          9.35420      -11.16514       -0.29693
H         -0.54853        0.93120        0.00000
H         -1.73532       -1.26909       -0.00410
H          1.93662        0.93286       -0.01167
H         -0.36319       -3.35650        0.00329
H          1.82722       -6.62671       -0.78554
H          1.05088      -10.24576       -0.82054
H          6.97441      -10.95797        2.02767
H          2.69937      -12.12548       -0.75876
H          9.27346      -12.15664        1.61344
H         10.27999      -11.51617       -0.71961
$end

$opt
CONSTRAINT
tors 4 6 7 8 21.82164
tors 10 13 16 17 169.06444
tors 17 19 22 25 105.00000
ENDCONSTRAINT
$end
--------------------------------------------------------------

   16   -2291.1459151314      4.78E-09 Convergence criterion met
 Total energy in the final basis set = -2291.1459151314
   12   -2291.1462580294      6.52E-09 Convergence criterion met
 Total energy in the final basis set = -2291.1462580294
   12   -2291.1463213517      5.88E-09 Convergence criterion met
 Total energy in the final basis set = -2291.1463213517
   11   -2291.1463654480      6.46E-09 Convergence criterion met
 Total energy in the final basis set = -2291.1463654480
   11   -2291.1463885463      7.22E-09 Convergence criterion met
 Total energy in the final basis set = -2291.1463885463
   11   -2291.1463997089      7.10E-09 Convergence criterion met
 Total energy in the final basis set = -2291.1463997089
    9   -2291.1464027171      9.29E-09 Convergence criterion met
 Total energy in the final basis set = -2291.1464027171
    9   -2291.1464038054      3.86E-09 Convergence criterion met
 Total energy in the final basis set = -2291.1464038054

             Standard Nuclear Orientation (Angstroms)
    I     Atom           X                Y                Z
 ----------------------------------------------------------------
    1      C       7.6822940851     0.3412205447    -0.3481472095
    2      C       7.0211985715     1.5015690019     0.0200447126
    3      C       6.9262342306    -0.7923691464    -0.6000471221
    4      C       5.6442655249     1.4803701552     0.1240534538
    5      N       5.6044257169    -0.8293415479    -0.4972580417
    6      C       4.9750652626     0.2862016747    -0.1353857963
    7      C       3.4934743985     0.2461340839    -0.0501044957
    8      N       2.8566261309     1.3778618177    -0.1674832709
    9      C       2.7443168298    -0.9544991050     0.1751150771
   10      C       1.5025955549     1.4464228439    -0.1274471014
   11      N       3.2072932571    -2.1856208169     0.4003444155
   12      C       1.3150568481    -0.8764891413     0.2161907652
   13      C       0.6548522063     0.3784407406     0.0461319939
   14      S       1.9258225661    -3.1236796474     0.6162379774
   15      N       0.7337005333    -2.0520536116     0.4510008647
   16      C      -0.7961993924     0.5188630900     0.0669283240
   17      S      -1.8535524154    -0.8334795267     0.0084631512
   18      C      -1.5632276365     1.6834654787     0.1112837833
   19      C      -3.2832563989     0.0903347217     0.0116313746
   20      N      -1.0847194145     2.9586501796     0.1820989391
   21      C      -2.9722898599     1.4353180349     0.0851401728
   22      C      -4.6036121027    -0.5292351512     0.0268397884
   23      C      -1.9798995028     3.8960115586     0.2191592008
   24      N      -3.8864856698     2.4448478514     0.1269176790
   25      C      -5.4682070162    -0.6215325198     1.0763422357
   26      S      -5.2556495670    -1.3085365120    -1.3714080642
   27      C      -3.3875115721     3.6390822321     0.1900950297
   28      C      -6.6619315733    -1.3133089822     0.7539068151
   29      C      -6.6832515944    -1.7443781210    -0.5349749408
   30      H       8.7584340800     0.3116862289    -0.4437913824
   31      H       7.5717359329     2.4104072321     0.2215193392
   32      H       7.4042799127    -1.7160193513    -0.9053761407
   33      H       5.0774383226     2.3572245847     0.3965441752
   34      H       1.0904129841     2.4367339705    -0.2396421380
   35      H      -1.6279354487     4.9203399762     0.2769112672
   36      H      -5.2484746059    -0.2021077932     2.0462421774
   37      H      -4.0789335706     4.4740258185     0.2231701018
   38      H      -7.4650883870    -1.4866073639     1.4534636323
   39      H      -7.4628191835    -2.2897500273    -1.0392356695
 ----------------------------------------------------------------

    9   -2291.1464041760      3.22E-09 Convergence criterion met
 Total energy in the final basis set = -2291.1464041760
 Final energy is   -2291.14640417601
 **  OPTIMIZATION CONVERGED  **

                    Orbital Energies (a.u.)
 --------------------------------------------------------------

 Alpha MOs
 -- Occupied --
-89.147 -89.099 -89.078 -14.483 -14.480 -14.461 -14.459 -14.445
-14.434 -10.355 -10.353 -10.351 -10.344 -10.343 -10.342 -10.340
-10.339 -10.337 -10.336 -10.331 -10.331 -10.327 -10.324 -10.318
-10.310 -10.301 -10.299 -10.295 -10.294  -8.157  -8.113  -8.093
 -6.107  -6.101  -6.101  -6.062  -6.058  -6.057  -6.042  -6.039
 -6.036  -1.144  -1.100  -1.069  -1.049  -1.028  -1.013  -1.003
 -0.986  -0.925  -0.912  -0.896  -0.878  -0.867  -0.852  -0.838
 -0.811  -0.777  -0.771  -0.749  -0.738  -0.730  -0.716  -0.710
 -0.670  -0.657  -0.646  -0.629  -0.628  -0.620  -0.608  -0.604
 -0.586  -0.576  -0.568  -0.561  -0.558  -0.546  -0.543  -0.527
 -0.512  -0.507  -0.499  -0.498  -0.493  -0.491  -0.484  -0.481
 -0.475  -0.468  -0.463  -0.461  -0.449  -0.439  -0.428  -0.426
 -0.420  -0.411  -0.394  -0.376  -0.371  -0.360  -0.357  -0.343
 -0.339  -0.337  -0.334  -0.333  -0.319  -0.277

          Ground-State Mulliken Net Atomic Charges

     Atom                 Charge (a.u.)
  ----------------------------------------
      1 C                    -0.092215
      2 C                    -0.129179
      3 C                    -0.080413
      4 C                    -0.118247
      5 N                    -0.145808
      6 C                     0.082580
      7 C                     0.100800
      8 N                    -0.177575
      9 C                    -0.017643
     10 C                    -0.080860
     11 N                    -0.217489
     12 C                     0.053091
     13 C                     0.056654
     14 S                     0.405830
     15 N                    -0.305253
     16 C                    -0.067729
     17 S                     0.217584
     18 C                     0.044776
     19 C                    -0.108635
     20 N                    -0.169576
     21 C                     0.047603
     22 C                    -0.029372
     23 C                    -0.049984
     24 N                    -0.130117
     25 C                    -0.139167
     26 S                     0.126855
     27 C                    -0.050123
     28 C                    -0.147886
     29 C                    -0.185316
     30 H                     0.133105
     31 H                     0.120358
     32 H                     0.119868
     33 H                     0.137836
     34 H                     0.138283
     35 H                     0.128300
     36 H                     0.134347
     37 H                     0.131939
     38 H                     0.128657
     39 H                     0.134122
  ----------------------------------------
  Sum of atomic charges =     0.000000

                    Cartesian Multipole Moments
 -----------------------------------------------------------------
    Charge (ESU x 10^10)
                 0.0000
    Dipole Moment (Debye)
         X       0.1382      Y       1.1429      Z       1.0157
       Tot       1.5352
    Quadrupole Moments (Debye-Ang)
        XX    -154.4580     XY       6.2393     YY    -167.6880
        XZ      -1.9768     YZ       2.0092     ZZ    -182.6579

 Total job time:  8031.65s(wall), 119959.24s(cpu)
        *  Thank you very much for using Q-Chem.  Have a nice day.  *
