 Q-Chem 4.4, Q-Chem, Inc., Pleasanton, CA (2016)
 Q-Chem 4.4.2 for Intel X86 Linux

User input:
--------------------------------------------------------------
$comment
OPTIMIZATION
$end

$rem
JOBTYPE OPT
EXCHANGE omegaB97X-D
BASIS cc-pVTZ
$end

$molecule
0 1
C          0.00000        0.00000        0.00000
C         -0.65396       -1.22126       -0.00000
C          1.38563        0.00000        0.00000
C          0.09526       -2.37957        0.00866
N          2.11912       -1.10562        0.01199
C          1.48546       -2.27640        0.02149
C          2.30642       -3.51253        0.03449
N          1.74513       -4.60745       -0.39909
C          3.65824       -3.56714        0.50995
C          2.40434       -5.79109       -0.42442
N          4.38617       -2.58332        1.04242
C          4.35289       -4.81920        0.47143
C          3.70163       -5.99343       -0.01477
S          5.80914       -3.21778        1.41887
N          5.59255       -4.74484        0.95148
C          4.33823       -7.30129       -0.04468
S          6.02589       -7.51949        0.20234
C          3.75434       -8.55173       -0.24928
C          5.99762       -9.21427        0.01351
N          2.43078       -8.79033       -0.46746
C          4.69159       -9.63209       -0.21260
C          7.19111      -10.02404        0.10954
C          2.09912      -10.03238       -0.63993
N          4.30733      -10.92364       -0.39820
C          8.03604      -10.15102        1.17776
S          7.72990      -11.01234       -1.21026
C          3.03978      -11.10696       -0.60697
C          9.11743      -11.02932        0.92783
C          9.08600      -11.56337       -0.32186
H         -0.54853        0.93120        0.00000
H         -1.73532       -1.26909       -0.00410
H          1.93662        0.93286       -0.01167
H         -0.36319       -3.35650        0.00329
H          1.82722       -6.62671       -0.78554
H          1.05088      -10.24576       -0.82054
H          7.86792       -9.63176        2.10615
H          2.69937      -12.12548       -0.75876
H          9.88800      -11.24635        1.65183
H          9.78233      -12.25494       -0.76437
$end

$opt
CONSTRAINT
tors 4 6 7 8 21.82164
tors 10 13 16 17 169.06444
tors 17 19 22 25 60.00000
ENDCONSTRAINT
$end
--------------------------------------------------------------

   16   -2291.1473505106      4.87E-09 Convergence criterion met
 Total energy in the final basis set = -2291.1473505106
   12   -2291.1477707790      5.63E-09 Convergence criterion met
 Total energy in the final basis set = -2291.1477707790
   12   -2291.1478467147      5.70E-09 Convergence criterion met
 Total energy in the final basis set = -2291.1478467147
   11   -2291.1478960046      7.69E-09 Convergence criterion met
 Total energy in the final basis set = -2291.1478960046
   11   -2291.1479131246      6.29E-09 Convergence criterion met
 Total energy in the final basis set = -2291.1479131246
   11   -2291.1479208903      5.44E-09 Convergence criterion met
 Total energy in the final basis set = -2291.1479208903

             Standard Nuclear Orientation (Angstroms)
    I     Atom           X                Y                Z
 ----------------------------------------------------------------
    1      C       7.6930360815     0.4407522554    -0.3624952246
    2      C       7.0173142469     1.5732628321     0.0615680385
    3      C       6.9520230608    -0.6922678607    -0.6579428541
    4      C       5.6418136028     1.5262551401     0.1752079999
    5      N       5.6318559447    -0.7542303914    -0.5462372891
    6      C       4.9884083194     0.3344732787    -0.1310285205
    7      C       3.5084868504     0.2667562192    -0.0363262102
    8      N       2.8522356203     1.3917133249    -0.0990183210
    9      C       2.7805075584    -0.9550407333     0.1384045491
   10      C       1.4976350325     1.4359096159    -0.0487381101
   11      N       3.2652170775    -2.1873688056     0.3026399287
   12      C       1.3502215237    -0.9030344228     0.1906787390
   13      C       0.6681723157     0.3470439830     0.0812117278
   14      S       2.0009193120    -3.1560456477     0.4793661830
   15      N       0.7896900377    -2.0981971140     0.3715191855
   16      C      -0.7844461530     0.4616171710     0.1069389938
   17      S      -1.8198836790    -0.9052046907    -0.0065826985
   18      C      -1.5720481192     1.6105750714     0.1881235648
   19      C      -3.2654870673    -0.0104642442     0.0726740501
   20      N      -1.1157453584     2.8913430501     0.2950517013
   21      C      -2.9767067974     1.3396731672     0.1642921370
   22      C      -4.5594012033    -0.6717862142     0.0111479023
   23      C      -2.0262095363     3.8118033967     0.3679516657
   24      N      -3.9065746171     2.3309817389     0.2477824858
   25      C      -5.0560360730    -1.6147467563     0.8653638227
   26      S      -5.7209923076    -0.2783959674    -1.2046870865
   27      C      -3.4291015520     3.5318859175     0.3446068629
   28      C      -6.3676888780    -2.0310007060     0.5309947679
   29      C      -6.8516305472    -1.3925648463    -0.5673568197
   30      H       8.7686086064     0.4326560500    -0.4680356766
   31      H       7.5556239472     2.4805161706     0.3000068069
   32      H       7.4407588170    -1.5944570074    -1.0072214404
   33      H       5.0646105511     2.3820628463     0.4896099174
   34      H       1.0682592629     2.4229329341    -0.1160982061
   35      H      -1.6912918755     4.8398828209     0.4538190834
   36      H      -4.4980831276    -1.9839708987     1.7127495704
   37      H      -4.1357989772     4.3512767843     0.4166250128
   38      H      -6.9289012723    -2.7638789212     1.0897849138
   39      H      -7.8160871175    -1.5083620313    -1.0321797004
 ----------------------------------------------------------------

    9   -2291.1479218217      4.68E-09 Convergence criterion met
 Total energy in the final basis set = -2291.1479218217
 Final energy is   -2291.14792182168
 **  OPTIMIZATION CONVERGED  **

                    Orbital Energies (a.u.)
 --------------------------------------------------------------

 Alpha MOs
 -- Occupied --
-89.147 -89.099 -89.077 -14.483 -14.480 -14.461 -14.460 -14.445
-14.434 -10.355 -10.352 -10.351 -10.344 -10.343 -10.342 -10.340
-10.340 -10.337 -10.336 -10.333 -10.331 -10.327 -10.324 -10.317
-10.310 -10.301 -10.298 -10.296 -10.294  -8.157  -8.113  -8.092
 -6.107  -6.101  -6.101  -6.062  -6.058  -6.057  -6.041  -6.038
 -6.035  -1.144  -1.100  -1.069  -1.049  -1.028  -1.013  -1.003
 -0.986  -0.925  -0.912  -0.896  -0.878  -0.867  -0.852  -0.838
 -0.812  -0.777  -0.771  -0.748  -0.738  -0.730  -0.716  -0.710
 -0.670  -0.659  -0.645  -0.629  -0.628  -0.621  -0.607  -0.603
 -0.586  -0.576  -0.568  -0.561  -0.559  -0.546  -0.543  -0.527
 -0.512  -0.507  -0.499  -0.498  -0.493  -0.492  -0.484  -0.482
 -0.475  -0.467  -0.463  -0.461  -0.448  -0.439  -0.429  -0.425
 -0.420  -0.411  -0.394  -0.376  -0.371  -0.360  -0.357  -0.343
 -0.341  -0.338  -0.335  -0.331  -0.320  -0.273

          Ground-State Mulliken Net Atomic Charges

     Atom                 Charge (a.u.)
  ----------------------------------------
      1 C                    -0.092513
      2 C                    -0.129236
      3 C                    -0.080351
      4 C                    -0.118348
      5 N                    -0.145729
      6 C                     0.082868
      7 C                     0.099749
      8 N                    -0.177369
      9 C                    -0.018424
     10 C                    -0.082014
     11 N                    -0.217078
     12 C                     0.053790
     13 C                     0.058189
     14 S                     0.404881
     15 N                    -0.306427
     16 C                    -0.072100
     17 S                     0.211072
     18 C                     0.048275
     19 C                    -0.080384
     20 N                    -0.169870
     21 C                     0.036492
     22 C                    -0.012713
     23 C                    -0.048920
     24 N                    -0.135323
     25 C                    -0.174511
     26 S                     0.138800
     27 C                    -0.049069
     28 C                    -0.152705
     29 C                    -0.182606
     30 H                     0.133061
     31 H                     0.120359
     32 H                     0.119484
     33 H                     0.137820
     34 H                     0.138176
     35 H                     0.128005
     36 H                     0.139686
     37 H                     0.131608
     38 H                     0.128850
     39 H                     0.134520
  ----------------------------------------
  Sum of atomic charges =     0.000000

                    Cartesian Multipole Moments
 -----------------------------------------------------------------
    Charge (ESU x 10^10)
                 0.0000
    Dipole Moment (Debye)
         X       0.1476      Y       0.8610      Z       0.8435
       Tot       1.2143
    Quadrupole Moments (Debye-Ang)
        XX    -155.3515     XY       6.8409     YY    -166.3944
        XZ       0.7580     YZ      -0.5730     ZZ    -183.8926

 Total job time:  6546.42s(wall), 97784.82s(cpu)
        *  Thank you very much for using Q-Chem.  Have a nice day.  *
