 Q-Chem 4.4, Q-Chem, Inc., Pleasanton, CA (2016)
 Q-Chem 4.4.2 for Intel X86 Linux

User input:
--------------------------------------------------------------
$comment
OPTIMIZATION
$end

$rem
JOBTYPE OPT
EXCHANGE omegaB97X-D
BASIS cc-pVTZ
$end

$molecule
0 1
C          0.00000        0.00000        0.00000
C         -0.65396       -1.22126       -0.00000
C          1.38563        0.00000        0.00000
C          0.09526       -2.37957        0.00866
N          2.11912       -1.10562        0.01199
C          1.48546       -2.27640        0.02149
C          2.30642       -3.51253        0.03449
N          1.74513       -4.60745       -0.39909
C          3.65824       -3.56714        0.50995
C          2.40434       -5.79109       -0.42442
N          4.38617       -2.58332        1.04242
C          4.35289       -4.81920        0.47143
C          3.70163       -5.99343       -0.01477
S          5.80914       -3.21778        1.41887
N          5.59255       -4.74484        0.95148
C          4.33823       -7.30129       -0.04468
S          6.02589       -7.51949        0.20234
C          3.75434       -8.55173       -0.24928
C          5.99762       -9.21427        0.01351
N          2.43078       -8.79033       -0.46746
C          4.69159       -9.63209       -0.21260
C          7.19111      -10.02404        0.10954
C          2.09912      -10.03238       -0.63993
N          4.30733      -10.92364       -0.39820
C          8.49359       -9.60786        0.07143
S          7.11037      -11.74521        0.30945
C          3.03978      -11.10696       -0.60697
C          9.41924      -10.67206        0.18943
C          8.81700      -11.88393        0.31829
H         -0.54853        0.93120        0.00000
H         -1.73532       -1.26909       -0.00410
H          1.93662        0.93286       -0.01167
H         -0.36319       -3.35650        0.00329
H          1.82722       -6.62671       -0.78554
H          1.05088      -10.24576       -0.82054
H          8.76056       -8.56943       -0.02956
H          2.69937      -12.12548       -0.75876
H         10.48974      -10.53490        0.17262
H          9.28435      -12.84792        0.42446
$end

$opt
CONSTRAINT
tors 4 6 7 8 21.82164
tors 10 13 16 17 169.06444
tors 17 19 22 25 -15.00000
ENDCONSTRAINT
$end
--------------------------------------------------------------

   16   -2291.1503529917      5.21E-09 Convergence criterion met
 Total energy in the final basis set = -2291.1503529917
   13   -2291.1507748895      4.22E-09 Convergence criterion met
 Total energy in the final basis set = -2291.1507748895
   12   -2291.1508455494      4.78E-09 Convergence criterion met
 Total energy in the final basis set = -2291.1508455494
   11   -2291.1508798597      7.25E-09 Convergence criterion met
 Total energy in the final basis set = -2291.1508798597
   10   -2291.1508911014      5.97E-09 Convergence criterion met
 Total energy in the final basis set = -2291.1508911014
   10   -2291.1508961704      9.13E-09 Convergence criterion met
 Total energy in the final basis set = -2291.1508961704

             Standard Nuclear Orientation (Angstroms)
    I     Atom           X                Y                Z
 ----------------------------------------------------------------
    1      C       7.7009706380     0.4851351964    -0.2571753742
    2      C       7.0026909936     1.6255349353     0.1048344384
    3      C       6.9799277583    -0.6676581053    -0.5241063058
    4      C       5.6255602091     1.5664028523     0.1872545405
    5      N       5.6580571050    -0.7410593710    -0.4426783202
    6      C       4.9927452330     0.3558636994    -0.0879118212
    7      C       3.5117520925     0.2768751227    -0.0266553039
    8      N       2.8480713055     1.3928414710    -0.1498083567
    9      C       2.7889503057    -0.9432823207     0.1775178280
   10      C       1.4931522151     1.4281818790    -0.1327638722
   11      N       3.2782185814    -2.1646481282     0.3998080854
   12      C       1.3572583291    -0.9011974064     0.1939046558
   13      C       0.6683452635     0.3380972170     0.0213705737
   14      S       2.0170675879    -3.1361922668     0.5842555287
   15      N       0.8011290521    -2.0929087175     0.4072180108
   16      C      -0.7830668244     0.4434870397     0.0143487713
   17      S      -1.8077878305    -0.9380141026    -0.0688892357
   18      C      -1.5799153775     1.5861129763     0.0462430975
   19      C      -3.2652544260    -0.0509392770    -0.0993797781
   20      N      -1.1375281242     2.8730377014     0.1347020887
   21      C      -2.9802200395     1.3033030592    -0.0111801390
   22      C      -4.5473344810    -0.7141866283    -0.1789361670
   23      C      -2.0561483151     3.7882134273     0.1628680949
   24      N      -3.9156792132     2.2886785702     0.0216713014
   25      C      -4.7846849300    -2.0204217936    -0.5199734350
   26      S      -6.0366439238     0.0988297180     0.1725373444
   27      C      -3.4549954546     3.4976349587     0.1064053997
   28      C      -6.1533758987    -2.3681979253    -0.4859664722
   29      C      -6.9430191606    -1.3221322063    -0.1237065242
   30      H       8.7788226245     0.4857705801    -0.3366882411
   31      H       7.5247816445     2.5483538742     0.3183071283
   32      H       7.4880271182    -1.5771455840    -0.8234147974
   33      H       5.0305258031     2.4262596839     0.4537093853
   34      H       1.0589343200     2.4088051690    -0.2469077552
   35      H      -1.7307080426     4.8203217222     0.2355093489
   36      H      -3.9997925693    -2.7100893064    -0.7941122092
   37      H      -4.1711543951     4.3110031930     0.1365539200
   38      H      -6.5311421202    -3.3492391888    -0.7291773143
   39      H      -8.0157571472    -1.3039058241    -0.0286677788
 ----------------------------------------------------------------

    9   -2291.1508969639      6.91E-09 Convergence criterion met
 Total energy in the final basis set = -2291.1508969639
 Final energy is   -2291.15089696387
 **  OPTIMIZATION CONVERGED  **

                    Orbital Energies (a.u.)
 --------------------------------------------------------------

 Alpha MOs
 -- Occupied --
-89.146 -89.098 -89.076 -14.483 -14.480 -14.463 -14.462 -14.445
-14.434 -10.355 -10.352 -10.351 -10.346 -10.344 -10.344 -10.342
-10.341 -10.337 -10.336 -10.335 -10.331 -10.326 -10.324 -10.315
-10.309 -10.301 -10.298 -10.296 -10.294  -8.157  -8.113  -8.091
 -6.107  -6.101  -6.101  -6.062  -6.058  -6.057  -6.040  -6.036
 -6.034  -1.143  -1.102  -1.068  -1.049  -1.030  -1.013  -1.003
 -0.985  -0.925  -0.912  -0.896  -0.879  -0.869  -0.853  -0.838
 -0.811  -0.777  -0.772  -0.748  -0.738  -0.730  -0.717  -0.711
 -0.671  -0.660  -0.645  -0.630  -0.628  -0.621  -0.606  -0.602
 -0.587  -0.576  -0.568  -0.561  -0.559  -0.549  -0.543  -0.527
 -0.512  -0.508  -0.500  -0.499  -0.493  -0.492  -0.485  -0.484
 -0.475  -0.466  -0.464  -0.461  -0.448  -0.443  -0.431  -0.427
 -0.419  -0.407  -0.392  -0.378  -0.373  -0.360  -0.358  -0.351
 -0.343  -0.339  -0.335  -0.332  -0.320  -0.262

          Ground-State Mulliken Net Atomic Charges

     Atom                 Charge (a.u.)
  ----------------------------------------
      1 C                    -0.092847
      2 C                    -0.129271
      3 C                    -0.080471
      4 C                    -0.118245
      5 N                    -0.146075
      6 C                     0.082662
      7 C                     0.099014
      8 N                    -0.176698
      9 C                    -0.019141
     10 C                    -0.085427
     11 N                    -0.217223
     12 C                     0.050375
     13 C                     0.065264
     14 S                     0.403885
     15 N                    -0.305241
     16 C                    -0.074626
     17 S                     0.167518
     18 C                     0.065275
     19 C                    -0.035167
     20 N                    -0.169676
     21 C                     0.041611
     22 C                     0.017320
     23 C                    -0.045738
     24 N                    -0.154072
     25 C                    -0.182156
     26 S                     0.136967
     27 C                    -0.048964
     28 C                    -0.155496
     29 C                    -0.187815
     30 H                     0.132968
     31 H                     0.120216
     32 H                     0.119742
     33 H                     0.137815
     34 H                     0.137726
     35 H                     0.128611
     36 H                     0.123320
     37 H                     0.127829
     38 H                     0.130186
     39 H                     0.136048
  ----------------------------------------
  Sum of atomic charges =     0.000000

                    Cartesian Multipole Moments
 -----------------------------------------------------------------
    Charge (ESU x 10^10)
                 0.0000
    Dipole Moment (Debye)
         X       0.0929      Y       0.8830      Z       0.3077
       Tot       0.9396
    Quadrupole Moments (Debye-Ang)
        XX    -156.0300     XY       5.8001     YY    -163.4338
        XZ       1.8524     YZ       2.7674     ZZ    -187.0964

 Total job time:  6590.02s(wall), 98436.47s(cpu)
        *  Thank you very much for using Q-Chem.  Have a nice day.  *
