 Q-Chem 4.4, Q-Chem, Inc., Pleasanton, CA (2016)
 Q-Chem 4.4.2 for Intel X86 Linux

User input:
--------------------------------------------------------------
$comment
OPTIMIZATION
$end

$rem
JOBTYPE OPT
EXCHANGE omegaB97X-D
BASIS cc-pVTZ
$end

$molecule
0 1
C          0.00000        0.00000        0.00000
C         -0.65396       -1.22126       -0.00000
C          1.38563        0.00000        0.00000
C          0.09526       -2.37957        0.00866
N          2.11912       -1.10562        0.01199
C          1.48546       -2.27640        0.02149
C          2.30642       -3.51253        0.03449
N          1.74513       -4.60745       -0.39909
C          3.65824       -3.56714        0.50995
C          2.40434       -5.79109       -0.42442
N          4.38617       -2.58332        1.04242
C          4.35289       -4.81920        0.47143
C          3.70163       -5.99343       -0.01477
S          5.80914       -3.21778        1.41887
N          5.59255       -4.74484        0.95148
C          4.33823       -7.30129       -0.04468
S          6.02589       -7.51949        0.20234
C          3.75434       -8.55173       -0.24928
C          5.99762       -9.21427        0.01351
N          2.43078       -8.79033       -0.46746
C          4.69159       -9.63209       -0.21260
C          7.19111      -10.02404        0.10954
C          2.09912      -10.03238       -0.63993
N          4.30733      -10.92364       -0.39820
C          7.35381      -11.20331        0.78331
S          8.66558       -9.57085       -0.68385
C          3.03978      -11.10696       -0.60697
C          8.66268      -11.73006        0.67070
C          9.48146      -10.95260       -0.08632
H         -0.54853        0.93120        0.00000
H         -1.73532       -1.26909       -0.00410
H          1.93662        0.93286       -0.01167
H         -0.36319       -3.35650        0.00329
H          1.82722       -6.62671       -0.78554
H          1.05088      -10.24576       -0.82054
H          6.54937      -11.66733        1.32863
H          2.69937      -12.12548       -0.75876
H          8.97748      -12.64884        1.14165
H         10.51648      -11.12137       -0.32966
$end

$opt
CONSTRAINT
tors 4 6 7 8 21.82164
tors 10 13 16 17 169.06444
tors 17 19 22 25 135.00000
ENDCONSTRAINT
$end
--------------------------------------------------------------

   16   -2291.1489461132      5.12E-09 Convergence criterion met
 Total energy in the final basis set = -2291.1489461132
   12   -2291.1491660104      6.18E-09 Convergence criterion met
 Total energy in the final basis set = -2291.1491660104
   12   -2291.1492851573      7.17E-09 Convergence criterion met
 Total energy in the final basis set = -2291.1492851573
   11   -2291.1493408269      8.55E-09 Convergence criterion met
 Total energy in the final basis set = -2291.1493408269
   11   -2291.1493716707      8.38E-09 Convergence criterion met
 Total energy in the final basis set = -2291.1493716707
   10   -2291.1493755240      6.23E-09 Convergence criterion met
 Total energy in the final basis set = -2291.1493755240

             Standard Nuclear Orientation (Angstroms)
    I     Atom           X                Y                Z
 ----------------------------------------------------------------
    1      C       7.6694562890     0.3012475942    -0.3528666262
    2      C       7.0217212744     1.4726800208     0.0039545968
    3      C       6.9012431501    -0.8286871789    -0.5831577884
    4      C       5.6454655401     1.4657888472     0.1179180291
    5      N       5.5798251340    -0.8517147612    -0.4715004283
    6      C       4.9632128747     0.2747046011    -0.1214249138
    7      C       3.4818544108     0.2500936988    -0.0303325367
    8      N       2.8550730937     1.3860575414    -0.1620872860
    9      C       2.7216864116    -0.9401065247     0.2121831314
   10      C       1.5020173900     1.4678220050    -0.1245494172
   11      N       3.1727371938    -2.1722972934     0.4555099722
   12      C       1.2933104680    -0.8483675180     0.2504207522
   13      C       0.6438293984     0.4095198210     0.0608846838
   14      S       1.8823277621    -3.0953162398     0.6834864350
   15      N       0.7007256676    -2.0149246353     0.5011805967
   16      C      -0.8048861406     0.5598835625     0.0680436757
   17      S      -1.8703213802    -0.7893111007     0.0247630208
   18      C      -1.5662342919     1.7280836017     0.0815759652
   19      C      -3.2962537074     0.1420527471    -0.0255321903
   20      N      -1.0801350641     3.0008858585     0.1410278120
   21      C      -2.9762604618     1.4896126911     0.0346182563
   22      C      -4.6125331472    -0.4639692018    -0.0312483338
   23      C      -1.9680333166     3.9459975418     0.1479274130
   24      N      -3.8806317069     2.5069074319     0.0404890307
   25      C      -5.7047426103    -0.0992552919     0.7040530124
   26      S      -4.9603342527    -1.8659945444    -0.9849818209
   27      C      -3.3757163874     3.6998958008     0.0947666820
   28      C      -6.8202200071    -0.9446022525     0.4935863428
   29      C      -6.5624863580    -1.9465430187    -0.3885564113
   30      H       8.7445105331     0.2603994207    -0.4562282785
   31      H       7.5819803176     2.3791639070     0.1885379768
   32      H       7.3686780718    -1.7610516306    -0.8783211085
   33      H       5.0889718828     2.3515867806     0.3826117232
   34      H       1.0993212440     2.4602844334    -0.2509328858
   35      H      -1.6084232873     4.9680907794     0.1977618723
   36      H      -5.6984512886     0.7547776565     1.3624144595
   37      H      -4.0619184447     4.5395842126     0.0977482117
   38      H      -7.7735022090    -0.8175902803     0.9833965764
   39      H      -7.2281981806    -2.7238086789    -0.7227507406
 ----------------------------------------------------------------

    9   -2291.1493764583      5.10E-09 Convergence criterion met
 Total energy in the final basis set = -2291.1493764583
 Final energy is   -2291.14937645827
 **  OPTIMIZATION CONVERGED  **

                    Orbital Energies (a.u.)
 --------------------------------------------------------------

 Alpha MOs
 -- Occupied --
-89.146 -89.099 -89.080 -14.482 -14.479 -14.462 -14.461 -14.445
-14.434 -10.355 -10.352 -10.350 -10.345 -10.342 -10.342 -10.342
-10.340 -10.337 -10.336 -10.333 -10.330 -10.326 -10.323 -10.319
-10.309 -10.301 -10.298 -10.295 -10.295  -8.156  -8.113  -8.095
 -6.106  -6.101  -6.100  -6.062  -6.058  -6.057  -6.044  -6.040
 -6.038  -1.143  -1.101  -1.068  -1.048  -1.029  -1.013  -1.003
 -0.986  -0.925  -0.912  -0.896  -0.878  -0.868  -0.853  -0.839
 -0.811  -0.777  -0.772  -0.748  -0.738  -0.730  -0.716  -0.710
 -0.671  -0.656  -0.648  -0.629  -0.628  -0.620  -0.608  -0.603
 -0.586  -0.576  -0.568  -0.560  -0.558  -0.547  -0.543  -0.526
 -0.512  -0.507  -0.500  -0.498  -0.493  -0.492  -0.485  -0.483
 -0.474  -0.467  -0.462  -0.461  -0.450  -0.441  -0.429  -0.426
 -0.419  -0.412  -0.393  -0.376  -0.371  -0.360  -0.357  -0.347
 -0.342  -0.339  -0.335  -0.334  -0.320  -0.268

          Ground-State Mulliken Net Atomic Charges

     Atom                 Charge (a.u.)
  ----------------------------------------
      1 C                    -0.092357
      2 C                    -0.129256
      3 C                    -0.080742
      4 C                    -0.118446
      5 N                    -0.145929
      6 C                     0.082853
      7 C                     0.099644
      8 N                    -0.177091
      9 C                    -0.018509
     10 C                    -0.083546
     11 N                    -0.217675
     12 C                     0.052738
     13 C                     0.058028
     14 S                     0.405291
     15 N                    -0.305437
     16 C                    -0.068151
     17 S                     0.194496
     18 C                     0.050056
     19 C                    -0.072520
     20 N                    -0.169601
     21 C                     0.047506
     22 C                    -0.008925
     23 C                    -0.048200
     24 N                    -0.147836
     25 C                    -0.141094
     26 S                     0.112417
     27 C                    -0.046907
     28 C                    -0.152496
     29 C                    -0.183538
     30 H                     0.132963
     31 H                     0.120175
     32 H                     0.119827
     33 H                     0.137560
     34 H                     0.138188
     35 H                     0.128356
     36 H                     0.132929
     37 H                     0.130545
     38 H                     0.129597
     39 H                     0.135089
  ----------------------------------------
  Sum of atomic charges =     0.000000

                    Cartesian Multipole Moments
 -----------------------------------------------------------------
    Charge (ESU x 10^10)
                 0.0000
    Dipole Moment (Debye)
         X      -0.1963      Y       1.3568      Z       0.8405
       Tot       1.6080
    Quadrupole Moments (Debye-Ang)
        XX    -152.2496     XY       4.4321     YY    -165.8013
        XZ      -2.1146     YZ       2.7946     ZZ    -185.3078

 Total job time:  6564.66s(wall), 98006.78s(cpu)
        *  Thank you very much for using Q-Chem.  Have a nice day.  *
