 Q-Chem 4.4, Q-Chem, Inc., Pleasanton, CA (2016)
 Q-Chem 4.4.2 for Intel X86 Linux

User input:
--------------------------------------------------------------
$comment
SP
$end

$rem
MEM_STATIC 5000
MEM_TOTAL 20000
JOBTYPE SP
EXCHANGE B3LYP
BASIS 6-31g(d,p)
$end

$molecule
0 1
O          15.929000     10.999000      7.096000
C          14.615000     10.521000      7.636000
H          13.962000     11.355000      7.922000
H          14.833000      9.993000      8.572000
H          14.096000      9.918000      6.881000
O          16.233000     12.110000      9.031000
C          16.562000     11.818000      7.897000
C          17.786000     12.368000      7.327000
H          17.398000     13.018000      6.533000
H          18.146000     11.488000      6.780000
C          18.841000     12.912000      8.298000
H          18.442000     13.797000      8.809000
H          19.107000     12.148000      9.039000
C          20.104000     13.322000      7.554000
H          20.650000     12.506000      7.064000
H          19.843000     14.028000      6.756000
C          21.182000     13.926000      8.524000
C          21.998000     12.899000      9.257000
C          21.460000     12.197000     10.360000
H          20.464000     12.343000     10.767000
C          22.225000     11.117000     10.825000
H          21.771000     10.529000     11.617000
C          23.596000     10.940000     10.524000
H          24.191000     10.248000     11.112000
C          24.136000     11.747000      9.554000
H          25.183000     11.621000      9.292000
C          23.357000     12.658000      8.886000
H          23.877000     13.350000      8.231000
C          22.237000     17.464000     12.559000
C          24.282000     17.480000     11.301000
C          23.770000     21.615000      9.484000
C          18.294000     18.405000      9.458000
C          22.643000     20.466000      6.356000
C          23.172000     16.815000     11.777000
C          19.231000     20.149000      7.443000
C          23.336000     20.792000     11.735000
C          23.520000     16.720000      7.443000
C          18.653000     17.921000      8.172000
C          21.824000     15.266000      8.109000
C          22.534000     16.922000      6.537000
C          20.012000     18.096000      6.386000
C          20.305000     20.869000      6.861000
C          23.707000     15.932000      9.765000
C          21.997000     22.077000      8.067000
C          20.861000     15.213000      9.216000
C          19.549000     15.902000      9.177000
C          22.984000     21.388000      7.339000
C          19.899000     20.917000     11.327000
C          21.611000     22.090000     10.490000
C          22.011000     21.349000     11.626000
C          23.429000     19.501000     12.297000
C          19.414000     16.542000     10.484000
C          23.222000     15.712000      8.406000
C          24.434000     18.843000     11.512000
C          19.049000     18.785000      7.204000
C          24.544000     17.000000     10.037000
C          22.404000     18.209000      5.876000
C          19.131000     18.690000     11.596000
C          24.168000     20.877000     10.641000
C          21.458000     16.228000      6.986000
C          21.069000     19.445000     12.802000
C          21.111000     18.815000      5.873000
C          24.509000     17.675000      7.653000
C          19.816000     21.623000      8.952000
C          18.901000     20.587000      8.709000
C          24.390000     18.935000      7.085000
C          18.687000     17.759000     10.626000
C          19.324000     16.672000      8.054000
C          18.956000     19.891000     11.031000
C          21.419000     15.439000     10.599000
C          25.216000     19.169000      9.224000
C          20.247000     16.836000      7.029000
C          23.310000     19.266000      6.194000
C          20.210000     18.385000     12.423000
C          24.106000     21.113000      8.177000
C          22.321000     18.819000     12.913000
C          22.478000     22.168000      9.390000
C          25.030000     17.767000      8.941000
C          24.836000     19.872000      8.045000
C          22.776000     15.802000     10.809000
C          20.489000     16.237000     11.283000
C          20.280000     21.798000     10.286000
C          24.912000     19.717000     10.457000
C          21.257000     20.159000      6.157000
C          18.422000     19.720000      9.720000
C          20.675000     21.770000      7.816000
C          20.924000     17.173000     12.306000
C          20.924000     20.705000     12.208000
O          31.529000     31.234000     19.649000
C          32.486000     31.126000     20.719000
H          33.212000     31.946000     20.783000
H          32.982000     30.150000     20.651000
H          31.986000     31.251000     21.687000
O          30.034000     29.674000     20.434000
C          30.379000     30.480000     19.612000
C          29.529000     30.634000     18.341000
H          29.673000     31.647000     17.946000
H          28.479000     30.512000     18.632000
C          30.007000     29.607000     17.280000
H          31.074000     29.818000     17.135000
H          29.888000     28.630000     17.764000
C          29.225000     29.718000     15.957000
H          28.148000     29.654000     16.153000
H          29.300000     30.777000     15.681000
C          29.684000     28.628000     14.876000
C          31.154000     28.210000     14.780000
C          32.068000     28.970000     14.088000
H          31.679000     29.875000     13.630000
C          33.407000     28.660000     14.029000
H          34.047000     29.364000     13.505000
C          33.925000     27.617000     14.789000
H          35.008000     27.554000     14.736000
C          33.018000     26.859000     15.587000
H          33.450000     26.041000     16.155000
C          31.628000     27.128000     15.545000
H          30.932000     26.444000     16.022000
C          29.299000     27.946000      9.333000
C          29.157000     25.595000     10.279000
C          24.783000     24.733000      9.460000
C          25.566000     30.614000     11.660000
C          23.746000     25.282000     12.800000
C          29.713000     26.943000     10.317000
C          23.414000     28.847000     12.322000
C          26.432000     25.890000      8.063000
C          27.619000     25.457000     14.012000
C          25.431000     30.107000     12.985000
C          28.537000     27.712000     14.354000
C          26.634000     26.283000     14.586000
C          24.878000     28.377000     14.231000
C          22.894000     27.580000     12.296000
C          29.354000     26.169000     12.449000
C          23.153000     25.919000     10.479000
C          28.950000     28.888000     13.500000
C          27.873000     29.825000     13.125000
C          23.667000     25.032000     11.421000
C          25.057000     29.026000      8.625000
C          24.281000     26.910000      8.438000
C          25.539000     26.942000      7.862000
C          27.787000     26.164000      8.341000
C          27.928000     30.199000     11.768000
C          28.769000     26.287000     13.748000
C          28.228000     25.229000      9.295000
C          24.338000     29.286000     13.310000
C          29.000000     25.138000     11.609000
C          25.290000     25.955000     14.310000
C          26.698000     30.361000      9.677000
C          26.051000     24.771000      8.850000
C          27.123000     27.616000     14.698000
C          27.357000     28.526000      8.252000
C          24.367000     27.056000     14.210000
C          27.191000     24.479000     13.113000
C          23.220000     28.326000     10.090000
C          23.607000     29.313000     10.991000
C          25.874000     24.085000     12.795000
C          26.817000     30.682000     11.031000
C          26.582000     29.705000     13.681000
C          25.343000     30.112000      9.450000
C          29.455000     28.634000     12.084000
C          26.967000     23.891000     10.905000
C          26.243000     28.643000     14.458000
C          24.882000     24.884000     13.433000
C          27.724000     29.559000      9.043000
C          24.654000     24.276000     10.788000
C          28.284000     27.506000      8.404000
C          23.930000     25.790000      9.300000
C          27.876000     24.319000     11.893000
C          25.764000     23.754000     11.489000
C          29.754000     27.314000     11.711000
C          28.903000     29.502000     11.129000
C          23.976000     28.171000      8.869000
C          27.160000     24.391000      9.591000
C          23.378000     26.635000     13.270000
C          24.614000     30.217000     10.703000
C          22.825000     27.205000     10.879000
C          28.896000     29.177000      9.785000
C          26.042000     28.258000      7.961000
$end

--------------------------------------------------------------

             Standard Nuclear Orientation (Angstroms)
    I     Atom           X                Y                Z
 ----------------------------------------------------------------
    1      O     -14.6944580648    -0.1528855804    -1.2526040014
    2      C     -15.5797411436    -0.1118084066    -2.4614325816
    3      H     -15.1495447721    -0.6686943769    -3.3031986406
    4      H     -15.6100066958     0.9327378978    -2.7937141104
    5      H     -16.5591573890    -0.5447734005    -2.2241982413
    6      O     -13.0536851377     0.7275994321    -2.5189263714
    7      C     -13.4690536544     0.2454057728    -1.4823843942
    8      C     -12.5803207072     0.1026644363    -0.3354952717
    9      H     -12.4942122540    -0.9872853227    -0.2456350636
   10      H     -13.2754169335     0.3686554841     0.4702956433
   11      C     -11.3116215479     0.9637133614    -0.3072252927
   12      H     -10.6431929583     0.6520012736    -1.1193741676
   13      H     -11.5675826929     2.0236640133    -0.4277305114
   14      C     -10.5692519782     0.7941289921     1.0107024609
   15      H     -11.1012697374     1.1496323592     1.9021319084
   16      H     -10.3749642227    -0.2714839998     1.1841447265
   17      C      -9.2408087406     1.6319572019     1.0436031520
   18      C      -9.4333967108     3.0819943044     1.3873709152
   19      C      -9.9353297170     3.9941123163     0.4308349829
   20      H     -10.1968482448     3.7439171541    -0.5928795478
   21      C     -10.2782560147     5.2626338010     0.9218592156
   22      H     -10.7406254080     5.9328712571     0.2034440873
   23      C      -9.8198214006     5.7751209000     2.1582918575
   24      H      -9.8980353209     6.8385809948     2.3621746903
   25      C      -9.1915540531     4.8991424766     3.0078158076
   26      H      -8.8438633422     5.2629997772     3.9708568422
   27      C      -9.0540392756     3.5752729918     2.6739816072
   28      H      -8.4325657555     2.9737251699     3.3298778504
   29      C      -4.6208850028     2.9881181303    -1.5503949577
   30      C      -3.9579809033     3.0327255273     0.7568573768
   31      C      -1.4342725822    -0.7468617355     0.6704025752
   32      C      -6.8012179212    -1.4973304867    -2.6347519418
   33      C      -3.8858462414    -2.8162139086     2.1134140712
   34      C      -4.9105716628     3.2250319323    -0.2211457375
   35      C      -5.5349532389    -3.4385184387    -1.0197927816
   36      C      -1.6309546364     1.0820749604    -0.9261539479
   37      C      -6.1338577632     0.4053852832     2.8556787442
   38      C      -7.4027514928    -1.9664755034    -1.4368398768
   39      C      -7.9614689295     0.8973317375     1.4948282341
   40      C      -6.7458002600    -0.7892263331     2.6760528362
   41      C      -7.1194723987    -2.6916002259     0.6753270417
   42      C      -4.5885234669    -3.7516405616    -0.0114152616
   43      C      -5.9666718689     2.5480687232     1.6604576129
   44      C      -2.3902053980    -2.8009801216     0.1891000637
   45      C      -8.1532901362     1.2611988115     0.0854197138
   46      C      -8.2724556525     0.2561376025    -0.9977411910
   47      C      -2.6694049467    -2.4805669187     1.5300911119
   48      C      -3.3922092289    -0.8402902318    -3.2059680474
   49      C      -1.8354638715    -1.2898886638    -1.6626446392
   50      C      -1.8845802984     0.0947673207    -1.9452970429
   51      C      -2.4543017507     2.2279064274    -0.9446952150
   52      C      -7.4253719365     0.7563349326    -2.0786324016
   53      C      -6.8041255824     1.4974951399     2.2309595181
   54      C      -2.7167775067     2.4996151595     0.4396800385
   55      C      -6.8006750431    -2.9381265802    -0.7062687757
   56      C      -4.5986127358     2.5325035255     1.8686616780
   57      C      -5.9745978069    -2.0189689440     2.7323545884
   58      C      -5.4956306435     0.2228349439    -3.4649993458
   59      C      -1.4755707545     0.6499158955     0.3720676787
   60      C      -7.7128446730    -0.5843289988     1.7466147341
   61      C      -3.5385238723     1.5350147063    -2.9872731092
   62      C      -6.1401545984    -2.9445139752     1.6576214382
   63      C      -4.7990658595     0.4780008725     3.2394801904
   64      C      -3.5891654192    -2.9274595990    -1.8827589588
   65      C      -4.9619843896    -2.9448143684    -2.1736831527
   66      C      -4.0157120290    -0.6668315563     3.2495044641
   67      C      -6.7674412824    -0.1457668706    -2.9635739765
   68      C      -8.1074946600    -1.0555345039    -0.6015617414
   69      C      -4.7872872058    -0.9129860684    -3.4852774702
   70      C      -7.2667642414     2.3585629265    -0.4484274898
   71      C      -2.7565388615     1.0770776639     2.4214847989
   72      C      -7.8212937973    -1.4413914818     0.7017622624
   73      C      -4.5664946221    -1.9648298841     2.9637058003
   74      C      -4.9439012072     1.4613156025    -3.1441328825
   75      C      -2.0683688476    -1.2312816447     1.8689050900
   76      C      -3.3768785759     2.5283802143    -2.0080914276
   77      C      -1.6698653013    -1.7064213851    -0.3334153115
   78      C      -4.0683766726     1.5657859246     2.7686660098
   79      C      -2.7410997184    -0.3076116456     2.7547221752
   80      C      -6.2236805458     2.9248526969     0.3317073063
   81      C      -6.8842091919     1.9734103807    -1.7425948478
   82      C      -2.8062734588    -1.8791882204    -2.4428342173
   83      C      -2.0917232715     1.4990392610     1.2843930516
   84      C      -4.8950414328    -3.4188590059     1.2929325344
   85      C      -5.5953220084    -1.9793152862    -2.9921854330
   86      C      -3.3829126451    -3.4107855347    -0.5509024226
   87      C      -5.5967401498     2.3722164628    -2.2859429630
   88      C      -2.7762488514     0.3601372384    -2.9794802948
   89      O      13.3530726720     4.6087220198    -2.2802939476
   90      C      14.0762596677     5.8530590661    -2.2480622155
   91      H      15.1245870363     5.7778604268    -1.9335357571
   92      H      13.5186171295     6.5688901434    -1.6317533089
   93      H      14.2197478235     6.2330401250    -3.2667253316
   94      O      11.5778497578     5.3339266559    -3.5481708504
   95      C      12.1518882902     4.4730162762    -2.9368950685
   96      C      11.4585829123     3.1116332511    -2.7706996661
   97      H      12.2283586763     2.3436984547    -2.6269936407
   98      H      10.9180839828     2.9031530496    -3.7015390254
   99      C      10.5476600121     3.1529224345    -1.5147344305
  100      H      11.2131314884     3.4222816253    -0.6848980969
  101      H       9.8467352040     3.9746914098    -1.7053811316
  102      C       9.8381629529     1.8098658121    -1.2559162856
  103      H       9.3018309252     1.4907178671    -2.1575445600
  104      H      10.6464914972     1.0683497696    -1.2495191549
  105      C       8.8606888502     1.8631666463     0.0125652475
  106      C       9.2372398919     2.6967952283     1.2406176488
  107      C      10.1014926489     2.2117341777     2.1943696863
  108      H      10.4954189636     1.2159701645     2.0116510812
  109      C      10.5102637301     2.9520332441     3.2794344288
  110      H      11.2420650520     2.4902437699     3.9359474194
  111      C      10.1623442720     4.2937806704     3.3909642217
  112      H      10.6428557020     4.7855485810     4.2317615145
  113      C       9.3355912866     4.8550596823     2.3733875062
  114      H       9.0671824760     5.8994924444     2.4978419795
  115      C       8.8371275521     4.0434227645     1.3250533901
  116      H       8.0788125535     4.4357880591     0.6536303948
  117      C       6.4241660375    -1.8133720478     3.4599726521
  118      C       4.7437500162     0.0770421975     3.2482724484
  119      C       1.5868314437    -2.0171596121     0.7595247899
  120      C       7.4001253640    -3.3575817485    -1.3495347856
  121      C       2.5248431818    -0.4568111379    -2.2765609497
  122      C       6.1243040696    -0.3844492685     3.3419748095
  123      C       5.0881583798    -2.9042670606    -2.9746352311
  124      C       2.9279252464    -2.8783010086     2.6221471100
  125      C       4.9939776160     2.0616433891    -0.2615026525
  126      C       7.3270492849    -2.2136390424    -2.1962661313
  127      C       7.3822820759     1.4788189313    -0.2936034047
  128      C       5.3377557495     1.5590657008    -1.5308368331
  129      C       6.0315532391    -0.6426910748    -3.0359312304
  130      C       3.7948352423    -2.4625294332    -3.0670913325
  131      C       5.9687695846     1.3685308931     1.8667627646
  132      C       2.0308428605    -2.7009588847    -1.3469246913
  133      C       8.2795316053     0.4229597271     0.3088628789
  134      C       8.3767818538    -0.8463002789    -0.4381608331
  135      C       1.8623351578    -1.3196082390    -1.3894046612
  136      C       4.9350886683    -4.8383443630     0.5799693394
  137      C       2.7780498605    -4.1588243827     0.5860667440
  138      C       3.2641043975    -4.0052083590     1.8727357396
  139      C       3.9189237376    -2.2163983646     3.3759321458
  140      C       8.2923139112    -1.9759377277     0.3991768533
  141      C       6.1646429328     1.9450432127     0.5733884272
  142      C       3.6784346845    -0.8335526197     3.2825262506
  143      C       6.2110790232    -2.0333261646    -3.0307795471
  144      C       4.7014283245     1.1869295021     2.3714845347
  145      C       4.3093496789     0.9332953431    -2.2662879963
  146      C       7.1631201600    -4.0885291472     0.8154747833
  147      C       2.0724083761    -1.8860580606     2.0742093246
  148      C       6.6949133351     1.1270040300    -1.5308174078
  149      C       5.5805543049    -3.7745747729     2.6124302544
  150      C       4.7007268666    -0.1636358810    -3.1134572749
  151      C       3.7139922869     1.7758542639     0.2158139438
  152      C       3.8885077883    -4.2669069413    -1.5622075289
  153      C       5.1556384461    -4.0033795929    -2.0727682331
  154      C       2.6331564700     1.1693514296    -0.4585726286
  155      C       7.8955202996    -3.2640316661    -0.0414452475
  156      C       7.7969226862    -0.9805360090    -1.7172077887
  157      C       6.2078602546    -4.7285248530     0.0233643050
  158      C       7.8977547228    -0.1970359556     1.6484332449
  159      C       2.4524281561     0.4531765516     1.6051172272
  160      C       7.0055881470    -0.0074870264    -2.2401411731
  161      C       2.9711362182     0.7231913506    -1.7686183811
  162      C       6.8411291999    -3.6224072168     2.1484744711
  163      C       1.5580552613    -0.8958947327    -0.0954670239
  164      C       5.2724362764    -2.6840272064     3.4115562054
  165      C       1.9597797941    -3.0998958816     0.0118285288
  166      C       3.5588880947     1.3233260375     1.5403462740
  167      C       1.9118838069     0.3880290488     0.3760518874
  168      C       6.8698274837     0.4049155699     2.3913665880
  169      C       8.0277504989    -1.5943612918     1.6755626196
  170      C       3.7730286703    -4.6904891336    -0.1861098943
  171      C       2.5525346134    -0.6527572313     2.4887088551
  172      C       3.5741184518    -1.0405747385    -3.1397958346
  173      C       6.3064036662    -4.2427321712    -1.3429334906
  174      C       3.0249092804    -3.2785529559    -2.1212612084
  175      C       7.3517971621    -2.3585602262     2.6088884336
  176      C       4.6106534884    -4.4306181228     1.8950534154
 ----------------------------------------------------------------

    9   -5804.2351212896      8.48E-06 Convergence criterion met
 Total energy in the final basis set = -5804.2351212896

                    Orbital Energies (a.u.)
 --------------------------------------------------------------

 Alpha MOs
 -- Occupied --
-19.201 -19.193 -19.134 -19.121 -10.317 -10.304 -10.256 -10.253
-10.249 -10.245 -10.237 -10.236 -10.231 -10.230 -10.227 -10.227
-10.227 -10.226 -10.225 -10.223 -10.223 -10.222 -10.222 -10.221
-10.221 -10.220 -10.220 -10.220 -10.220 -10.220 -10.219 -10.218
-10.218 -10.218 -10.218 -10.218 -10.217 -10.217 -10.217 -10.217
-10.217 -10.216 -10.216 -10.216 -10.216 -10.216 -10.216 -10.216
-10.216 -10.216 -10.215 -10.215 -10.215 -10.215 -10.215 -10.215
-10.215 -10.215 -10.215 -10.215 -10.214 -10.214 -10.214 -10.214
-10.214 -10.214 -10.214 -10.214 -10.214 -10.214 -10.213 -10.213
-10.213 -10.213 -10.213 -10.213 -10.213 -10.213 -10.212 -10.212
-10.212 -10.212 -10.212 -10.212 -10.212 -10.212 -10.212 -10.211
-10.211 -10.211 -10.211 -10.210 -10.210 -10.210 -10.210 -10.210
-10.210 -10.210 -10.210 -10.210 -10.210 -10.210 -10.209 -10.209
-10.209 -10.209 -10.209 -10.209 -10.209 -10.208 -10.208 -10.208
-10.208 -10.208 -10.208 -10.208 -10.208 -10.208 -10.207 -10.207
-10.207 -10.207 -10.207 -10.206 -10.206 -10.206 -10.206 -10.206
-10.206 -10.206 -10.205 -10.204 -10.204 -10.203 -10.202 -10.202
-10.201 -10.200 -10.200 -10.199 -10.196 -10.196 -10.195 -10.195
-10.195 -10.193 -10.193 -10.191  -1.108  -1.091  -1.017  -1.006
 -0.982  -0.979  -0.965  -0.964  -0.962  -0.959  -0.959  -0.954
 -0.934  -0.928  -0.927  -0.925  -0.923  -0.921  -0.920  -0.918
 -0.918  -0.916  -0.894  -0.890  -0.889  -0.887  -0.886  -0.884
 -0.872  -0.872  -0.856  -0.854  -0.840  -0.837  -0.836  -0.835
 -0.835  -0.831  -0.819  -0.817  -0.808  -0.802  -0.795  -0.794
 -0.794  -0.792  -0.791  -0.790  -0.790  -0.790  -0.783  -0.776
 -0.771  -0.769  -0.768  -0.766  -0.764  -0.762  -0.762  -0.761
 -0.753  -0.752  -0.746  -0.743  -0.733  -0.730  -0.714  -0.714
 -0.712  -0.712  -0.710  -0.710  -0.709  -0.708  -0.707  -0.706
 -0.704  -0.703  -0.703  -0.703  -0.702  -0.700  -0.672  -0.671
 -0.657  -0.656  -0.655  -0.651  -0.647  -0.644  -0.631  -0.630
 -0.627  -0.623  -0.622  -0.621  -0.621  -0.619  -0.616  -0.615
 -0.613  -0.612  -0.611  -0.610  -0.610  -0.609  -0.607  -0.605
 -0.604  -0.603  -0.602  -0.597  -0.569  -0.566  -0.565  -0.562
 -0.561  -0.559  -0.556  -0.555  -0.553  -0.552  -0.551  -0.549
 -0.537  -0.536  -0.531  -0.529  -0.528  -0.526  -0.523  -0.522
 -0.520  -0.519  -0.517  -0.515  -0.512  -0.512  -0.512  -0.510
 -0.507  -0.505  -0.500  -0.495  -0.495  -0.488  -0.487  -0.484
 -0.482  -0.481  -0.481  -0.479  -0.479  -0.478  -0.476  -0.474
 -0.472  -0.470  -0.469  -0.468  -0.467  -0.465  -0.465  -0.464
 -0.463  -0.462  -0.461  -0.461  -0.460  -0.458  -0.457  -0.457
 -0.454  -0.454  -0.453  -0.451  -0.450  -0.447  -0.443  -0.441
 -0.441  -0.438  -0.437  -0.436  -0.435  -0.434  -0.431  -0.431
 -0.429  -0.427  -0.427  -0.426  -0.425  -0.424  -0.423  -0.422
 -0.421  -0.421  -0.419  -0.419  -0.418  -0.418  -0.417  -0.417
 -0.416  -0.415  -0.414  -0.413  -0.412  -0.411  -0.410  -0.410
 -0.409  -0.408  -0.406  -0.405  -0.401  -0.401  -0.397  -0.395
 -0.394  -0.392  -0.387  -0.387  -0.385  -0.385  -0.383  -0.383
 -0.376  -0.375  -0.374  -0.373  -0.369  -0.368  -0.366  -0.365
 -0.364  -0.363  -0.362  -0.360  -0.359  -0.359  -0.358  -0.357
 -0.356  -0.355  -0.354  -0.353  -0.351  -0.351  -0.350  -0.349
 -0.348  -0.347  -0.346  -0.345  -0.345  -0.345  -0.344  -0.343
 -0.341  -0.340  -0.339  -0.339  -0.336  -0.334  -0.333  -0.331
 -0.331  -0.330  -0.328  -0.327  -0.325  -0.324  -0.323  -0.323
 -0.309  -0.304  -0.301  -0.301  -0.288  -0.283  -0.270  -0.268
 -0.267  -0.266  -0.265  -0.265  -0.264  -0.262  -0.261  -0.260
 -0.259  -0.259  -0.257  -0.257  -0.257  -0.256  -0.253  -0.252
 -0.252  -0.247  -0.245  -0.240  -0.220  -0.217  -0.210  -0.208
 -0.207  -0.205  -0.204  -0.202  -0.199  -0.196

          Ground-State Mulliken Net Atomic Charges

     Atom                 Charge (a.u.)
  ----------------------------------------
      1 O                    -0.461019
      2 C                    -0.097973
      3 H                     0.140267
      4 H                     0.144069
      5 H                     0.127864
      6 O                    -0.500880
      7 C                     0.606032
      8 C                    -0.270708
      9 H                     0.133599
     10 H                     0.125425
     11 C                    -0.164624
     12 H                     0.128931
     13 H                     0.110983
     14 C                    -0.186390
     15 H                     0.111896
     16 H                     0.104724
     17 C                    -0.005276
     18 C                     0.062014
     19 C                    -0.093222
     20 H                     0.107199
     21 C                    -0.106166
     22 H                     0.083790
     23 C                    -0.074922
     24 H                     0.093964
     25 C                    -0.084358
     26 H                     0.088612
     27 C                    -0.098039
     28 H                     0.094026
     29 C                     0.008409
     30 C                     0.002039
     31 C                    -0.008253
     32 C                     0.008689
     33 C                     0.007788
     34 C                     0.003200
     35 C                    -0.007007
     36 C                    -0.011751
     37 C                     0.015778
     38 C                     0.011930
     39 C                    -0.101571
     40 C                     0.013162
     41 C                    -0.043256
     42 C                     0.002815
     43 C                    -0.019267
     44 C                     0.001731
     45 C                    -0.056510
     46 C                    -0.016002
     47 C                     0.005246
     48 C                     0.001584
     49 C                    -0.006457
     50 C                    -0.007498
     51 C                     0.006323
     52 C                     0.010957
     53 C                     0.003415
     54 C                    -0.028989
     55 C                    -0.006791
     56 C                     0.021713
     57 C                    -0.041739
     58 C                     0.009359
     59 C                     0.017124
     60 C                     0.023110
     61 C                    -0.012454
     62 C                     0.008712
     63 C                     0.009039
     64 C                    -0.008416
     65 C                     0.006079
     66 C                     0.002223
     67 C                    -0.039404
     68 C                     0.028334
     69 C                     0.000126
     70 C                     0.029782
     71 C                    -0.012127
     72 C                     0.024977
     73 C                    -0.004559
     74 C                     0.004703
     75 C                    -0.022431
     76 C                    -0.020984
     77 C                     0.013010
     78 C                    -0.015592
     79 C                    -0.012476
     80 C                     0.017407
     81 C                     0.011024
     82 C                    -0.015958
     83 C                     0.024699
     84 C                     0.014886
     85 C                    -0.000845
     86 C                     0.010791
     87 C                    -0.001997
     88 C                     0.023782
     89 O                    -0.474666
     90 C                    -0.083849
     91 H                     0.126101
     92 H                     0.128375
     93 H                     0.127604
     94 O                    -0.450893
     95 C                     0.574297
     96 C                    -0.236920
     97 H                     0.110093
     98 H                     0.130956
     99 C                    -0.196935
    100 H                     0.124722
    101 H                     0.120741
    102 C                    -0.182116
    103 H                     0.116448
    104 H                     0.111541
    105 C                     0.007014
    106 C                     0.090127
    107 C                    -0.092623
    108 H                     0.089220
    109 C                    -0.087113
    110 H                     0.091600
    111 C                    -0.080581
    112 H                     0.096576
    113 C                    -0.104668
    114 H                     0.095960
    115 C                    -0.106824
    116 H                     0.101182
    117 C                    -0.030879
    118 C                    -0.009925
    119 C                     0.016093
    120 C                    -0.016939
    121 C                    -0.017136
    122 C                    -0.033509
    123 C                     0.022871
    124 C                     0.001467
    125 C                    -0.013614
    126 C                    -0.011920
    127 C                    -0.081797
    128 C                     0.001795
    129 C                    -0.014998
    130 C                    -0.007526
    131 C                     0.029272
    132 C                    -0.021654
    133 C                    -0.078934
    134 C                     0.032374
    135 C                     0.036460
    136 C                     0.019342
    137 C                     0.008101
    138 C                    -0.014538
    139 C                    -0.009832
    140 C                     0.010785
    141 C                    -0.015828
    142 C                     0.017078
    143 C                    -0.002239
    144 C                     0.000259
    145 C                    -0.009179
    146 C                    -0.003138
    147 C                    -0.020513
    148 C                     0.063056
    149 C                     0.039132
    150 C                    -0.003446
    151 C                     0.021371
    152 C                     0.002468
    153 C                     0.019683
    154 C                    -0.017747
    155 C                    -0.008338
    156 C                    -0.000691
    157 C                    -0.027478
    158 C                    -0.008823
    159 C                     0.014242
    160 C                    -0.004211
    161 C                     0.020903
    162 C                    -0.014307
    163 C                    -0.009567
    164 C                    -0.009245
    165 C                     0.001868
    166 C                    -0.021996
    167 C                     0.011545
    168 C                     0.012262
    169 C                     0.048947
    170 C                    -0.009293
    171 C                     0.006875
    172 C                    -0.032377
    173 C                    -0.007848
    174 C                    -0.017779
    175 C                    -0.000533
    176 C                     0.002730
  ----------------------------------------
  Sum of atomic charges =     0.000000

                    Cartesian Multipole Moments
 -----------------------------------------------------------------
    Charge (ESU x 10^10)
                 0.0000
    Dipole Moment (Debye)
         X      -0.2867      Y       2.0418      Z       2.6246
       Tot       3.3376
    Quadrupole Moments (Debye-Ang)
        XX    -667.7140     XY      21.3627     YY    -800.0265
        XZ       9.2467     YZ      18.3763     ZZ    -817.4496

 Total job time:  844.84s(wall), 8070.39s(cpu)
        *  Thank you very much for using Q-Chem.  Have a nice day.  *
