 Q-Chem 4.4, Q-Chem, Inc., Pleasanton, CA (2016)
 Q-Chem 4.4.2 for Intel X86 Linux

User input:
--------------------------------------------------------------
$comment
SP
$end

$rem
MEM_STATIC 5000
MEM_TOTAL 20000
JOBTYPE SP
EXCHANGE B3LYP
BASIS 6-31g(d,p)
$end

$molecule
0 1
O         -21.938000     32.875000     10.839000
C         -21.562000     34.252000     10.640000
H         -20.684000     34.345000      9.990000
H         -21.478000     34.813000     11.579000
H         -22.428000     34.710000     10.146000
O         -21.437000     32.303000      8.612000
C         -21.874000     32.011000      9.737000
C         -22.547000     30.609000     10.091000
H         -23.617000     30.634000     10.334000
H         -21.945000     30.305000     10.956000
C         -22.259000     29.602000      8.951000
H         -22.741000     29.952000      8.030000
H         -21.179000     29.482000      8.796000
C         -22.857000     28.216000      9.300000
H         -22.790000     27.978000     10.369000
H         -23.921000     28.186000      9.037000
C         -22.251000     27.021000      8.599000
C         -22.294000     27.240000      7.068000
C         -21.192000     27.632000      6.317000
H         -20.273000     27.715000      6.890000
C         -21.284000     27.976000      4.966000
H         -20.452000     28.383000      4.399000
C         -22.449000     27.909000      4.276000
H         -22.513000     28.308000      3.268000
C         -23.501000     27.335000      4.948000
H         -24.438000     27.350000      4.399000
C         -23.443000     27.128000      6.327000
H         -24.320000     26.820000      6.889000
C         -22.810000     21.615000      8.089000
C         -20.604000     22.066000      7.262000
C         -18.397000     20.190000     10.746000
C         -23.323000     23.506000     12.808000
C         -17.660000     23.195000     12.436000
C         -21.945000     22.493000      7.354000
C         -20.871000     23.340000     14.215000
C         -20.366000     19.457000      9.589000
C         -18.980000     25.227000      9.105000
C         -22.543000     24.660000     12.964000
C         -21.147000     26.186000      9.175000
C         -19.089000     25.749000     10.378000
C         -20.399000     25.404000     12.883000
C         -19.537000     22.893000     13.975000
C         -20.627000     24.341000      7.651000
C         -18.568000     20.905000     12.847000
C         -22.536000     25.651000      9.225000
C         -23.078000     25.291000     10.627000
C         -17.711000     21.787000     12.156000
C         -22.549000     20.099000     12.257000
C         -20.350000     19.435000     11.961000
C         -21.051000     19.191000     10.815000
C         -20.995000     20.005000      8.493000
C         -23.820000     24.127000     10.567000
C         -20.160000     25.375000      8.409000
C         -20.104000     20.839000      7.849000
C         -21.299000     24.547000     13.625000
C         -19.831000     23.178000      7.411000
C         -18.425000     25.171000     11.503000
C         -24.017000     21.844000     11.358000
C         -19.017000     19.908000      9.545000
C         -20.405000     26.203000     10.579000
C         -22.992000     20.212000      9.874000
C         -19.041000     25.004000     12.756000
C         -18.140000     24.169000      8.897000
C         -20.879000     21.065000     13.706000
C         -21.681000     22.157000     14.010000
C         -17.469000     23.574000     10.012000
C         -23.943000     23.243000     11.642000
C         -22.391000     25.571000     11.860000
C         -23.339000     21.239000     12.445000
C         -22.867000     24.437000      8.484000
C         -18.054000     21.885000      8.549000
C         -21.058000     26.008000     11.767000
C         -17.599000     24.054000     11.333000
C         -23.861000     21.340000     10.071000
C         -17.530000     21.284000     10.852000
C         -22.354000     20.393000      8.643000
C         -19.041000     19.911000     11.949000
C         -18.504000     23.111000      7.976000
C         -17.455000     22.187000      9.798000
C         -21.971000     23.904000      7.545000
C         -23.662000     23.573000      9.260000
C         -21.224000     20.025000     12.844000
C         -18.809000     20.733000      8.469000
C         -18.638000     23.781000     13.283000
C         -22.894000     22.283000     13.317000
C         -19.534000     21.500000     13.730000
C         -23.690000     22.202000      8.996000
C         -22.400000     19.603000     10.960000
O         -21.920000     14.585000      2.576000
C         -20.558000     14.292000      2.148000
H         -20.263000     13.341000      2.608000
H         -19.888000     15.096000      2.478000
H         -20.496000     14.190000      1.057000
O         -21.452000     15.024000      4.790000
C         -22.222000     15.028000      3.821000
C         -23.721000     15.434000      3.846000
H         -23.785000     15.972000      4.800000
H         -24.262000     14.487000      3.960000
C         -24.276000     16.251000      2.643000
H         -24.259000     15.557000      1.793000
H         -25.317000     16.426000      2.942000
C         -23.563000     17.598000      2.325000
H         -23.281000     18.084000      3.266000
H         -22.595000     17.397000      1.849000
C         -24.508000     18.485000      1.497000
C         -24.652000     18.004000      0.080000
C         -23.874000     18.524000     -0.952000
H         -23.122000     19.272000     -0.720000
C         -24.128000     18.135000     -2.246000
H         -23.694000     18.702000     -3.064000
C         -25.075000     17.092000     -2.546000
H         -25.147000     16.772000     -3.581000
C         -25.768000     16.512000     -1.519000
H         -26.385000     15.649000     -1.750000
C         -25.642000     17.034000     -0.209000
H         -26.255000     16.621000      0.586000
C         -26.301000     23.588000      0.400000
C         -28.377000     22.220000      0.240000
C         -30.170000     23.779000      4.124000
C         -23.873000     22.836000      4.773000
C         -29.116000     21.055000      5.975000
C         -26.999000     22.338000      0.116000
C         -25.795000     22.322000      6.707000
C         -28.991000     24.971000      2.396000
C         -27.958000     19.094000      2.721000
C         -24.232000     21.527000      5.109000
C         -25.687000     18.956000      2.176000
C         -27.348000     18.780000      3.926000
C         -25.753000     20.011000      5.783000
C         -27.148000     22.178000      6.908000
C         -27.347000     20.215000      0.667000
C         -28.997000     23.488000      6.025000
C         -24.617000     19.945000      1.742000
C         -23.902000     20.720000      2.803000
C         -29.693000     22.313000      5.676000
C         -26.122000     25.444000      4.259000
C         -28.258000     25.275000      4.659000
C         -28.131000     25.583000      3.340000
C         -28.450000     24.522000      1.171000
C         -23.802000     22.057000      2.425000
C         -27.034000     19.241000      1.638000
C         -29.081000     23.327000      0.773000
C         -25.175000     21.237000      6.096000
C         -28.599000     20.879000      0.674000
C         -27.973000     19.198000      5.121000
C         -24.304000     24.302000      3.105000
C         -29.990000     24.071000      2.794000
C         -25.973000     18.898000      3.642000
C         -26.211000     25.202000      1.881000
C         -27.160000     19.908000      5.980000
C         -29.231000     19.804000      2.716000
C         -26.732000     24.365000      6.246000
C         -25.545000     23.684000      6.296000
C         -29.831000     20.255000      3.826000
C         -23.726000     23.039000      3.411000
C         -24.237000     20.481000      4.147000
C         -24.891000     24.767000      4.269000
C         -25.048000     21.077000      0.776000
C         -30.318000     21.766000      2.172000
C         -25.174000     19.527000      4.612000
C         -29.153000     19.970000      5.058000
C         -24.960000     24.587000      1.902000
C         -30.387000     22.486000      4.500000
C         -27.068000     24.598000      0.933000
C         -29.315000     24.416000      5.033000
C         -29.597000     20.665000      1.664000
C         -30.481000     21.443000      3.543000
C         -26.382000     21.113000      0.293000
C         -24.460000     22.305000      1.251000
C         -27.052000     25.285000      5.303000
C         -30.020000     23.052000      1.815000
C         -27.867000     21.000000      6.579000
C         -24.575000     23.915000      5.314000
C         -27.717000     23.420000      6.642000
C         -25.028000     23.559000      0.975000
C         -26.772000     25.629000      3.090000
$end

--------------------------------------------------------------

             Standard Nuclear Orientation (Angstroms)
    I     Atom           X                Y                Z
 ----------------------------------------------------------------
    1      O      -8.1405053517    -7.7071993083    -1.1267803402
    2      C      -8.7076872424    -8.8084959541    -1.8633646197
    3      H      -8.6897212534    -8.6280544385    -2.9446375190
    4      H      -9.6892302953    -9.1176678411    -1.4832541362
    5      H      -8.0623206809    -9.6641475694    -1.6285917197
    6      O      -6.4604813754    -7.3541825114    -2.7363183422
    7      C      -6.9923408989    -7.0924429857    -1.6452290389
    8      C      -6.3837497120    -6.0686710134    -0.5844007229
    9      H      -6.0358314358    -6.5026891825     0.3617256439
   10      H      -7.2396476543    -5.4004042360    -0.4297940392
   11      C      -5.2654033584    -5.2381476827    -1.2597713104
   12      H      -4.4451327940    -5.9059887303    -1.5499601047
   13      H      -5.6496924835    -4.7006855977    -2.1362879249
   14      C      -4.6972874415    -4.1977845852    -0.2621291249
   15      H      -5.4633249740    -3.7805604441     0.4034567184
   16      H      -3.9415575718    -4.6639474812     0.3810889706
   17      C      -4.0067190240    -2.9927890952    -0.8602621619
   18      C      -2.8897542786    -3.4593609407    -1.8238344065
   19      C      -3.0229014153    -3.4674859816    -3.2074076152
   20      H      -3.9639514958    -3.0585243198    -3.5637138109
   21      C      -2.0676595635    -4.0363814849    -4.0534997561
   22      H      -2.2108467063    -4.1414787910    -5.1248605722
   23      C      -0.9174128585    -4.5828569284    -3.5886222375
   24      H      -0.2617435534    -5.1322083790    -4.2577050021
   25      C      -0.6789449773    -4.4044811588    -2.2473246737
   26      H       0.2151304121    -4.9044138517    -1.8863655338
   27      C      -1.6910816068    -3.9674099500    -1.3915196716
   28      H      -1.5591723208    -3.9703755252    -0.3133600612
   29      C      -1.2523214690     1.5046105789     0.5483212683
   30      C      -1.9115958985     1.8976255940    -1.7242680973
   31      C      -4.9977768049     5.0779627755    -0.7811754056
   32      C      -5.3524094190     0.3832156254     3.3837688803
   33      C      -7.8291733444     2.9907082622    -1.0175146378
   34      C      -1.4638706582     0.9659052232    -0.7648342747
   35      C      -7.6205416454     1.7995228843     2.4514819332
   36      C      -2.8226728890     4.7082037960     0.1596222625
   37      C      -5.3723047570     0.0712886368    -2.5692139627
   38      C      -6.3130016972    -0.2899872536     2.6166232887
   39      C      -4.6915532881    -1.6870664913    -1.1321215227
   40      C      -6.4978718306    -0.2293973727    -1.8292270125
   41      C      -7.6278761545    -0.0608896609     0.7793828432
   42      C      -7.9430258644     2.7216307785     1.4109599681
   43      C      -3.0735755896    -0.0752394679    -2.0159556780
   44      C      -6.8036818177     4.7160431957     0.4687799145
   45      C      -3.8174372261    -1.7886673845     0.0693960047
   46      C      -4.4830726832    -1.4648569254     1.4262468531
   47      C      -7.0465853578     4.1776719362    -0.8122385307
   48      C      -4.0130312770     3.6553269043     3.2853820356
   49      C      -4.6493422552     5.1269103297     1.6139564282
   50      C      -3.3160691009     4.8587311758     1.4926484011
   51      C      -1.8688545672     3.7728701967    -0.1758515323
   52      C      -3.6119241507    -0.7508131402     2.2264353978
   53      C      -4.2924052799    -0.6741239996    -2.1486225685
   54      C      -2.1468246921     3.2994113281    -1.4418461253
   55      C      -7.4119699753     0.4454754013     2.1180358773
   56      C      -2.8470965348     1.2577389618    -2.4803485542
   57      C      -7.4803174341     0.7522519759    -1.4949065189
   58      C      -3.2437459477     1.3314396957     3.4118665169
   59      C      -3.6487747750     4.8687637802    -0.9879465439
   60      C      -6.1572012109    -1.1565919403    -0.8279144924
   61      C      -1.9954858874     2.9733509018     2.1225723637
   62      C      -8.0676709759     0.8481591751    -0.2208689896
   63      C      -5.2332130376     1.3345675294    -3.0722129023
   64      C      -6.3503540919     3.7394459258     2.6925051101
   65      C      -6.5957946447     2.4777948797     3.2179378582
   66      C      -6.2049882483     2.3326698839    -2.7452027654
   67      C      -4.0376652375     0.1628729148     3.1939747097
   68      C      -5.8900602054    -1.2202840181     1.6029618932
   69      C      -4.1936761361     2.3367793135     3.7187914100
   70      C      -2.6117756377    -0.9691121222     0.1539377485
   71      C      -4.1314252121     3.3488441313    -2.8003501459
   72      C      -6.6648972318    -1.0621098825     0.4405869428
   73      C      -7.3406993675     2.0684843071    -1.9497738026
   74      C      -2.1382369898     1.6336195208     2.6236671149
   75      C      -5.9410931234     4.4867078089    -1.6298996763
   76      C      -1.4416554201     2.8778977951     0.8422104938
   77      C      -5.4893343643     5.2535885075     0.5100692529
   78      C      -3.9320481132     1.9713835805    -3.1114067376
   79      C      -5.5143920930     3.5392887933    -2.5530862444
   80      C      -2.1398639075    -0.2709753490    -0.9679046490
   81      C      -2.4728184470    -0.4065364005     1.4364729162
   82      C      -5.1112202813     4.3780041561     2.6710624930
   83      C      -3.2428649197     4.0433945755    -2.0056242264
   84      C      -8.2088447120     2.1954862487     0.0963797028
   85      C      -5.4929545002     1.7385469130     3.6704310176
   86      C      -7.2206478503     3.9238233233     1.5936785772
   87      C      -1.7284779814     0.7598135623     1.6254333236
   88      C      -2.8993303249     3.9457664641     2.4943440773
   89      O       5.2418500538     7.2338125808    -1.8198319478
   90      C       4.9907470625     7.9994047549    -3.0342836392
   91      H       4.8516522174     9.0476261205    -2.7428894170
   92      H       4.0866036877     7.6204442650    -3.5273654831
   93      H       5.8386917516     7.9360369079    -3.7281880419
   94      O       3.1296645518     7.4064485220    -0.9129635798
   95      C       4.2664491802     6.9173838478    -0.9332971246
   96      C       4.8542785589     5.9265628005     0.1084284984
   97      H       3.9453589459     5.5778595701     0.6143209713
   98      H       5.4057148968     6.5608910437     0.8127236391
   99      C       5.7494895045     4.7650514925    -0.4133107509
  100      H       6.6621673590     5.2501338287    -0.7822812930
  101      H       5.9818815369     4.2188637659     0.5093917530
  102      C       5.1139393413     3.8131450864    -1.4687027085
  103      H       4.0588785089     3.6547729158    -1.2177726478
  104      H       5.0650277411     4.3223946546    -2.4394104568
  105      C       5.8919522334     2.4865537467    -1.4838472486
  106      C       7.2414702633     2.6200233131    -2.1326715404
  107      C       7.4405120107     2.3144983604    -3.4771955775
  108      H       6.5916239101     2.0038696593    -4.0786361835
  109      C       8.7159412007     2.3398616190    -3.9899431630
  110      H       8.9072115832     1.8825528991    -4.9559935631
  111      C       9.8298112791     2.8197871150    -3.2130113987
  112      H      10.7865936356     2.9033678303    -3.7193618567
  113      C       9.6144034124     3.2138585013    -1.9208484084
  114      H      10.4379826632     3.6841606932    -1.3923107410
  115      C       8.3407101232     3.0185485032    -1.3343167300
  116      H       8.1991079202     3.2592036755    -0.2853186823
  117      C       5.6890195896    -3.0000221454    -2.0452475716
  118      C       7.3946477760    -2.6841491237    -0.2569923539
  119      C       4.7168453754    -4.1884058586     3.1041639916
  120      C       1.3737581847    -0.5810119186    -0.9913379310
  121      C       3.8011913263    -1.0094214238     4.1106075449
  122      C       6.7433421956    -2.2278014102    -1.3952945130
  123      C       1.0600254788    -0.6148249964     1.7653021371
  124      C       4.9896470000    -5.0385747416     0.8681673136
  125      C       6.4714518110     0.6891032385     1.7106650632
  126      C       1.8006390843     0.4895235181    -0.1995143545
  127      C       5.7881826351     1.6811367066    -0.2949577407
  128      C       5.3534465188     1.4258989160     2.0711054832
  129      C       2.6382356947     1.3096564209     1.7218879823
  130      C       1.6492866301    -1.0247059737     2.9385518463
  131      C       7.3117689395    -0.3916161313    -0.2830226674
  132      C       2.7673279961    -3.1191935586     3.4655198347
  133      C       5.1977921722     1.1798796134    -1.6032227856
  134      C       3.7188478255     0.9666820770    -1.6728031704
  135      C       3.8418817189    -2.4237199001     4.0558525266
  136      C       1.9125077724    -3.9401964799    -0.2500627021
  137      C       2.7566888093    -4.6255941451     1.6390231661
  138      C       3.5896318870    -5.0646151081     0.6570759051
  139      C       5.8302845277    -4.6125451936    -0.1838471213
  140      C       3.4454038016    -0.2451469479    -2.3030029642
  141      C       6.7787621677     0.7692278332     0.3151671614
  142      C       6.9171749241    -3.8798985046     0.3323777283
  143      C       1.6318840357     0.5129374741     1.1855818588
  144      C       7.6886006124    -1.5110212085     0.5001626002
  145      C       4.5905867752     0.9870558407     3.1751144355
  146      C       2.3146515912    -2.3454560953    -2.0489755556
  147      C       5.5374283527    -4.5926015925     2.0795502176
  148      C       4.8269043274     1.8545146312     0.8365015429
  149      C       3.8823900114    -4.1554498044    -1.5896891318
  150      C       3.2423142337     0.8397666165     2.9232870378
  151      C       6.8505428473    -0.4821518632     2.4911171584
  152      C       1.1071500839    -2.9075675692     1.6914796039
  153      C       0.7260355680    -1.7910376590     0.9962510908
  154      C       6.1277471666    -0.9539050625     3.5160641438
  155      C       2.2699815919    -0.9251213841    -1.9894532951
  156      C       2.9460221999     1.2604928512    -0.5360983796
  157      C       1.5382670828    -2.8152635157    -1.0038927442
  158      C       5.7263116254    -0.1707870406    -2.1479316781
  159      C       7.0690751686    -2.7797903204     2.4981984270
  160      C       3.4313841493     1.7918599864     0.6830745965
  161      C       4.9431880569    -0.2097675183     3.8351441195
  162      C       3.4656749333    -3.0755048249    -2.3666925971
  163      C       5.0344841563    -3.0655375233     3.8102704329
  164      C       5.2808852138    -4.1359336097    -1.3852403925
  165      C       3.3367282963    -4.2446273995     2.8692363721
  166      C       7.5163331923    -1.5780728127     1.9100306857
  167      C       6.2201693825    -2.3340053512     3.5427910402
  168      C       6.7635784236    -0.8461975765    -1.4536412509
  169      C       4.5893243291    -0.9382690279    -2.5924362194
  170      C       1.6429010518    -4.0186116191     1.1288065020
  171      C       6.6982581065    -3.8590658638     1.7447344212
  172      C       2.7212967009    -0.3329650023     3.5591763998
  173      C       0.8998631954    -1.7496395573    -0.3917889494
  174      C       1.6666344188    -2.4159078420     2.9019811494
  175      C       4.6092548487    -2.3413970573    -2.6388097822
  176      C       3.0727097427    -4.5729666319    -0.5272256918
 ----------------------------------------------------------------

    9   -5804.2523464496      9.79E-06 Convergence criterion met
 Total energy in the final basis set = -5804.2523464496

                    Orbital Energies (a.u.)
 --------------------------------------------------------------

 Alpha MOs
 -- Occupied --
-19.194 -19.194 -19.147 -19.136 -10.329 -10.320 -10.252 -10.245
-10.244 -10.242 -10.241 -10.238 -10.237 -10.236 -10.232 -10.231
-10.230 -10.230 -10.229 -10.225 -10.224 -10.222 -10.222 -10.222
-10.222 -10.220 -10.220 -10.219 -10.218 -10.218 -10.218 -10.218
-10.218 -10.218 -10.218 -10.218 -10.217 -10.217 -10.217 -10.217
-10.217 -10.217 -10.217 -10.216 -10.216 -10.216 -10.216 -10.216
-10.215 -10.215 -10.215 -10.215 -10.215 -10.214 -10.214 -10.214
-10.214 -10.214 -10.213 -10.213 -10.213 -10.213 -10.213 -10.213
-10.213 -10.213 -10.213 -10.213 -10.213 -10.212 -10.212 -10.212
-10.212 -10.212 -10.212 -10.212 -10.212 -10.212 -10.212 -10.212
-10.211 -10.211 -10.211 -10.211 -10.211 -10.211 -10.211 -10.211
-10.211 -10.211 -10.211 -10.211 -10.211 -10.211 -10.211 -10.210
-10.210 -10.210 -10.210 -10.210 -10.210 -10.210 -10.210 -10.210
-10.210 -10.210 -10.210 -10.210 -10.210 -10.209 -10.209 -10.209
-10.209 -10.209 -10.208 -10.208 -10.208 -10.208 -10.208 -10.207
-10.207 -10.207 -10.207 -10.206 -10.206 -10.206 -10.206 -10.206
-10.206 -10.206 -10.205 -10.205 -10.205 -10.204 -10.202 -10.202
-10.202 -10.201 -10.200 -10.199 -10.199 -10.198 -10.195 -10.193
-10.192 -10.188 -10.188 -10.187  -1.088  -1.080  -1.007  -1.002
 -0.988  -0.979  -0.973  -0.967  -0.963  -0.962  -0.958  -0.955
 -0.944  -0.932  -0.930  -0.928  -0.926  -0.923  -0.923  -0.918
 -0.918  -0.917  -0.903  -0.894  -0.893  -0.889  -0.885  -0.880
 -0.879  -0.874  -0.861  -0.857  -0.843  -0.841  -0.839  -0.837
 -0.835  -0.832  -0.824  -0.823  -0.805  -0.803  -0.800  -0.797
 -0.797  -0.793  -0.793  -0.792  -0.789  -0.787  -0.785  -0.781
 -0.772  -0.771  -0.770  -0.768  -0.768  -0.765  -0.764  -0.764
 -0.754  -0.744  -0.743  -0.743  -0.736  -0.732  -0.718  -0.717
 -0.714  -0.713  -0.711  -0.711  -0.710  -0.709  -0.708  -0.707
 -0.707  -0.706  -0.704  -0.704  -0.703  -0.702  -0.676  -0.669
 -0.661  -0.659  -0.657  -0.654  -0.649  -0.643  -0.635  -0.629
 -0.628  -0.627  -0.623  -0.622  -0.621  -0.619  -0.618  -0.616
 -0.616  -0.615  -0.614  -0.613  -0.611  -0.610  -0.610  -0.607
 -0.606  -0.605  -0.602  -0.598  -0.568  -0.565  -0.562  -0.561
 -0.561  -0.560  -0.560  -0.558  -0.555  -0.555  -0.555  -0.550
 -0.539  -0.537  -0.535  -0.533  -0.529  -0.525  -0.525  -0.523
 -0.523  -0.522  -0.519  -0.517  -0.516  -0.514  -0.511  -0.511
 -0.507  -0.506  -0.495  -0.495  -0.493  -0.493  -0.488  -0.486
 -0.486  -0.483  -0.482  -0.480  -0.479  -0.478  -0.477  -0.474
 -0.472  -0.471  -0.470  -0.469  -0.468  -0.467  -0.467  -0.465
 -0.464  -0.463  -0.462  -0.460  -0.459  -0.459  -0.458  -0.457
 -0.457  -0.456  -0.455  -0.453  -0.452  -0.446  -0.446  -0.445
 -0.442  -0.441  -0.441  -0.438  -0.438  -0.435  -0.434  -0.432
 -0.431  -0.431  -0.428  -0.428  -0.428  -0.426  -0.424  -0.423
 -0.422  -0.422  -0.420  -0.420  -0.419  -0.418  -0.417  -0.416
 -0.415  -0.415  -0.414  -0.413  -0.412  -0.411  -0.411  -0.410
 -0.410  -0.408  -0.406  -0.404  -0.402  -0.401  -0.400  -0.396
 -0.394  -0.392  -0.391  -0.389  -0.388  -0.386  -0.383  -0.382
 -0.381  -0.376  -0.375  -0.374  -0.372  -0.370  -0.369  -0.366
 -0.364  -0.363  -0.363  -0.362  -0.361  -0.360  -0.359  -0.359
 -0.356  -0.356  -0.356  -0.354  -0.353  -0.351  -0.350  -0.349
 -0.349  -0.347  -0.347  -0.345  -0.344  -0.343  -0.343  -0.342
 -0.341  -0.341  -0.340  -0.339  -0.337  -0.336  -0.334  -0.333
 -0.332  -0.331  -0.330  -0.328  -0.327  -0.327  -0.324  -0.321
 -0.319  -0.311  -0.299  -0.297  -0.287  -0.286  -0.274  -0.272
 -0.271  -0.269  -0.267  -0.267  -0.266  -0.264  -0.263  -0.262
 -0.261  -0.260  -0.260  -0.258  -0.257  -0.255  -0.253  -0.252
 -0.250  -0.248  -0.246  -0.243  -0.221  -0.220  -0.211  -0.210
 -0.207  -0.205  -0.204  -0.203  -0.199  -0.197

          Ground-State Mulliken Net Atomic Charges

     Atom                 Charge (a.u.)
  ----------------------------------------
      1 O                    -0.476500
      2 C                    -0.088120
      3 H                     0.139298
      4 H                     0.125734
      5 H                     0.122056
      6 O                    -0.464901
      7 C                     0.595025
      8 C                    -0.266920
      9 H                     0.137300
     10 H                     0.137261
     11 C                    -0.166746
     12 H                     0.131919
     13 H                     0.115284
     14 C                    -0.180461
     15 H                     0.099969
     16 H                     0.109721
     17 C                    -0.000857
     18 C                     0.116076
     19 C                    -0.115449
     20 H                     0.083348
     21 C                    -0.081049
     22 H                     0.085577
     23 C                    -0.081926
     24 H                     0.096206
     25 C                    -0.085756
     26 H                     0.090027
     27 C                    -0.131166
     28 H                     0.081380
     29 C                    -0.006331
     30 C                     0.001443
     31 C                    -0.002669
     32 C                     0.021274
     33 C                    -0.017488
     34 C                    -0.015402
     35 C                    -0.028970
     36 C                     0.000617
     37 C                     0.028504
     38 C                    -0.014564
     39 C                    -0.096977
     40 C                     0.014625
     41 C                    -0.036742
     42 C                     0.002846
     43 C                     0.032393
     44 C                    -0.028619
     45 C                    -0.084279
     46 C                     0.026504
     47 C                     0.009637
     48 C                    -0.024557
     49 C                     0.026849
     50 C                    -0.009410
     51 C                    -0.009034
     52 C                     0.004596
     53 C                     0.032679
     54 C                    -0.007087
     55 C                     0.029062
     56 C                     0.000915
     57 C                    -0.006556
     58 C                     0.006744
     59 C                     0.006304
     60 C                     0.026636
     61 C                     0.021250
     62 C                    -0.006001
     63 C                    -0.027691
     64 C                     0.032468
     65 C                    -0.012338
     66 C                     0.012323
     67 C                    -0.006421
     68 C                    -0.034849
     69 C                     0.001129
     70 C                     0.043717
     71 C                     0.001954
     72 C                     0.020526
     73 C                    -0.002145
     74 C                    -0.031529
     75 C                    -0.003023
     76 C                    -0.003097
     77 C                     0.014214
     78 C                    -0.033123
     79 C                     0.003943
     80 C                    -0.015569
     81 C                     0.015435
     82 C                    -0.004885
     83 C                     0.001034
     84 C                     0.004658
     85 C                    -0.007970
     86 C                    -0.015145
     87 C                     0.015355
     88 C                     0.001615
     89 O                    -0.459969
     90 C                    -0.085710
     91 H                     0.133125
     92 H                     0.133044
     93 H                     0.128887
     94 O                    -0.479494
     95 C                     0.584221
     96 C                    -0.270890
     97 H                     0.132169
     98 H                     0.134696
     99 C                    -0.181295
    100 H                     0.127131
    101 H                     0.105214
    102 C                    -0.185053
    103 H                     0.115568
    104 H                     0.116515
    105 C                     0.009176
    106 C                     0.090510
    107 C                    -0.093540
    108 H                     0.093068
    109 C                    -0.102681
    110 H                     0.090843
    111 C                    -0.080389
    112 H                     0.091563
    113 C                    -0.091158
    114 H                     0.092096
    115 C                    -0.109018
    116 H                     0.092247
    117 C                     0.001063
    118 C                    -0.002051
    119 C                    -0.006843
    120 C                    -0.002050
    121 C                    -0.011321
    122 C                    -0.004969
    123 C                    -0.002096
    124 C                    -0.003334
    125 C                     0.007231
    126 C                     0.005987
    127 C                    -0.051825
    128 C                     0.002725
    129 C                    -0.017525
    130 C                    -0.009262
    131 C                     0.005287
    132 C                    -0.008690
    133 C                    -0.120850
    134 C                     0.010027
    135 C                     0.001700
    136 C                    -0.002948
    137 C                     0.022649
    138 C                    -0.020926
    139 C                     0.005997
    140 C                     0.018970
    141 C                     0.039939
    142 C                    -0.017072
    143 C                     0.023625
    144 C                    -0.014297
    145 C                    -0.023743
    146 C                    -0.000519
    147 C                     0.005981
    148 C                     0.036935
    149 C                    -0.005068
    150 C                     0.000913
    151 C                     0.020851
    152 C                     0.008775
    153 C                     0.006237
    154 C                     0.012001
    155 C                    -0.014058
    156 C                     0.019328
    157 C                     0.012376
    158 C                     0.007528
    159 C                    -0.001843
    160 C                    -0.035159
    161 C                    -0.008973
    162 C                    -0.018771
    163 C                     0.014203
    164 C                     0.005484
    165 C                    -0.004682
    166 C                    -0.039674
    167 C                    -0.013185
    168 C                     0.015888
    169 C                     0.033822
    170 C                    -0.015772
    171 C                     0.015548
    172 C                     0.009656
    173 C                     0.002334
    174 C                    -0.012681
    175 C                    -0.017951
    176 C                     0.009096
  ----------------------------------------
  Sum of atomic charges =     0.000000

                    Cartesian Multipole Moments
 -----------------------------------------------------------------
    Charge (ESU x 10^10)
                 0.0000
    Dipole Moment (Debye)
         X       3.1876      Y      -1.1474      Z      -1.6917
       Tot       3.7867
    Quadrupole Moments (Debye-Ang)
        XX    -771.9384     XY      51.1079     YY    -791.2398
        XZ     -17.0481     YZ     -14.9121     ZZ    -801.4788

 Total job time:  870.65s(wall), 8312.19s(cpu)
        *  Thank you very much for using Q-Chem.  Have a nice day.  *
