 Q-Chem 4.4, Q-Chem, Inc., Pleasanton, CA (2016)
 Q-Chem 4.4.2 for Intel X86 Linux

User input:
--------------------------------------------------------------
$comment
SP
$end

$rem
MEM_STATIC 5000
MEM_TOTAL 20000
JOBTYPE SP
EXCHANGE B3LYP
BASIS 6-31g(d,p)
$end

$molecule
0 1
O         -19.233000     -5.232000     11.570000
C         -20.647000     -4.846000     11.346000
H         -20.549000     -3.798000     11.036000
H         -21.268000     -4.886000     12.250000
H         -20.930000     -5.450000     10.476000
O         -19.620000     -7.107000     12.870000
C         -18.865000     -6.323000     12.266000
C         -17.343000     -6.549000     12.247000
H         -17.046000     -7.332000     12.955000
H         -16.871000     -5.566000     12.369000
C         -17.005000     -6.985000     10.822000
H         -17.440000     -6.244000     10.141000
H         -15.918000     -7.038000     10.676000
C         -17.469000     -8.451000     10.572000
H         -16.666000     -9.074000     10.986000
H         -18.364000     -8.658000     11.172000
C         -17.536000     -8.848000      9.135000
C         -18.719000     -8.105000      8.472000
C         -18.427000     -6.967000      7.677000
H         -17.388000     -6.702000      7.505000
C         -19.494000     -6.252000      7.144000
H         -19.235000     -5.323000      6.647000
C         -20.803000     -6.661000      7.393000
H         -21.611000     -6.077000      6.963000
C         -21.120000     -7.801000      8.178000
H         -22.148000     -8.151000      8.166000
C         -20.021000     -8.508000      8.661000
H         -20.270000     -9.374000      9.268000
C         -17.782000    -12.912000      5.490000
C         -16.534000    -11.111000      4.353000
C         -12.412000    -13.189000      4.377000
C         -15.441000    -13.876000      9.877000
C         -11.289000    -11.312000      7.045000
C         -17.474000    -11.525000      5.227000
C         -12.660000    -13.497000      9.644000
C         -14.665000    -14.170000      3.918000
C         -14.461000     -8.819000      6.837000
C         -14.873000    -12.700000     10.427000
C         -16.188000     -9.151000      8.533000
C         -13.853000     -9.100000      8.087000
C         -13.291000    -11.201000      9.949000
C         -11.738000    -13.092000      8.713000
C         -16.629000     -9.529000      5.967000
C         -11.555000    -13.615000      6.326000
C         -17.199000    -10.277000      8.707000
C         -16.842000    -11.387000      9.671000
C         -11.301000    -12.307000      6.049000
C         -14.805000    -15.840000      7.090000
C         -13.195000    -15.185000      5.586000
C         -14.444000    -15.168000      4.900000
C         -15.901000    -13.438000      3.981000
C         -17.332000    -12.618000      9.096000
C         -15.875000     -8.891000      7.056000
C         -15.707000    -12.080000      3.734000
C         -13.494000    -12.511000     10.221000
C         -15.920000     -9.912000      4.825000
C         -12.586000     -9.778000      8.106000
C         -16.691000    -14.863000      8.209000
C         -13.663000    -13.161000      3.685000
C         -14.791000     -9.419000      9.115000
C         -16.642000    -14.783000      5.832000
C         -12.263000    -10.796000      9.072000
C         -13.796000     -9.146000      5.623000
C         -12.681000    -15.063000      7.923000
C         -13.270000    -14.729000      9.184000
C         -12.491000     -9.752000      5.680000
C         -16.640000    -13.839000      9.249000
C         -15.529000    -11.499000     10.212000
C         -15.482000    -15.504000      8.276000
C         -17.869000    -10.953000      7.617000
C         -13.733000    -10.741000      3.976000
C         -14.558000    -10.523000      9.958000
C         -11.895000    -10.051000      6.939000
C         -17.296000    -14.491000      6.995000
C         -11.822000    -12.009000      4.779000
C         -16.931000    -13.816000      4.851000
C         -12.219000    -14.210000      5.304000
C         -14.525000     -9.750000      4.596000
C         -12.480000    -10.775000      4.631000
C         -17.535000    -10.557000      6.263000
C         -17.995000    -12.316000      7.913000
C         -13.416000    -15.662000      6.920000
C         -14.346000    -11.927000      3.614000
C         -11.510000    -11.755000      8.389000
C         -14.706000    -14.913000      9.303000
C         -11.708000    -14.082000      7.644000
C         -17.918000    -13.257000      6.872000
C         -15.389000    -15.448000      5.883000
O         -16.707000    -17.856000      2.477000
C         -15.293000    -17.479000      2.218000
H         -14.748000    -18.196000      1.591000
H         -14.760000    -17.410000      3.174000
H         -15.301000    -16.504000      1.717000
O         -17.560000    -16.113000      1.220000
C         -17.707000    -17.077000      1.958000
C         -19.065000    -17.520000      2.486000
H         -19.104000    -18.611000      2.375000
H         -19.770000    -16.981000      1.841000
C         -19.303000    -17.152000      3.932000
H         -18.363000    -17.225000      4.493000
H         -19.547000    -16.084000      3.876000
C         -20.360000    -18.026000      4.576000
H         -21.373000    -17.804000      4.219000
H         -20.140000    -19.067000      4.308000
C         -20.349000    -17.830000      6.081000
C         -19.349000    -18.746000      6.646000
C         -18.178000    -18.129000      7.023000
H         -17.948000    -17.107000      6.738000
C         -17.101000    -18.837000      7.607000
H         -16.129000    -18.425000      7.861000
C         -17.408000    -20.125000      8.019000
H         -16.656000    -20.754000      8.485000
C         -18.584000    -20.805000      7.642000
H         -18.826000    -21.782000      8.050000
C         -19.536000    -20.132000      6.951000
H         -20.454000    -20.677000      6.749000
C         -23.455000    -18.340000     10.683000
C         -21.695000    -16.869000     11.318000
C         -24.278000    -12.994000     11.685000
C         -25.879000    -16.540000      6.623000
C         -23.270000    -11.946000      8.477000
C         -22.126000    -17.918000     10.550000
C         -25.812000    -13.767000      6.629000
C         -24.745000    -15.296000     12.247000
C         -20.385000    -14.704000      8.133000
C         -24.876000    -15.893000      5.851000
C         -20.850000    -16.578000      6.792000
C         -21.061000    -14.205000      7.004000
C         -23.565000    -14.096000      5.768000
C         -25.341000    -12.702000      7.319000
C         -20.683000    -16.771000      9.285000
C         -25.265000    -12.348000      9.708000
C         -21.747000    -17.796000      6.779000
C         -23.154000    -17.610000      6.285000
C         -23.914000    -11.930000      9.667000
C         -27.128000    -15.917000      9.758000
C         -26.399000    -14.084000     10.979000
C         -26.030000    -15.254000     11.645000
C         -23.953000    -16.486000     12.167000
C         -24.146000    -18.280000      7.114000
C         -20.407000    -16.099000      8.111000
C         -22.603000    -16.153000     12.135000
C         -24.843000    -14.510000      5.905000
C         -20.840000    -16.180000     10.520000
C         -21.824000    -13.042000      7.123000
C         -26.125000    -17.714000      8.479000
C         -23.882000    -14.211000     12.306000
C         -21.486000    -15.293000      6.145000
C         -25.654000    -17.529000     10.842000
C         -23.087000    -12.991000      6.449000
C         -20.536000    -14.062000      9.354000
C         -26.888000    -13.668000      8.610000
C         -26.735000    -14.406000      7.443000
C         -21.330000    -12.868000      9.413000
C         -25.497000    -17.711000      7.220000
C         -23.570000    -16.367000      5.729000
C         -26.956000    -16.606000      8.539000
C         -22.116000    -18.383000      8.122000
C         -21.646000    -14.079000     11.366000
C         -22.787000    -15.229000      5.691000
C         -21.982000    -12.377000      8.307000
C         -25.484000    -18.188000      9.597000
C         -23.314000    -12.340000     10.876000
C         -24.377000    -17.585000     11.415000
C         -25.492000    -12.959000     10.951000
C         -20.731000    -14.772000     10.583000
C         -22.027000    -12.883000     10.678000
C         -21.482000    -17.954000      9.307000
C         -23.464000    -18.709000      8.253000
C         -27.105000    -14.495000      9.770000
C         -22.582000    -14.766000     12.147000
C         -23.985000    -12.325000      7.333000
C         -26.789000    -15.831000      7.377000
C         -26.007000    -12.667000      8.549000
C         -24.151000    -18.644000      9.526000
C         -26.527000    -16.383000     10.938000
$end

--------------------------------------------------------------

             Standard Nuclear Orientation (Angstroms)
    I     Atom           X                Y                Z
 ----------------------------------------------------------------
    1      O       2.5145295632    -8.7525407043    -0.0026348493
    2      C       1.4337244751    -9.3622138745     0.8089851277
    3      H       1.9936469140   -10.0616540205     1.4424504738
    4      H       0.7029102545    -9.9320837701     0.2210940859
    5      H       1.0875022138    -8.5233349438     1.4239788557
    6      O       1.1938533873    -7.9147975085    -1.7083296568
    7      C       2.2906841571    -8.0709501925    -1.1408126072
    8      C       3.5744387896    -7.4490268818    -1.7179663469
    9      H       3.4075255055    -7.0498780453    -2.7256280768
   10      H       4.3708860428    -8.1955001698    -1.6065823122
   11      C       3.9500573627    -6.3131006480    -0.7674153072
   12      H       3.9712783898    -6.7285345203     0.2469965252
   13      H       4.9329676001    -5.8963562526    -1.0241361168
   14      C       2.9900535593    -5.1005747493    -0.9548336691
   15      H       3.3933007751    -4.5539442578    -1.8167621979
   16      H       1.9981402125    -5.4628920343    -1.2526727153
   17      C       3.0185666964    -4.1043924168     0.1559654854
   18      C       2.3638491774    -4.7386100866     1.4050531195
   19      C       3.2178805492    -5.2282912213     2.4264129007
   20      H       4.2889679558    -5.0778386697     2.3291205726
   21      C       2.6340810635    -5.8686588677     3.5140297624
   22      H       3.3236825946    -6.3349702652     4.2098274405
   23      C       1.2491050625    -6.0108987061     3.5801531693
   24      H       0.8285416477    -6.5187767395     4.4427111775
   25      C       0.3734817730    -5.5217617573     2.5749950224
   26      H      -0.6899596883    -5.5106978488     2.7949901322
   27      C       0.9978985520    -4.8553573110     1.5228791542
   28      H       0.3235178707    -4.4911477229     0.7528349525
   29      C       1.8021912597     0.9514315017     1.8357608008
   30      C       3.8406821335     0.3379266813     3.0855771043
   31      C       6.7193310108     3.2092610591     0.8996302769
   32      C       2.7706533669     0.3211072784    -3.0957824181
   33      C       8.0207213768     0.6872004877    -1.0620209636
   34      C       2.6784607503     0.0053834428     2.4876402760
   35      C       5.4665648996     0.8911726553    -3.6780001387
   36      C       4.3777365971     3.6178358486     1.6736155760
   37      C       6.1949458662    -2.1779179301     1.1237368539
   38      C       3.6569321379    -0.7632321184    -3.3121571225
   39      C       4.2152221683    -3.1893744175     0.1104161472
   40      C       6.4152084102    -2.3686993248    -0.2641434980
   41      C       5.7622571153    -1.3452144819    -2.8570612335
   42      C       6.6187933785     1.2533240480    -3.0283187544
   43      C       4.1088072418    -1.7761736903     2.3270037426
   44      C       6.9856605308     2.8763012747    -1.2293911811
   45      C       2.8253364357    -2.6147167014    -0.1309531952
   46      C       2.5378763034    -2.0478494455    -1.5038600334
   47      C       7.7841747449     1.9877607487    -0.5774864461
   48      C       3.0391495332     3.4627914029    -1.6511746268
   49      C       5.0093865974     4.0808291283    -0.6415527765
   50      C       4.0094038626     4.0447892360     0.3731499664
   51      C       3.5459484473     2.6326085415     2.3099681726
   52      C       1.7041925482    -0.8839868853    -1.3128591504
   53      C       4.8550859115    -2.6162888237     1.3789764699
   54      C       4.3052219154     1.6713556738     2.9750288654
   55      C       5.0097350531    -0.4384072643    -3.5224214486
   56      C       4.7909926689    -0.7156641439     2.9298939026
   57      C       7.2823563219    -1.4588893227    -0.9610181347
   58      C       1.5380285984     1.5895416961    -1.6157137346
   59      C       5.7229704180     3.1663418482     1.9243607345
   60      C       5.2662034137    -2.8532034727    -0.9594364210
   61      C       2.0231851851     2.6673715814     0.4487076916
   62      C       7.0006540818    -0.9792005683    -2.2893070893
   63      C       6.8722496501    -1.1421364683     1.8247121371
   64      C       5.1187734901     3.0104908208    -2.7823608984
   65      C       4.5046193995     1.9676984310    -3.5465577217
   66      C       7.7958188392    -0.2998739982     1.1097828507
   67      C       1.8137008897     0.2547291390    -2.1401727180
   68      C       3.5825324293    -1.8457289677    -2.4509792926
   69      C       2.3594500462     2.4294778576    -2.3205719114
   70      C       2.1397113595    -1.7190055828     0.7754660493
   71      C       6.5757962703     0.9895870518     2.6174751708
   72      C       4.8902902397    -2.2683460396    -2.1843384859
   73      C       7.9965406386    -0.4832672824    -0.2887076436
   74      C       1.3505949073     1.6881186760    -0.2252619409
   75      C       7.6524909691     2.1981326258     0.8051010038
   76      C       2.3177321732     2.2468437143     1.7591921000
   77      C       6.3260671531     3.6737618833    -0.3528079541
   78      C       6.1513862828    -0.3529119103     2.7238598462
   79      C       7.5779310366     1.0556726330     1.6217098338
   80      C       2.8316031846    -1.3120372238     1.9826737601
   81      C       1.4312488450    -0.7579351568     0.0435606580
   82      C       4.3903718254     3.7824529779    -1.9000115103
   83      C       5.6126436643     1.9802772728     2.6828888028
   84      C       7.4135567408     0.3557034888    -2.3161688195
   85      C       3.1174520082     1.6642022066    -3.2403393839
   86      C       6.4346308844     2.5961545679    -2.4929204255
   87      C       1.3041534543     0.5438016760     0.5577775186
   88      C       2.8774064802     3.5472088440    -0.2661540925
   89      O       1.3154656742     6.8089848483     2.1950615048
   90      C       2.7839514615     7.0119523949     2.0903730740
   91      H       3.0964891062     8.0603415129     2.1766486657
   92      H       3.1269725878     6.6481628150     1.1142687515
   93      H       3.2521457613     6.4347275478     2.8961618637
   94      O       1.4593254663     5.7151721902     4.2269535367
   95      C       0.8151418021     6.1272473820     3.2726105988
   96      C      -0.6755516807     5.8669691106     3.1014815191
   97      H      -1.1270465028     6.8190293217     2.7951209799
   98      H      -0.9843137694     5.5276387122     4.0980214598
   99      C      -0.9918681832     4.8056592296     2.0735957245
  100      H      -0.2710061022     4.8617331613     1.2484511467
  101      H      -0.7756782698     3.8733355684     2.6096279176
  102      C      -2.4034841591     4.9336587647     1.5380423140
  103      H      -3.1657249077     4.6358771612     2.2682595130
  104      H      -2.5747487353     5.9909166838     1.2997585807
  105      C      -2.5743630656     4.0571868701     0.3107854471
  106      C      -2.1366399938     4.8313257345    -0.8585684476
  107      C      -0.9006594593     4.4637418282    -1.3394979541
  108      H      -0.2365401780     3.8109001133    -0.7815084601
  109      C      -0.3138374344     5.0767938626    -2.4717771221
  110      H       0.6822690210     4.8832591314    -2.8582486442
  111      C      -1.1753339846     5.8696442080    -3.2148444298
  112      H      -0.8293611180     6.3823205077    -4.1069020441
  113      C      -2.4409640785     6.2883893021    -2.7562182076
  114      H      -3.1190975463     6.8418261169    -3.3991798642
  115      C      -2.9107677714     5.7902935251    -1.5866460264
  116      H      -3.9202793624     6.0850940524    -1.3136405382
  117      C      -6.3671847977     1.4271506450    -2.8170177378
  118      C      -4.3042854562     0.3886229072    -3.3919720352
  119      C      -5.1469470456    -3.7387214187    -1.3727758434
  120      C      -7.1329824992     1.1813569099     2.1782315373
  121      C      -3.2687278362    -2.8056614710     1.4569456509
  122      C      -4.9789723528     1.5089326919    -2.9849221885
  123      C      -5.9668251518    -1.1160824465     3.2058031625
  124      C      -6.5830942871    -2.2159572588    -2.5776855554
  125      C      -1.7121938019     0.4631285286    -0.2577959444
  126      C      -5.8385763444     1.2885657935     2.7558308464
  127      C      -2.6481850430     2.5347983128     0.3409416458
  128      C      -1.9275057517     0.3955246987     1.1313363339
  129      C      -3.9263446794     0.1945015702     3.0739700211
  130      C      -5.2363040811    -2.2014770607     2.8587822744
  131      C      -3.0038834184     1.5562683230    -1.9385637227
  132      C      -5.4377202772    -3.6122119291     0.9074566616
  133      C      -3.9399421391     3.3069569263     0.1878512146
  134      C      -5.0478050958     2.9945353580     1.1539326981
  135      C      -4.0471252716    -3.5647299981     0.6513375554
  136      C      -8.5486951075    -1.1781309844     0.1276390164
  137      C      -7.3706615061    -3.0848993468    -0.4712284533
  138      C      -7.6199762196    -2.3228543141    -1.6139211249
  139      C      -6.3310528631    -0.9643661616    -3.2255735442
  140      C      -6.3512953430     2.8824613644     0.5147475954
  141      C      -2.2850385146     1.6311849615    -0.7622621025
  142      C      -4.9768353835    -0.8505370961    -3.5214636619
  143      C      -5.2661223973     0.1183621834     3.2244607529
  144      C      -3.1219269828     0.4319007698    -2.7266108799
  145      C      -2.1709194110    -0.8440121907     1.7256402042
  146      C      -8.1425606858     1.2091031750     0.2126501908
  147      C      -5.3829613322    -2.9085309300    -2.5035397484
  148      C      -2.5966944534     1.5933366136     1.6000399693
  149      C      -8.0512271534     0.0618506786    -1.9122744892
  150      C      -3.1720044370    -0.9180278420     2.7475973726
  151      C      -1.8020675715    -0.6954500989    -1.0163631922
  152      C      -7.2372821441    -2.4411712395     1.8935468150
  153      C      -7.1932195839    -1.2276423704     2.5683417282
  154      C      -2.0506993351    -1.9409444950    -0.3481723846
  155      C      -7.3591134329     1.9806888304     1.0903403288
  156      C      -4.8306114538     2.1061541181     2.2451919223
  157      C      -8.4590134070     0.0245590434     0.8595952237
  158      C      -4.7376995202     3.0547977756    -1.0708695342
  159      C      -3.1547815201    -1.9479989770    -2.3881573755
  160      C      -3.6646760800     1.3932120003     2.4498507625
  161      C      -2.2515488579    -2.0061258563     1.0100734913
  162      C      -7.9468972910     1.2513267890    -1.1458099678
  163      C      -3.8785017911    -3.6306221985    -0.7475925143
  164      C      -7.0221469848     0.1919935059    -2.8536834603
  165      C      -6.0999634105    -3.7571817173    -0.3214928055
  166      C      -2.4725985699    -0.7422502998    -2.2815761866
  167      C      -2.9021095474    -2.7246122872    -1.2125938337
  168      C      -4.1994363629     2.3099012266    -2.1412077540
  169      C      -6.1043602360     2.8885856483    -0.8583771426
  170      C      -7.9624516244    -2.3636745847     0.6506705165
  171      C      -4.4063634214    -2.0074409604    -3.0110822465
  172      C      -3.8670372272    -2.1445657878     2.5379546103
  173      C      -7.7992850010    -0.0225477458     2.1010852079
  174      C      -6.0338147579    -3.0015602453     2.0332372314
  175      C      -6.9162092044     2.0371629955    -1.7025949574
  176      C      -8.3965325264    -1.1832312706    -1.2679173372
 ----------------------------------------------------------------

    9   -5804.2376820180      8.89E-06 Convergence criterion met
 Total energy in the final basis set = -5804.2376820180

                    Orbital Energies (a.u.)
 --------------------------------------------------------------

 Alpha MOs
 -- Occupied --
-19.196 -19.191 -19.133 -19.128 -10.316 -10.314 -10.255 -10.252
-10.247 -10.242 -10.241 -10.240 -10.240 -10.240 -10.238 -10.238
-10.233 -10.232 -10.232 -10.231 -10.230 -10.229 -10.228 -10.228
-10.228 -10.227 -10.227 -10.227 -10.226 -10.225 -10.225 -10.224
-10.224 -10.224 -10.223 -10.223 -10.223 -10.223 -10.223 -10.222
-10.222 -10.222 -10.222 -10.222 -10.222 -10.222 -10.222 -10.221
-10.221 -10.220 -10.220 -10.220 -10.220 -10.219 -10.219 -10.219
-10.219 -10.219 -10.219 -10.219 -10.218 -10.218 -10.218 -10.218
-10.217 -10.217 -10.217 -10.217 -10.217 -10.216 -10.216 -10.216
-10.216 -10.216 -10.216 -10.216 -10.216 -10.216 -10.215 -10.215
-10.215 -10.215 -10.215 -10.215 -10.215 -10.214 -10.214 -10.214
-10.214 -10.214 -10.214 -10.214 -10.214 -10.214 -10.214 -10.214
-10.213 -10.213 -10.213 -10.212 -10.212 -10.212 -10.212 -10.211
-10.211 -10.211 -10.210 -10.210 -10.210 -10.210 -10.210 -10.210
-10.209 -10.209 -10.209 -10.208 -10.208 -10.208 -10.208 -10.207
-10.207 -10.207 -10.207 -10.206 -10.206 -10.205 -10.205 -10.205
-10.204 -10.204 -10.203 -10.202 -10.202 -10.201 -10.201 -10.201
-10.200 -10.200 -10.199 -10.199 -10.196 -10.195 -10.195 -10.193
-10.193 -10.193 -10.192 -10.192  -1.086  -1.081  -1.003  -0.995
 -0.985  -0.983  -0.968  -0.968  -0.965  -0.963  -0.961  -0.960
 -0.938  -0.933  -0.931  -0.928  -0.928  -0.926  -0.925  -0.923
 -0.922  -0.916  -0.899  -0.899  -0.891  -0.889  -0.889  -0.881
 -0.876  -0.875  -0.858  -0.854  -0.845  -0.841  -0.841  -0.839
 -0.836  -0.835  -0.825  -0.824  -0.809  -0.808  -0.802  -0.800
 -0.799  -0.796  -0.795  -0.791  -0.791  -0.789  -0.786  -0.785
 -0.772  -0.771  -0.769  -0.768  -0.766  -0.766  -0.766  -0.764
 -0.757  -0.756  -0.744  -0.740  -0.736  -0.731  -0.720  -0.718
 -0.716  -0.715  -0.714  -0.713  -0.713  -0.712  -0.710  -0.708
 -0.708  -0.707  -0.706  -0.706  -0.703  -0.703  -0.672  -0.672
 -0.662  -0.659  -0.659  -0.655  -0.648  -0.646  -0.636  -0.632
 -0.631  -0.628  -0.627  -0.624  -0.624  -0.620  -0.619  -0.616
 -0.616  -0.614  -0.613  -0.613  -0.612  -0.611  -0.610  -0.607
 -0.607  -0.604  -0.604  -0.602  -0.568  -0.567  -0.566  -0.564
 -0.561  -0.560  -0.558  -0.558  -0.557  -0.557  -0.554  -0.552
 -0.542  -0.540  -0.539  -0.531  -0.531  -0.530  -0.527  -0.526
 -0.525  -0.522  -0.521  -0.518  -0.518  -0.517  -0.516  -0.511
 -0.509  -0.506  -0.501  -0.494  -0.492  -0.490  -0.488  -0.487
 -0.484  -0.484  -0.481  -0.480  -0.480  -0.478  -0.477  -0.475
 -0.475  -0.473  -0.471  -0.470  -0.469  -0.468  -0.467  -0.467
 -0.466  -0.466  -0.464  -0.464  -0.463  -0.462  -0.460  -0.459
 -0.456  -0.455  -0.455  -0.452  -0.451  -0.449  -0.449  -0.446
 -0.443  -0.442  -0.440  -0.440  -0.440  -0.437  -0.435  -0.434
 -0.433  -0.433  -0.430  -0.430  -0.428  -0.427  -0.427  -0.426
 -0.424  -0.424  -0.422  -0.421  -0.421  -0.420  -0.419  -0.418
 -0.418  -0.417  -0.417  -0.417  -0.416  -0.415  -0.415  -0.413
 -0.411  -0.410  -0.409  -0.408  -0.402  -0.399  -0.398  -0.396
 -0.395  -0.395  -0.393  -0.392  -0.390  -0.388  -0.387  -0.386
 -0.383  -0.379  -0.375  -0.372  -0.370  -0.369  -0.367  -0.367
 -0.365  -0.365  -0.364  -0.362  -0.361  -0.360  -0.359  -0.358
 -0.356  -0.356  -0.355  -0.355  -0.354  -0.354  -0.353  -0.352
 -0.351  -0.350  -0.350  -0.348  -0.347  -0.346  -0.345  -0.344
 -0.344  -0.342  -0.342  -0.341  -0.339  -0.338  -0.337  -0.336
 -0.334  -0.333  -0.330  -0.329  -0.328  -0.326  -0.325  -0.324
 -0.311  -0.307  -0.297  -0.296  -0.289  -0.286  -0.276  -0.272
 -0.271  -0.270  -0.269  -0.267  -0.266  -0.265  -0.263  -0.263
 -0.263  -0.262  -0.260  -0.259  -0.258  -0.257  -0.256  -0.254
 -0.252  -0.248  -0.246  -0.243  -0.226  -0.223  -0.215  -0.214
 -0.209  -0.207  -0.206  -0.204  -0.202  -0.200

          Ground-State Mulliken Net Atomic Charges

     Atom                 Charge (a.u.)
  ----------------------------------------
      1 O                    -0.469511
      2 C                    -0.092086
      3 H                     0.130293
      4 H                     0.145656
      5 H                     0.147008
      6 O                    -0.495084
      7 C                     0.594917
      8 C                    -0.227163
      9 H                     0.129698
     10 H                     0.120583
     11 C                    -0.203879
     12 H                     0.123720
     13 H                     0.100652
     14 C                    -0.189362
     15 H                     0.095521
     16 H                     0.131209
     17 C                     0.011341
     18 C                     0.100386
     19 C                    -0.102872
     20 H                     0.096464
     21 C                    -0.084082
     22 H                     0.091268
     23 C                    -0.100361
     24 H                     0.085405
     25 C                    -0.093822
     26 H                     0.107560
     27 C                    -0.115316
     28 H                     0.097994
     29 C                    -0.046064
     30 C                    -0.012344
     31 C                    -0.007926
     32 C                     0.023514
     33 C                     0.002007
     34 C                     0.016348
     35 C                     0.008478
     36 C                    -0.023072
     37 C                     0.030618
     38 C                    -0.017256
     39 C                    -0.080356
     40 C                     0.005115
     41 C                    -0.003882
     42 C                     0.005521
     43 C                    -0.012472
     44 C                     0.034857
     45 C                    -0.091623
     46 C                     0.015811
     47 C                     0.009406
     48 C                    -0.001814
     49 C                    -0.019806
     50 C                    -0.016240
     51 C                     0.014445
     52 C                    -0.008011
     53 C                    -0.006326
     54 C                     0.019064
     55 C                     0.013572
     56 C                     0.008409
     57 C                     0.000155
     58 C                    -0.007481
     59 C                    -0.012802
     60 C                     0.009143
     61 C                    -0.010792
     62 C                    -0.025605
     63 C                    -0.009352
     64 C                     0.014966
     65 C                    -0.030535
     66 C                    -0.020639
     67 C                     0.002148
     68 C                     0.023881
     69 C                    -0.000671
     70 C                     0.038108
     71 C                    -0.001478
     72 C                     0.006725
     73 C                    -0.000536
     74 C                     0.010032
     75 C                    -0.017751
     76 C                     0.003988
     77 C                     0.018954
     78 C                     0.000396
     79 C                     0.002652
     80 C                     0.006777
     81 C                     0.020596
     82 C                    -0.003019
     83 C                     0.020747
     84 C                     0.000176
     85 C                    -0.011334
     86 C                    -0.025776
     87 C                     0.006703
     88 C                     0.028173
     89 O                    -0.471575
     90 C                    -0.103042
     91 H                     0.124471
     92 H                     0.126367
     93 H                     0.148287
     94 O                    -0.469632
     95 C                     0.576808
     96 C                    -0.238677
     97 H                     0.117040
     98 H                     0.132199
     99 C                    -0.187496
    100 H                     0.121639
    101 H                     0.118826
    102 C                    -0.179234
    103 H                     0.106443
    104 H                     0.118353
    105 C                     0.015643
    106 C                     0.085815
    107 C                    -0.114798
    108 H                     0.089975
    109 C                    -0.085762
    110 H                     0.095631
    111 C                    -0.091827
    112 H                     0.080162
    113 C                    -0.082472
    114 H                     0.094080
    115 C                    -0.095638
    116 H                     0.089100
    117 C                    -0.017334
    118 C                     0.012560
    119 C                    -0.019609
    120 C                     0.001958
    121 C                     0.032093
    122 C                    -0.001232
    123 C                     0.000654
    124 C                     0.016697
    125 C                    -0.000186
    126 C                    -0.030291
    127 C                    -0.090360
    128 C                     0.008740
    129 C                     0.029402
    130 C                    -0.005696
    131 C                     0.019516
    132 C                     0.017119
    133 C                    -0.085833
    134 C                    -0.003661
    135 C                    -0.010490
    136 C                     0.023534
    137 C                    -0.028993
    138 C                     0.005148
    139 C                    -0.018527
    140 C                    -0.023728
    141 C                     0.053562
    142 C                    -0.002570
    143 C                     0.007948
    144 C                     0.006964
    145 C                     0.005050
    146 C                     0.011200
    147 C                     0.003403
    148 C                    -0.001376
    149 C                    -0.005568
    150 C                    -0.055014
    151 C                    -0.005174
    152 C                    -0.001344
    153 C                    -0.003182
    154 C                    -0.015809
    155 C                    -0.005164
    156 C                     0.013217
    157 C                    -0.021349
    158 C                     0.035048
    159 C                     0.000789
    160 C                     0.018533
    161 C                     0.002951
    162 C                     0.005297
    163 C                    -0.021139
    164 C                     0.008833
    165 C                     0.005637
    166 C                    -0.027918
    167 C                     0.005868
    168 C                    -0.013799
    169 C                     0.017059
    170 C                    -0.011916
    171 C                     0.008412
    172 C                     0.000504
    173 C                     0.009261
    174 C                     0.009495
    175 C                    -0.000750
    176 C                    -0.021783
  ----------------------------------------
  Sum of atomic charges =     0.000000

                    Cartesian Multipole Moments
 -----------------------------------------------------------------
    Charge (ESU x 10^10)
                 0.0000
    Dipole Moment (Debye)
         X       2.4417      Y      -0.5583      Z       0.2762
       Tot       2.5199
    Quadrupole Moments (Debye-Ang)
        XX    -813.7626     XY     -18.1853     YY    -767.2299
        XZ      -2.9137     YZ     -32.9472     ZZ    -819.6772

 Total job time:  890.00s(wall), 8544.29s(cpu)
        *  Thank you very much for using Q-Chem.  Have a nice day.  *
