 Q-Chem 4.4, Q-Chem, Inc., Pleasanton, CA (2016)
 Q-Chem 4.4.2 for Intel X86 Linux

User input:
--------------------------------------------------------------
$comment
SP
$end

$rem
MEM_STATIC 5000
MEM_TOTAL 20000
JOBTYPE SP
EXCHANGE B3LYP
BASIS 6-31g(d,p)
$end

$molecule
0 1
O          11.485000     -6.349000      8.764000
C          10.119000     -6.397000      8.205000
H           9.569000     -7.278000      8.560000
H          10.177000     -6.203000      7.127000
H           9.612000     -5.487000      8.549000
O          11.836000     -8.611000      8.237000
C          12.232000     -7.491000      8.600000
C          13.616000     -7.351000      9.178000
H          13.859000     -8.274000      9.719000
H          13.579000     -6.527000      9.901000
C          14.708000     -6.903000      8.103000
H          14.643000     -7.594000      7.254000
H          14.414000     -5.922000      7.710000
C          16.135000     -7.053000      8.662000
H          16.182000     -6.292000      9.451000
H          16.124000     -8.115000      8.938000
C          17.126000     -6.820000      7.586000
C          17.328000     -8.072000      6.808000
C          18.197000     -9.059000      7.390000
H          18.579000     -8.983000      8.404000
C          18.469000    -10.219000      6.654000
H          19.048000    -11.054000      7.037000
C          18.051000    -10.350000      5.307000
H          18.335000    -11.264000      4.794000
C          17.154000     -9.387000      4.774000
H          16.847000     -9.379000      3.732000
C          16.756000     -8.295000      5.539000
H          16.025000     -7.614000      5.114000
C          22.181000     -4.911000      6.994000
C          21.260000     -4.600000      4.727000
C          20.978000     -0.035000      5.199000
C          19.273000     -2.768000     10.617000
C          17.544000     -0.093000      5.903000
C          21.364000     -5.372000      5.943000
C          18.063000     -0.451000      9.469000
C          22.655000     -1.565000      5.890000
C          17.233000     -4.023000      5.054000
C          17.973000     -2.862000     10.132000
C          17.287000     -5.479000      6.987000
C          16.523000     -3.393000      6.083000
C          16.565000     -2.163000      8.582000
C          17.961000      0.310000      8.231000
C          19.183000     -5.469000      5.225000
C          19.689000      0.767000      6.747000
C          18.291000     -5.949000      7.965000
C          18.452000     -5.128000      9.193000
C          18.851000      0.397000      5.666000
C          22.087000     -1.008000      9.339000
C          21.932000      0.178000      7.474000
C          22.747000     -0.907000      7.144000
C          22.824000     -2.932000      5.721000
C          19.730000     -4.946000      9.561000
C          17.770000     -5.193000      5.590000
C          21.949000     -3.401000      4.701000
C          17.319000     -1.687000      9.644000
C          19.896000     -4.628000      4.350000
C          16.464000     -2.035000      6.118000
C          21.429000     -3.246000     10.008000
C          21.784000     -1.129000      4.935000
C          16.497000     -4.210000      7.229000
C          22.949000     -3.090000      8.119000
C          16.489000     -1.390000      7.365000
C          18.003000     -3.144000      4.210000
C          20.127000      0.436000      9.107000
C          19.420000     -0.395000      9.922000
C          17.883000     -1.744000      4.219000
C          20.181000     -3.810000     10.249000
C          17.569000     -4.006000      9.422000
C          21.334000     -1.824000     10.181000
C          19.708000     -6.049000      7.530000
C          19.996000     -2.310000      3.705000
C          16.696000     -3.534000      8.460000
C          17.051000     -1.146000      5.170000
C          22.230000     -3.892000      8.967000
C          19.670000     -0.119000      4.656000
C          22.919000     -3.705000      6.895000
C          21.037000      0.528000      6.468000
C          19.300000     -3.479000      3.862000
C          19.167000     -1.212000      3.995000
C          20.121000     -5.916000      6.165000
C          20.506000     -5.511000      8.582000
C          21.464000      0.103000      8.787000
C          21.296000     -2.245000      4.161000
C          17.139000     -0.201000      7.206000
C          20.009000     -1.566000     10.497000
C          19.259000      0.838000      8.059000
C          21.761000     -5.030000      8.280000
C          22.888000     -1.676000      8.300000
O          13.068000     10.631000     12.330000
C          14.181000     11.504000     12.174000
H          14.834000     11.361000     13.044000
H          13.781000     12.526000     12.165000
H          14.581000     11.208000     11.197000
O          14.439000      8.767000     12.332000
C          13.294000      9.241000     12.245000
C          12.019000      8.406000     12.215000
H          11.489000      8.676000     11.294000
H          11.358000      8.800000     12.997000
C          12.362000      6.899000     12.401000
H          12.961000      6.629000     11.523000
H          13.084000      6.867000     13.227000
C          11.187000      5.851000     12.607000
H          11.543000      5.065000     13.285000
H          10.342000      6.347000     13.101000
C          10.705000      5.192000     11.330000
C          10.108000      6.176000     10.276000
C          10.963000      6.650000      9.264000
H          11.990000      6.322000      9.131000
C          10.583000      7.636000      8.410000
H          11.321000      8.058000      7.734000
C           9.228000      8.090000      8.416000
H           8.901000      8.844000      7.706000
C           8.313000      7.519000      9.362000
H           7.253000      7.751000      9.335000
C           8.755000      6.573000     10.315000
H           8.041000      6.058000     10.951000
C           7.265000      1.355000      9.448000
C           8.833000      1.650000      7.657000
C          10.975000     -2.306000      8.131000
C           9.805000      0.308000     13.743000
C          13.696000     -0.936000      9.805000
C           8.117000      2.207000      8.752000
C          12.087000     -1.101000     13.092000
C           8.670000     -1.759000      8.302000
C          12.522000      2.819000      9.036000
C          10.998000      0.987000     13.753000
C          11.325000      3.887000     10.755000
C          13.171000      2.493000     10.193000
C          12.947000      1.081000     12.601000
C          12.842000     -1.632000     12.024000
C          10.134000      3.245000      8.611000
C          12.095000     -2.750000     10.043000
C          10.006000      3.841000     11.512000
C           9.954000      2.955000     12.699000
C          12.929000     -1.965000      9.200000
C           8.505000     -2.252000     11.728000
C           9.701000     -3.181000     10.004000
C           8.526000     -2.490000      9.497000
C           7.959000     -0.571000      8.124000
C           8.798000      2.183000     12.675000
C          11.377000      3.545000      9.264000
C           8.790000      0.281000      7.381000
C          12.146000      0.296000     13.390000
C          10.075000      2.306000      7.599000
C          13.754000      1.256000     10.351000
C           7.864000     -0.094000     12.615000
C           9.831000     -1.674000      7.642000
C          12.456000      3.071000     11.263000
C           7.055000     -0.756000     10.428000
C          13.673000      0.552000     11.517000
C          12.470000      1.878000      7.996000
C          10.846000     -2.670000     12.074000
C          10.872000     -1.761000     13.157000
C          13.134000      0.608000      8.123000
C           8.682000      0.899000     13.186000
C          11.108000      2.247000     13.211000
C           8.467000     -1.376000     12.776000
C           8.799000      3.398000     10.729000
C          11.181000      0.271000      7.013000
C          12.331000      2.349000     12.532000
C          13.748000      0.341000      9.319000
C           7.044000      0.171000     11.434000
C          12.234000     -1.666000      8.012000
C           7.147000     -0.049000      9.160000
C          10.952000     -3.034000      9.325000
C          11.243000      1.629000      7.322000
C          12.334000     -0.372000      7.489000
C           8.897000      3.175000      9.340000
C           8.014000      2.459000     11.499000
C           9.663000     -2.959000     11.353000
C           9.942000     -0.409000      7.103000
C          13.632000     -0.793000     11.209000
C           9.665000     -1.042000     13.442000
C          12.059000     -2.619000     11.450000
C           7.243000      1.441000     10.818000
C           7.741000     -2.000000     10.540000
$end

--------------------------------------------------------------

             Standard Nuclear Orientation (Angstroms)
    I     Atom           X                Y                Z
 ----------------------------------------------------------------
    1      O       1.0795287054    -6.2278027011     0.0331265499
    2      C       0.2934308977    -7.1190605485    -0.8434866408
    3      H       0.3250761381    -8.1588904794    -0.4935748040
    4      H       0.5528208118    -6.8989911863    -1.8862571565
    5      H      -0.7403341801    -6.7535154405    -0.8089679779
    6      O       2.8877317381    -7.7270936496     0.0230050771
    7      C       2.3735487923    -6.6242587485     0.2727170696
    8      C       3.1102567233    -5.6513445896     1.1558022658
    9      H       3.6844016118    -6.2231665605     1.8954212762
   10      H       2.3516597352    -5.0638539650     1.6872713389
   11      C       3.9621475298    -4.5760260867     0.3392453657
   12      H       4.6044597962    -5.1223666607    -0.3617923862
   13      H       3.2692159805    -3.9967887773    -0.2833106618
   14      C       4.9140671951    -3.7981293316     1.2666264035
   15      H       4.2344447746    -3.2075527834     1.8936700274
   16      H       5.4722068280    -4.6306708572     1.7132758839
   17      C       5.8251159428    -2.9526166192     0.4608693481
   18      C       6.9833455414    -3.7622711060    -0.0044862245
   19      C       8.0377235614    -3.9850479292     0.9477277630
   20      H       7.9513920097    -3.7145927986     1.9962013609
   21      C       9.1770731898    -4.6805777226     0.5241705286
   22      H       9.9900222901    -4.9652946015     1.1853853645
   23      C       9.3750402616    -5.0058646197    -0.8401210360
   24      H      10.3023865001    -5.5115175638    -1.0922421458
   25      C       8.2998127673    -4.8209572716    -1.7488355720
   26      H       8.3976527543    -4.9780529225    -2.8192678648
   27      C       7.1018508485    -4.2590635249    -1.3184222141
   28      H       6.2864279315    -4.1884982665    -2.0317615518
   29      C       8.5012812753     1.7607768414     0.8729751585
   30      C       8.3503874153     1.4832840852    -1.5733444880
   31      C       5.1948895186     4.7997412211    -2.0040161605
   32      C       3.9464235962     1.4393124290     3.1805657102
   33      C       2.5217985585     2.5412073476    -2.2160196074
   34      C       8.5203377975     0.9177036385    -0.2555085248
   35      C       2.0046999548     2.4851973937     1.3677427897
   36      C       7.1343832466     4.6716085663    -0.6428930574
   37      C       4.9751648078    -0.6534910943    -2.4091980534
   38      C       3.2133155534     0.5524764306     2.3994539962
   39      C       5.3051639619    -1.7995990580    -0.3028082286
   40      C       3.7524115376    -0.6543801663    -1.7274982296
   41      C       2.2473244513     0.2400815855     0.4391388044
   42      C       1.8498226642     3.0442839302     0.0314777451
   43      C       7.2232576672    -0.5264460029    -1.4858373219
   44      C       3.2848290301     4.5453019356    -1.0100551047
   45      C       6.0162408728    -1.5509755168     0.9691807499
   46      C       5.2453577058    -0.8552626369     2.0320395042
   47      C       3.2421383833     3.7597609867    -2.1885320566
   48      C       5.3039696990     4.6292587803     2.3863422818
   49      C       5.0453700575     5.5010911815     0.3659758572
   50      C       6.4054855797     5.1970899104     0.4555246902
   51      C       8.1492231633     3.7333244557    -0.5182581055
   52      C       5.9449939089     0.0888901219     2.6808204775
   53      C       5.9156654533    -1.2274890418    -1.5544759394
   54      C       8.1214780748     2.8461052087    -1.6309387505
   55      C       2.1699591276     1.0541359516     1.5590790241
   56      C       7.4966430726     0.6029745484    -2.2801575586
   57      C       2.8646559749     0.3513966880    -1.9492480441
   58      C       5.9927726487     2.4668770728     3.2458914936
   59      C       6.5334072597     4.4810017074    -1.8525454407
   60      C       3.8776275531    -1.3353519504    -0.5019047494
   61      C       7.5883147138     3.6163240434     1.8189807815
   62      C       2.0973663793     0.8243342221    -0.8725606404
   63      C       5.2568477259     0.5405666149    -3.1660057707
   64      C       3.0688987462     4.4962069623     1.4028205233
   65      C       2.8124496048     3.3801907099     2.1399613254
   66      C       4.3071996554     1.5405299353    -3.4356776084
   67      C       5.3593971751     1.2289373890     3.2505657662
   68      C       3.8447587223    -0.5630349621     1.8224220584
   69      C       4.9965388264     3.4945722054     3.1345412094
   70      C       7.2404861396    -0.7098086195     0.9413279651
   71      C       6.3467761120     2.4699805085    -3.2757697914
   72      C       3.2224074702    -0.7270085553     0.5992505333
   73      C       3.0400232078     1.4396059836    -2.8540357886
   74      C       7.2950554062     2.5139188308     2.5792246410
   75      C       4.4679462570     3.9173109379    -2.8440395469
   76      C       8.3263751000     3.1625484552     0.7575404478
   77      C       4.4957390220     5.2306176414    -0.8831481514
   78      C       6.5112938094     1.1216554594    -3.1008998703
   79      C       4.9810152137     2.7763004816    -3.4092248124
   80      C       7.8842335198    -0.3010650041    -0.2711079991
   81      C       7.1600538405     0.1803321357     2.0522429399
   82      C       4.3423680060     5.1034863432     1.5045348184
   83      C       7.1067481221     3.3354206634    -2.5170755960
   84      C       1.8878485329     2.1587448972    -1.0647907687
   85      C       3.7790798502     2.8373898515     3.0453784652
   86      C       2.5200100375     4.2842817159     0.1116424273
   87      C       7.8685219970     1.3608129309     2.0061130875
   88      C       6.6191402763     4.6593160253     1.7254573337
   89      O      -9.3151729215     7.7311851214     0.8328027699
   90      C      -8.9959624498     9.1179640984     0.8192844953
   91      H      -8.7064161844     9.3974619372     1.8399714788
   92      H      -9.9107721474     9.6490295444     0.5266111119
   93      H      -8.2192673694     9.1762596194     0.0476036129
   94      O      -7.1772532169     7.1724607531     1.5192919663
   95      C      -8.2711142995     6.8089554968     1.0560405654
   96      C      -8.6730201738     5.3538419809     0.8442238423
   97      H      -8.9354981928     5.2521368397    -0.2153998427
   98      H      -9.6382075166     5.2104555843     1.3457562286
   99      C      -7.5568944722     4.4077926387     1.3757763423
  100      H      -6.6828369210     4.6099959831     0.7451241365
  101      H      -7.2717771351     4.8180900426     2.3529908246
  102      C      -7.8291673465     2.8452668074     1.4515754738
  103      H      -7.3000293791     2.4466465723     2.3264074117
  104      H      -8.9004637629     2.6719318041     1.6139206766
  105      C      -7.3751470989     2.0708117230     0.2303388312
  106      C      -8.0831999307     2.4797038318    -1.0989652840
  107      C      -7.4387209386     3.4217730163    -1.9217638501
  108      H      -6.4513831308     3.8291651427    -1.7237797380
  109      C      -8.0531521762     3.9644321221    -3.0052339000
  110      H      -7.5664211611     4.7812819673    -3.5301655615
  111      C      -9.3159675677     3.4485875958    -3.4311196968
  112      H      -9.7944433966     3.8421085340    -4.3231663057
  113      C      -9.9237559295     2.3956837771    -2.6694315350
  114      H     -10.8261050956     1.8984095200    -3.0109535631
  115      C      -9.3198581668     1.9202575136    -1.4829382312
  116      H      -9.7195883303     1.0484486773    -0.9733480532
  117      C      -6.9243359892    -3.0170910221    -1.7716871426
  118      C      -5.4099670060    -1.7331677803    -3.1176283343
  119      C      -1.5756848134    -3.4237008493    -1.4137639002
  120      C      -5.7810042383    -2.3359880803     3.1500732427
  121      C      -0.9674959121    -0.6857318777     0.6396842172
  122      C      -6.6128356445    -1.7961071793    -2.3619328462
  123      C      -3.0584112596    -1.9427805977     3.3725172757
  124      C      -3.6356834287    -4.4795497781    -1.9458012526
  125      C      -3.8846359682     1.4773038495    -1.0577350992
  126      C      -5.3364753799    -1.0525758517     3.3491640397
  127      C      -5.9447676610     1.4808185376     0.0755076177
  128      C      -3.5751812727     1.6044836028     0.2667229415
  129      C      -3.6219742619     0.2998725534     2.7442589001
  130      C      -1.8516725940    -1.8357974639     2.6479854254
  131      C      -5.7444311684     0.2941127283    -2.1558542113
  132      C      -1.0880538415    -3.1103506336     0.7705684183
  133      C      -7.1088255140     0.5797982853     0.4602904392
  134      C      -6.9728736789    -0.1721280331     1.7302482772
  135      C      -0.7025623589    -1.9477768646     0.0479007572
  136      C      -4.5219266377    -5.0715827170     1.3514430474
  137      C      -2.5463310671    -4.9686640856     0.1886606530
  138      C      -3.6641093590    -5.1712268456    -0.7194665508
  139      C      -4.8251061089    -4.0140012100    -2.5089062327
  140      C      -7.3290953660    -1.5030176559     1.5438752062
  141      C      -5.2316014861     1.2977439879    -1.2663667118
  142      C      -4.5141551931    -2.8049461103    -3.1492259138
  143      C      -3.9666909938    -0.8399435521     3.4242122959
  144      C      -4.8945701281    -0.4340370851    -2.9663355877
  145      C      -2.4421944075     1.0201744289     0.7862857891
  146      C      -6.5888216656    -3.8486823346     1.6465254061
  147      C      -2.6403760958    -3.6524230927    -2.2863460502
  148      C      -4.7824191593     1.5591196201     0.9952336101
  149      C      -6.0859059035    -4.8056019083    -0.5230539692
  150      C      -2.4324886174     0.3903862406     1.9966599609
  151      C      -3.0197326015     0.7529623187    -1.8926342027
  152      C      -2.6764501261    -3.9097578229     2.3609480550
  153      C      -3.5539669335    -3.2279742886     3.2355802435
  154      C      -1.7980920735     0.1959434777    -1.3756724719
  155      C      -6.7840664628    -2.5807085604     2.2256074184
  156      C      -5.8614357305     0.0037981900     2.6406765560
  157      C      -5.4146368586    -4.4549328674     2.1820665629
  158      C      -7.4671533480    -0.5067667717    -0.5180574234
  159      C      -2.6601480891    -1.2749788643    -2.8767137404
  160      C      -4.8257011561     0.8841699519     2.2951719218
  161      C      -1.5624164659     0.3449408124    -0.0336747811
  162      C      -6.9772596099    -4.1311729354     0.2656919535
  163      C      -1.0190978556    -2.1241119016    -1.3131581078
  164      C      -6.0576415773    -4.1632841787    -1.8279547556
  165      C      -1.5179406015    -4.0358080209    -0.1575237096
  166      C      -3.5457338205    -0.2005698534    -2.8069126693
  167      C      -1.5781195328    -1.0485650657    -2.0121994287
  168      C      -6.8255747185    -0.5721505332    -1.7721530442
  169      C      -7.6997574301    -1.7542264772     0.1751854085
  170      C      -3.1313213966    -4.8644978238     1.4205148263
  171      C      -3.1686190551    -2.5916590745    -2.9926080934
  172      C      -1.5399787267    -0.6606512107     1.9309608673
  173      C      -4.9593634951    -3.4542800638     3.0662249938
  174      C      -1.6338085282    -3.0767225220     2.0740740654
  175      C      -7.4207552856    -3.0079785999    -0.4917399382
  176      C      -4.8596063652    -5.3281095801    -0.0192175124
 ----------------------------------------------------------------

    9   -5804.2243808750      9.57E-06 Convergence criterion met
 Total energy in the final basis set = -5804.2243808750

                    Orbital Energies (a.u.)
 --------------------------------------------------------------

 Alpha MOs
 -- Occupied --
-19.195 -19.182 -19.140 -19.129 -10.322 -10.312 -10.243 -10.242
-10.241 -10.241 -10.240 -10.239 -10.233 -10.232 -10.232 -10.231
-10.230 -10.228 -10.227 -10.226 -10.225 -10.225 -10.224 -10.223
-10.223 -10.222 -10.222 -10.222 -10.221 -10.221 -10.221 -10.220
-10.219 -10.219 -10.219 -10.218 -10.218 -10.218 -10.218 -10.218
-10.218 -10.218 -10.217 -10.217 -10.217 -10.217 -10.217 -10.217
-10.217 -10.216 -10.216 -10.216 -10.216 -10.216 -10.216 -10.216
-10.216 -10.216 -10.215 -10.215 -10.215 -10.215 -10.215 -10.215
-10.215 -10.215 -10.215 -10.215 -10.215 -10.215 -10.214 -10.214
-10.214 -10.214 -10.214 -10.214 -10.214 -10.214 -10.214 -10.214
-10.213 -10.213 -10.213 -10.213 -10.213 -10.213 -10.213 -10.212
-10.212 -10.212 -10.212 -10.212 -10.212 -10.212 -10.212 -10.212
-10.211 -10.211 -10.211 -10.211 -10.211 -10.211 -10.211 -10.211
-10.210 -10.210 -10.210 -10.210 -10.210 -10.209 -10.209 -10.209
-10.209 -10.209 -10.209 -10.208 -10.208 -10.208 -10.208 -10.208
-10.208 -10.208 -10.208 -10.207 -10.207 -10.207 -10.207 -10.207
-10.206 -10.206 -10.206 -10.206 -10.206 -10.204 -10.204 -10.203
-10.203 -10.201 -10.201 -10.201 -10.200 -10.200 -10.199 -10.198
-10.198 -10.198 -10.197 -10.195  -1.078  -1.078  -1.001  -0.996
 -0.985  -0.985  -0.970  -0.968  -0.965  -0.965  -0.962  -0.961
 -0.940  -0.933  -0.931  -0.929  -0.927  -0.925  -0.925  -0.924
 -0.921  -0.921  -0.900  -0.899  -0.893  -0.892  -0.888  -0.886
 -0.880  -0.873  -0.854  -0.852  -0.842  -0.841  -0.840  -0.838
 -0.838  -0.835  -0.824  -0.821  -0.803  -0.799  -0.799  -0.798
 -0.797  -0.796  -0.795  -0.794  -0.793  -0.792  -0.783  -0.781
 -0.772  -0.771  -0.770  -0.768  -0.767  -0.765  -0.763  -0.761
 -0.757  -0.752  -0.741  -0.740  -0.736  -0.731  -0.718  -0.717
 -0.715  -0.714  -0.713  -0.713  -0.712  -0.711  -0.709  -0.709
 -0.708  -0.706  -0.706  -0.702  -0.702  -0.699  -0.676  -0.673
 -0.660  -0.660  -0.657  -0.656  -0.648  -0.647  -0.635  -0.632
 -0.629  -0.628  -0.626  -0.625  -0.623  -0.622  -0.619  -0.615
 -0.615  -0.614  -0.613  -0.612  -0.611  -0.611  -0.610  -0.607
 -0.606  -0.605  -0.602  -0.600  -0.567  -0.565  -0.564  -0.563
 -0.560  -0.560  -0.558  -0.557  -0.554  -0.554  -0.553  -0.548
 -0.537  -0.537  -0.536  -0.533  -0.529  -0.529  -0.527  -0.526
 -0.524  -0.524  -0.519  -0.518  -0.517  -0.516  -0.513  -0.512
 -0.507  -0.507  -0.498  -0.496  -0.493  -0.492  -0.489  -0.487
 -0.486  -0.483  -0.482  -0.481  -0.478  -0.478  -0.476  -0.475
 -0.473  -0.472  -0.470  -0.469  -0.468  -0.467  -0.467  -0.466
 -0.465  -0.465  -0.464  -0.464  -0.462  -0.460  -0.459  -0.459
 -0.458  -0.456  -0.455  -0.454  -0.451  -0.448  -0.446  -0.445
 -0.442  -0.441  -0.440  -0.439  -0.438  -0.436  -0.436  -0.433
 -0.432  -0.431  -0.430  -0.428  -0.428  -0.426  -0.426  -0.424
 -0.424  -0.422  -0.422  -0.421  -0.420  -0.420  -0.419  -0.419
 -0.418  -0.418  -0.417  -0.417  -0.414  -0.414  -0.412  -0.412
 -0.411  -0.410  -0.410  -0.406  -0.402  -0.399  -0.396  -0.396
 -0.393  -0.392  -0.390  -0.389  -0.388  -0.388  -0.384  -0.383
 -0.380  -0.376  -0.375  -0.372  -0.371  -0.368  -0.368  -0.367
 -0.365  -0.364  -0.362  -0.362  -0.362  -0.361  -0.358  -0.357
 -0.356  -0.355  -0.354  -0.353  -0.352  -0.351  -0.351  -0.350
 -0.350  -0.348  -0.347  -0.347  -0.347  -0.347  -0.343  -0.343
 -0.342  -0.342  -0.341  -0.339  -0.338  -0.337  -0.335  -0.333
 -0.333  -0.331  -0.331  -0.330  -0.329  -0.327  -0.325  -0.324
 -0.307  -0.307  -0.296  -0.292  -0.289  -0.287  -0.271  -0.271
 -0.270  -0.269  -0.268  -0.267  -0.266  -0.266  -0.264  -0.263
 -0.261  -0.261  -0.260  -0.259  -0.259  -0.257  -0.256  -0.254
 -0.248  -0.247  -0.245  -0.243  -0.222  -0.222  -0.212  -0.210
 -0.209  -0.208  -0.207  -0.206  -0.201  -0.195

          Ground-State Mulliken Net Atomic Charges

     Atom                 Charge (a.u.)
  ----------------------------------------
      1 O                    -0.471006
      2 C                    -0.094702
      3 H                     0.143977
      4 H                     0.127380
      5 H                     0.121844
      6 O                    -0.484211
      7 C                     0.597334
      8 C                    -0.246244
      9 H                     0.128438
     10 H                     0.121497
     11 C                    -0.208864
     12 H                     0.114474
     13 H                     0.116585
     14 C                    -0.178721
     15 H                     0.109618
     16 H                     0.121528
     17 C                     0.043824
     18 C                     0.058926
     19 C                    -0.096394
     20 H                     0.097089
     21 C                    -0.090895
     22 H                     0.090314
     23 C                    -0.083561
     24 H                     0.093102
     25 C                    -0.094938
     26 H                     0.094479
     27 C                    -0.094496
     28 H                     0.096955
     29 C                     0.028930
     30 C                    -0.027154
     31 C                    -0.025053
     32 C                    -0.029268
     33 C                     0.005267
     34 C                    -0.011719
     35 C                    -0.022807
     36 C                     0.045099
     37 C                    -0.018807
     38 C                    -0.012685
     39 C                    -0.067324
     40 C                     0.007687
     41 C                     0.006780
     42 C                    -0.012133
     43 C                     0.004323
     44 C                     0.012117
     45 C                    -0.096814
     46 C                     0.019189
     47 C                     0.016339
     48 C                    -0.020575
     49 C                    -0.017327
     50 C                     0.008576
     51 C                    -0.032667
     52 C                     0.048708
     53 C                     0.024539
     54 C                     0.016542
     55 C                    -0.018042
     56 C                     0.000652
     57 C                     0.018114
     58 C                     0.000252
     59 C                    -0.009286
     60 C                     0.008658
     61 C                     0.026238
     62 C                    -0.008515
     63 C                     0.008855
     64 C                     0.009290
     65 C                     0.017924
     66 C                    -0.004578
     67 C                    -0.004798
     68 C                     0.004614
     69 C                    -0.004039
     70 C                     0.027721
     71 C                    -0.023220
     72 C                     0.003477
     73 C                    -0.045679
     74 C                    -0.029190
     75 C                    -0.007160
     76 C                    -0.015935
     77 C                     0.023092
     78 C                     0.021173
     79 C                     0.020987
     80 C                    -0.001892
     81 C                    -0.006541
     82 C                     0.019272
     83 C                    -0.003984
     84 C                     0.021823
     85 C                     0.011969
     86 C                    -0.032238
     87 C                    -0.011693
     88 C                    -0.011616
     89 O                    -0.491143
     90 C                    -0.066057
     91 H                     0.129735
     92 H                     0.120968
     93 H                     0.122577
     94 O                    -0.474374
     95 C                     0.594474
     96 C                    -0.269868
     97 H                     0.147218
     98 H                     0.135071
     99 C                    -0.183907
    100 H                     0.117738
    101 H                     0.124673
    102 C                    -0.187486
    103 H                     0.112016
    104 H                     0.110711
    105 C                     0.016571
    106 C                     0.068208
    107 C                    -0.085318
    108 H                     0.096758
    109 C                    -0.096010
    110 H                     0.094489
    111 C                    -0.089334
    112 H                     0.094026
    113 C                    -0.098722
    114 H                     0.094113
    115 C                    -0.103138
    116 H                     0.100763
    117 C                     0.010868
    118 C                    -0.015339
    119 C                    -0.018101
    120 C                     0.009641
    121 C                    -0.002615
    122 C                     0.005824
    123 C                     0.000089
    124 C                     0.016246
    125 C                     0.006679
    126 C                     0.011930
    127 C                    -0.073875
    128 C                     0.025332
    129 C                    -0.000403
    130 C                    -0.007188
    131 C                     0.003138
    132 C                     0.022026
    133 C                    -0.084384
    134 C                     0.048820
    135 C                    -0.019115
    136 C                     0.010858
    137 C                    -0.041846
    138 C                    -0.008865
    139 C                    -0.021602
    140 C                    -0.004616
    141 C                     0.016982
    142 C                     0.006997
    143 C                    -0.010381
    144 C                    -0.011987
    145 C                     0.015823
    146 C                    -0.011449
    147 C                     0.015917
    148 C                     0.017151
    149 C                     0.016375
    150 C                     0.014211
    151 C                    -0.024785
    152 C                     0.000415
    153 C                    -0.018277
    154 C                    -0.018023
    155 C                     0.019873
    156 C                    -0.006961
    157 C                    -0.006766
    158 C                    -0.011842
    159 C                    -0.007452
    160 C                    -0.031112
    161 C                     0.025313
    162 C                    -0.025826
    163 C                    -0.005024
    164 C                    -0.025580
    165 C                     0.021636
    166 C                     0.018633
    167 C                     0.004747
    168 C                     0.035569
    169 C                    -0.016472
    170 C                     0.030762
    171 C                     0.007487
    172 C                    -0.012040
    173 C                    -0.016941
    174 C                    -0.001090
    175 C                    -0.001472
    176 C                    -0.001464
  ----------------------------------------
  Sum of atomic charges =     0.000000

                    Cartesian Multipole Moments
 -----------------------------------------------------------------
    Charge (ESU x 10^10)
                 0.0000
    Dipole Moment (Debye)
         X      -2.9207      Y       1.7580      Z      -1.5480
       Tot       3.7440
    Quadrupole Moments (Debye-Ang)
        XX    -754.8292     XY     -26.1658     YY    -817.0868
        XZ      10.6821     YZ      -9.2748     ZZ    -802.1055

 Total job time:  850.79s(wall), 8096.78s(cpu)
        *  Thank you very much for using Q-Chem.  Have a nice day.  *
