 Q-Chem 4.4, Q-Chem, Inc., Pleasanton, CA (2016)
 Q-Chem 4.4.2 for Intel X86 Linux

User input:
--------------------------------------------------------------
$comment
SP
$end

$rem
MEM_STATIC 5000
MEM_TOTAL 20000
JOBTYPE SP
EXCHANGE B3LYP
BASIS 6-31g(d,p)
$end

$molecule
0 1
O         -11.217000    -12.433000    -10.831000
C         -10.356000    -13.568000    -10.865000
H          -9.623000    -13.462000    -10.057000
H          -9.872000    -13.649000    -11.846000
H         -10.865000    -14.456000    -10.470000
O         -12.383000    -12.885000    -12.720000
C         -12.172000    -12.198000    -11.788000
C         -12.848000    -10.915000    -11.536000
H         -12.113000    -10.236000    -11.087000
H         -13.616000    -11.053000    -10.766000
C         -13.629000    -10.326000    -12.722000
H         -12.879000     -9.834000    -13.352000
H         -14.069000    -11.102000    -13.360000
C         -14.728000     -9.295000    -12.232000
H         -14.268000     -8.522000    -11.603000
H         -15.176000     -8.808000    -13.107000
C         -15.932000    -10.017000    -11.471000
C         -16.668000    -11.079000    -12.314000
C         -17.831000    -10.828000    -13.027000
H         -18.379000     -9.902000    -12.884000
C         -18.501000    -11.906000    -13.714000
H         -19.487000    -11.816000    -14.160000
C         -17.939000    -13.160000    -13.817000
H         -18.499000    -13.898000    -14.383000
C         -16.865000    -13.433000    -13.016000
H         -16.387000    -14.408000    -13.024000
C         -16.235000    -12.454000    -12.284000
H         -15.357000    -12.688000    -11.689000
C         -20.605000     -9.223000     -8.562000
C         -19.726000    -11.317000     -7.663000
C         -18.196000     -9.783000     -3.665000
C         -16.972000     -5.682000     -8.269000
C         -14.838000     -9.488000     -4.691000
C         -19.922000    -10.466000     -8.738000
C         -15.275000     -6.100000     -6.097000
C         -20.247000     -9.308000     -4.896000
C         -15.665000    -11.583000     -8.041000
C         -15.768000     -6.309000     -8.501000
C         -15.903000    -10.160000     -9.952000
C         -14.701000    -10.552000     -7.969000
C         -14.366000     -7.815000     -7.597000
C         -15.051000     -7.057000     -5.073000
C         -17.885000    -11.472000     -9.012000
C         -16.609000     -8.168000     -3.598000
C         -16.842000     -9.161000    -10.525000
C         -16.750000     -7.746000    -10.150000
C         -15.900000     -9.398000     -3.775000
C         -19.362000     -6.008000     -5.704000
C         -18.947000     -7.447000     -3.986000
C         -20.076000     -7.923000     -4.726000
C         -20.676000     -9.790000     -6.130000
C         -17.988000     -7.199000     -9.898000
C         -16.452000    -11.361000     -9.188000
C         -20.096000    -11.011000     -6.352000
C         -14.906000     -6.555000     -7.391000
C         -18.470000    -11.980000     -7.807000
C         -14.289000    -10.024000     -6.701000
C         -19.196000     -5.999000     -8.103000
C         -19.319000    -10.167000     -4.379000
C         -14.911000     -9.613000     -9.031000
C         -20.769000     -7.476000     -7.032000
C         -13.996000     -8.674000     -6.572000
C         -16.221000    -12.005000     -6.873000
C         -17.093000     -6.137000     -4.770000
C         -16.534000     -5.542000     -5.883000
C         -15.848000    -11.482000     -5.621000
C         -18.047000     -6.133000     -8.963000
C         -15.633000     -7.271000     -9.408000
C         -18.775000     -5.533000     -6.875000
C         -18.334000     -9.403000    -10.266000
C         -18.003000    -11.907000     -5.431000
C         -14.740000     -8.265000     -8.875000
C         -14.830000    -10.522000     -5.539000
C         -20.158000     -6.973000     -8.186000
C         -16.944000    -10.359000     -3.823000
C         -20.933000     -8.877000     -7.208000
C         -18.016000     -8.397000     -3.464000
C         -17.642000    -12.247000     -6.715000
C         -16.881000    -11.418000     -4.731000
C         -18.775000    -10.531000     -9.573000
C         -18.984000     -8.155000     -9.954000
C         -18.467000     -6.343000     -4.667000
C         -19.245000    -11.262000     -5.237000
C         -14.373000     -8.308000     -5.299000
C         -17.365000     -5.315000     -6.981000
C         -16.154000     -7.032000     -4.209000
C         -20.119000     -8.069000     -9.135000
C         -20.410000     -6.979000     -5.741000
O         -17.377000    -12.772000     -1.885000
C         -18.610000    -13.357000     -2.345000
H         -18.917000    -14.127000     -1.628000
H         -18.368000    -13.732000     -3.347000
H         -19.460000    -12.673000     -2.461000
O         -17.980000    -12.416000      0.297000
C         -17.195000    -12.278000     -0.637000
C         -15.797000    -11.737000     -0.381000
H         -15.724000    -11.429000      0.669000
H         -15.760000    -10.827000     -0.992000
C         -14.700000    -12.683000     -0.965000
H         -14.883000    -13.630000     -0.443000
H         -14.790000    -13.013000     -2.007000
C         -13.335000    -12.024000     -0.667000
H         -13.420000    -11.052000     -1.168000
H         -13.276000    -11.763000      0.397000
C         -12.048000    -12.782000     -1.167000
C         -12.052000    -14.064000     -0.471000
C         -11.550000    -14.030000      0.812000
H         -10.963000    -13.152000      1.066000
C         -11.593000    -15.168000      1.619000
H         -11.087000    -15.300000      2.570000
C         -12.340000    -16.271000      1.218000
H         -12.357000    -17.152000      1.853000
C         -12.888000    -16.324000     -0.062000
H         -13.361000    -17.269000     -0.311000
C         -12.636000    -15.261000     -0.941000
H         -13.087000    -15.298000     -1.928000
C          -6.586000    -12.903000     -1.992000
C          -7.496000    -14.541000     -3.580000
C          -6.728000    -12.255000     -7.410000
C          -9.055000     -8.399000     -2.683000
C         -10.056000    -11.233000     -7.607000
C          -7.508000    -13.914000     -2.297000
C          -9.712000     -8.285000     -5.476000
C          -5.423000    -12.433000     -5.309000
C         -11.222000    -13.785000     -4.740000
C         -10.323000     -8.751000     -3.186000
C         -11.548000    -12.771000     -2.591000
C         -11.884000    -12.543000     -4.902000
C         -11.482000     -9.744000     -4.785000
C          -9.568000     -9.067000     -6.609000
C          -9.659000    -14.381000     -2.965000
C          -7.779000    -10.242000     -7.747000
C         -10.740000    -12.112000     -1.522000
C         -10.467000    -10.634000     -1.647000
C          -8.689000    -11.334000     -7.998000
C          -6.012000     -9.226000     -4.279000
C          -5.806000    -10.262000     -6.333000
C          -5.170000    -11.039000     -5.321000
C          -5.522000    -13.199000     -4.168000
C          -9.172000    -10.351000     -1.185000
C         -10.932000    -13.948000     -3.319000
C          -6.483000    -14.215000     -4.512000
C         -10.683000     -8.671000     -4.538000
C          -8.830000    -14.883000     -3.978000
C         -11.611000    -11.745000     -6.044000
C          -7.130000     -9.430000     -2.102000
C          -6.116000    -12.995000     -6.370000
C         -12.028000    -11.877000     -3.712000
C          -5.514000    -11.149000     -2.923000
C         -11.377000    -10.382000     -6.022000
C         -10.338000    -14.234000     -5.726000
C          -7.504000     -8.475000     -6.033000
C          -8.401000     -8.024000     -5.020000
C         -10.125000    -13.601000     -6.936000
C          -8.457000     -9.241000     -1.704000
C         -11.035000     -9.903000     -2.664000
C          -6.921000     -8.728000     -3.289000
C          -9.373000    -12.628000     -1.226000
C          -8.105000    -14.475000     -6.280000
C         -11.778000    -10.503000     -3.652000
C         -10.795000    -12.329000     -7.122000
C          -6.376000    -10.634000     -1.894000
C          -8.005000    -12.572000     -7.818000
C          -5.608000    -12.546000     -2.924000
C          -6.573000    -10.879000     -7.406000
C          -9.118000    -14.822000     -5.322000
C          -8.701000    -13.713000     -7.327000
C          -8.863000    -13.795000     -1.974000
C          -8.475000    -11.614000     -0.945000
C          -6.285000     -9.127000     -5.713000
C          -6.842000    -14.019000     -5.803000
C         -10.423000    -10.051000     -6.964000
C          -8.098000     -8.038000     -3.623000
C          -8.233000     -9.089000     -7.027000
C          -7.095000    -11.713000     -1.371000
C          -5.299000    -10.344000     -4.074000
$end

--------------------------------------------------------------

             Standard Nuclear Orientation (Angstroms)
    I     Atom           X                Y                Z
 ----------------------------------------------------------------
    1      O      -0.2963546902    -5.3721608519    -1.9143698260
    2      C      -1.3338261128    -5.7377057343    -2.8203124214
    3      H      -2.2769116786    -5.3303150423    -2.4381979887
    4      H      -1.3760450513    -6.8282639924    -2.9302134993
    5      H      -1.2854622179    -5.1322446954    -3.7339468473
    6      O       1.3763235319    -6.5547478542    -2.8817459407
    7      C       0.9916128420    -5.8290439069    -2.0388548055
    8      C       1.8172939644    -5.3520128864    -0.9175782607
    9      H       1.1707178463    -5.2878984949    -0.0340084172
   10      H       2.1361528216    -4.3214575456    -1.1126493214
   11      C       3.1405293762    -6.1022053478    -0.6945596160
   12      H       2.8734632549    -7.0105498325    -0.1422463137
   13      H       3.5813091896    -6.4610116142    -1.6325314808
   14      C       4.1716159644    -5.2194143446     0.1229992457
   15      H       3.7162655804    -4.8772695789     1.0612758505
   16      H       5.0497523365    -5.8300819751     0.3668425499
   17      C       4.7207913987    -3.9890321461    -0.7340812570
   18      C       5.4285519440    -4.3950274003    -2.0434444091
   19      C       6.8024386397    -4.5426205324    -2.1642360257
   20      H       7.4667787522    -4.2073564236    -1.3739960670
   21      C       7.3844441226    -4.8360849316    -3.4519088352
   22      H       8.4519136744    -4.8143589990    -3.6500217827
   23      C       6.6049377956    -5.1305134041    -4.5494746695
   24      H       7.1310460999    -5.3737947836    -5.4674203229
   25      C       5.2669213092    -4.8644049524    -4.4572565914
   26      H       4.5954831762    -5.0461336620    -5.2911141990
   27      C       4.6752891475    -4.5098168741    -3.2675491988
   28      H       3.6031014895    -4.3458116516    -3.2111496152
   29      C       7.8195625455     0.6271736473    -0.6002625285
   30      C       6.1311445501     1.1261874902    -2.2931617746
   31      C       3.5622861681     4.0156747480     0.1005570894
   32      C       5.4614235168    -0.7976289414     3.6696715348
   33      C       1.1279616930     1.6288469030     0.9910525626
   34      C       6.9671947705     0.2142654081    -1.6705381762
   35      C       2.9795396697     0.4390126355     3.9579200035
   36      C       5.9829151591     3.7781086981    -0.0775009354
   37      C       2.6694522186    -0.9623589661    -1.6931443570
   38      C       4.3395801666    -1.5067573087     3.3020121052
   39      C       4.0355500889    -2.6282574058    -0.6481309611
   40      C       2.0702072492    -1.3486256824    -0.4728392761
   41      C       2.3475655842    -1.2489425545     2.2939121815
   42      C       2.1119550259     1.2963793262     3.2320961657
   43      C       5.0351105366    -0.8805173402    -2.2227901542
   44      C       2.5751586241     3.3360717709     2.0227958897
   45      C       5.3538730730    -2.7713648104     0.0223880770
   46      C       5.4933405409    -2.5201155321     1.4606984140
   47      C       1.7039261785     2.9105848820     0.9707384136
   48      C       6.4118756798     2.5580785974     3.1864856493
   49      C       4.9660403087     3.9740476047     2.1381241420
   50      C       6.1294456963     3.8114745441     1.3202764153
   51      C       6.7357940141     2.8678320123    -0.8148548429
   52      C       6.6155715384    -1.7756122355     1.7464770514
   53      C       3.8851045070    -1.6626744018    -1.8196742123
   54      C       5.9980195900     2.4573082809    -1.8935967792
   55      C       3.0672548105    -0.8714288160     3.4169290090
   56      C       4.9183466908     0.4750414606    -2.6712771016
   57      C       1.3303865669    -0.4018835651     0.3099101868
   58      C       7.2519156367     0.3245188280     2.8891951726
   59      C       4.7340804756     3.8708875038    -0.6235394199
   60      C       2.9363808826    -2.2456903910     0.2333357343
   61      C       7.7971115078     2.0188144796     1.2659198701
   62      C       1.3779362082    -0.4570766864     1.6954363507
   63      C       2.5652135720     0.3444727060    -2.0575195554
   64      C       4.0138325113     2.4222990299     3.7044729764
   65      C       4.1385767666     1.1579992712     4.2441580614
   66      C       1.8646843031     1.2938358759    -1.2906230076
   67      C       6.5654284160    -0.9429443718     2.8946111447
   68      C       4.3393312329    -2.3505162570     2.2751777586
   69      C       6.5042582129     1.2333798172     3.6084733378
   70      C       6.4868351542    -1.8845686751    -0.5083647252
   71      C       3.5565905036     2.4113314370    -2.1563060211
   72      C       3.0788817942    -2.2237140151     1.5934429099
   73      C       1.1954507579     0.8955679422    -0.1252230269
   74      C       7.8689615058     0.6981235656     1.7227120413
   75      C       2.3816743484     3.3507667493    -0.1965911637
   76      C       7.6427034411     1.9775439783    -0.1465700925
   77      C       3.6885236680     4.0730445087     1.5057509565
   78      C       3.6775433528     1.1095554648    -2.5868019289
   79      C       2.4191124997     2.5404633399    -1.3332180900
   80      C       6.2904226643    -1.0320911578    -1.5954793541
   81      C       7.2559992821    -1.3635683143     0.5935849871
   82      C       5.1171469109     3.1163046615     3.2125639207
   83      C       4.7319326860     3.1020656819    -1.7852508270
   84      C       1.2823223592     0.8408497795     2.1458349309
   85      C       5.3739018073     0.5207006914     4.1195925607
   86      C       2.7278694778     2.5511535435     3.1324916910
   87      C       7.9343875277    -0.1375134380     0.5391714911
   88      C       7.0859724025     3.0102325109     2.0101929787
   89      O       1.3292244051     5.3640213254    -2.3425308479
   90      C       2.4399974492     5.5023193276    -3.2487156563
   91      H       2.2112105526     6.3066068976    -3.9572465735
   92      H       2.5401257273     4.5072568390    -3.6992908129
   93      H       3.4102874442     5.7428812526    -2.7965217977
   94      O       1.0560042891     7.5790363968    -1.8224077837
   95      C       0.7894740943     6.3933661953    -1.6469859243
   96      C      -0.3934406750     6.0013456072    -0.7754048856
   97      H      -0.8059886187     6.9056038838    -0.3119243970
   98      H       0.0646549555     5.4047308716     0.0227111778
   99      C      -1.3618476570     5.0319152221    -1.5249204929
  100      H      -1.6657564764     5.6127261908    -2.4041702004
  101      H      -0.9435366366     4.1429468698    -2.0122757624
  102      C      -2.5020085922     4.6881071386    -0.5409799237
  103      H      -1.9660692770     4.2413256141     0.3052855900
  104      H      -2.9204681425     5.6125906224    -0.1239428835
  105      C      -3.6211303178     3.7059450833    -1.0546503049
  106      C      -4.2410273597     4.3771760676    -2.1918101983
  107      C      -5.1959484351     5.3148445085    -1.8629445194
  108      H      -5.5808952609     5.2607077332    -0.8486200393
  109      C      -5.7892531617     6.0981909125    -2.8541558554
  110      H      -6.6554866703     6.7404962057    -2.7319084876
  111      C      -5.2637488137     6.0965439544    -4.1422790901
  112      H      -5.7414872204     6.7051707169    -4.9045221475
  113      C      -4.2749003358     5.1821065948    -4.4993449149
  114      H      -4.0092343680     5.1936490670    -5.5519813026
  115      C      -3.8544086043     4.2459583980    -3.5438726455
  116      H      -3.0660568221     3.5530168186    -3.8218518444
  117      C      -8.0849107125     0.6037941323    -0.0646836058
  118      C      -7.0720531503    -0.3791006680    -2.0748889113
  119      C      -5.5707006174    -4.2377271844    -0.2469222873
  120      C      -4.4572196322     0.9002721145     3.6246816827
  121      C      -2.3140893448    -3.0093523449    -0.0360780960
  122      C      -7.4216285463     0.7613016860    -1.2896236609
  123      C      -2.7093929038    -1.3357204339     3.1877228164
  124      C      -7.6178493849    -2.9034181367     0.1746358802
  125      C      -3.1436347233     0.1626055642    -2.3474600393
  126      C      -3.2367827739     1.0072594244     2.9291066756
  127      C      -3.4715912884     2.2062870849    -1.1356500983
  128      C      -2.1714250980     0.2619311349    -1.3217920250
  129      C      -1.8317665364     0.1008289229     1.4832698529
  130      C      -2.5774313953    -2.3929500253     2.3040935099
  131      C      -5.3928633681     1.1054157715    -2.3176369624
  132      C      -3.9836508063    -4.1533034721     1.4097262977
  133      C      -4.4411445811     2.7980911866    -0.1662996365
  134      C      -4.2383134673     2.5184658703     1.3017968255
  135      C      -3.3743413794    -3.9496540571     0.1171188793
  136      C      -6.6790816310    -1.8267216363     3.2814203514
  137      C      -6.2910508606    -3.7321704634     2.0350877760
  138      C      -7.4660045474    -3.0698014010     1.5734384948
  139      C      -8.2008893914    -1.8072276567    -0.4227490731
  140      C      -5.4837434655     2.3651413166     1.9310453462
  141      C      -4.0219351374     1.3228381479    -2.2362901954
  142      C      -7.4888950467    -1.6678215885    -1.6668322702
  143      C      -2.3475192086    -0.0577774496     2.7321021874
  144      C      -5.8343497857    -0.1492899261    -2.7606012447
  145      C      -1.7314788925    -0.9114910550    -0.6546903083
  146      C      -6.6483022961     0.6251052872     3.1455293299
  147      C      -6.7264007204    -3.5409725991    -0.6742796550
  148      C      -2.3573451929     1.3743547675    -0.5418308851
  149      C      -8.1768469988    -0.7567984339     1.7333143330
  150      C      -1.5851490388    -1.0379959323     0.7148326342
  151      C      -3.6302235459    -1.0933201776    -2.7231392226
  152      C      -4.4595530402    -2.7864542795     3.4199378160
  153      C      -3.9721431600    -1.5006444913     3.7984926959
  154      C      -3.1535709822    -2.2965936797    -2.2382751048
  155      C      -5.6026255160     1.5514982421     3.0871327155
  156      C      -3.1328327754     1.8236973348     1.7336337415
  157      C      -6.1593688928    -0.5579983463     3.6993017737
  158      C      -5.8923059567     2.4904941218    -0.3148785984
  159      C      -5.4169025713    -2.5504785364    -2.5340530576
  160      C      -2.2376494942     1.2748016056     0.8473192536
  161      C      -2.1566281208    -2.2164234834    -1.1889145039
  162      C      -7.7096658474     0.5261685100     2.1837003814
  163      C      -4.3720800183    -4.0424114798    -0.8971856454
  164      C      -8.4630077151    -0.6708116067     0.3654092523
  165      C      -5.3445795354    -4.3467046596     1.1148450079
  166      C      -5.0162519676    -1.2376372939    -2.9586339872
  167      C      -4.2665018794    -3.2611894688    -2.0829020644
  168      C      -6.3392529273     1.6345500159    -1.4325060377
  169      C      -6.5240077462     2.3216461204     0.9041391215
  170      C      -5.8271910138    -3.0039034925     3.1105073507
  171      C      -6.5948787800    -2.6821694700    -1.7430640882
  172      C      -1.9450529117    -2.3103688538     1.1130503521
  173      C      -4.8126457340    -0.3725892731     4.0527776698
  174      C      -3.5778323528    -3.3463490204     2.5224081460
  175      C      -7.5807484824     1.3441201711     1.0571719117
  176      C      -7.6807178483    -1.9134704177     2.3928723577
 ----------------------------------------------------------------

    9   -5804.2532868742      8.07E-06 Convergence criterion met
 Total energy in the final basis set = -5804.2532868742

                    Orbital Energies (a.u.)
 --------------------------------------------------------------

 Alpha MOs
 -- Occupied --
-19.193 -19.182 -19.136 -19.128 -10.314 -10.310 -10.249 -10.246
-10.241 -10.241 -10.241 -10.240 -10.239 -10.236 -10.234 -10.233
-10.232 -10.232 -10.231 -10.231 -10.229 -10.229 -10.229 -10.227
-10.227 -10.226 -10.226 -10.226 -10.226 -10.226 -10.225 -10.224
-10.224 -10.224 -10.224 -10.224 -10.223 -10.223 -10.223 -10.223
-10.223 -10.222 -10.222 -10.222 -10.222 -10.222 -10.222 -10.222
-10.221 -10.221 -10.221 -10.221 -10.220 -10.220 -10.220 -10.220
-10.220 -10.220 -10.220 -10.220 -10.219 -10.219 -10.219 -10.219
-10.219 -10.219 -10.219 -10.219 -10.219 -10.218 -10.218 -10.218
-10.218 -10.218 -10.218 -10.218 -10.218 -10.218 -10.218 -10.218
-10.218 -10.218 -10.217 -10.217 -10.217 -10.217 -10.217 -10.217
-10.217 -10.216 -10.216 -10.216 -10.216 -10.216 -10.216 -10.216
-10.215 -10.215 -10.215 -10.215 -10.215 -10.215 -10.215 -10.214
-10.214 -10.214 -10.214 -10.214 -10.214 -10.213 -10.213 -10.213
-10.213 -10.213 -10.212 -10.212 -10.212 -10.212 -10.212 -10.212
-10.212 -10.211 -10.211 -10.211 -10.210 -10.208 -10.208 -10.208
-10.207 -10.207 -10.207 -10.205 -10.204 -10.203 -10.203 -10.202
-10.200 -10.200 -10.197 -10.197 -10.196 -10.196 -10.195 -10.195
-10.192 -10.192 -10.191 -10.191  -1.099  -1.091  -1.024  -1.003
 -0.988  -0.984  -0.970  -0.969  -0.967  -0.964  -0.964  -0.958
 -0.936  -0.935  -0.932  -0.930  -0.930  -0.928  -0.926  -0.923
 -0.923  -0.920  -0.902  -0.898  -0.894  -0.889  -0.888  -0.886
 -0.877  -0.875  -0.856  -0.855  -0.848  -0.845  -0.843  -0.841
 -0.840  -0.838  -0.822  -0.821  -0.807  -0.805  -0.801  -0.800
 -0.799  -0.798  -0.797  -0.795  -0.795  -0.794  -0.788  -0.785
 -0.777  -0.774  -0.772  -0.772  -0.770  -0.768  -0.766  -0.765
 -0.749  -0.747  -0.743  -0.743  -0.736  -0.735  -0.720  -0.718
 -0.718  -0.716  -0.716  -0.715  -0.714  -0.714  -0.713  -0.713
 -0.711  -0.709  -0.708  -0.706  -0.703  -0.701  -0.675  -0.675
 -0.666  -0.660  -0.660  -0.659  -0.649  -0.647  -0.633  -0.633
 -0.631  -0.630  -0.629  -0.627  -0.624  -0.623  -0.621  -0.619
 -0.618  -0.617  -0.615  -0.615  -0.615  -0.612  -0.612  -0.611
 -0.610  -0.607  -0.606  -0.604  -0.569  -0.567  -0.564  -0.564
 -0.562  -0.562  -0.561  -0.560  -0.558  -0.557  -0.556  -0.552
 -0.538  -0.537  -0.536  -0.535  -0.533  -0.530  -0.528  -0.528
 -0.527  -0.526  -0.521  -0.520  -0.519  -0.519  -0.518  -0.514
 -0.508  -0.507  -0.506  -0.499  -0.495  -0.493  -0.489  -0.488
 -0.488  -0.486  -0.485  -0.484  -0.482  -0.480  -0.477  -0.477
 -0.476  -0.473  -0.473  -0.472  -0.471  -0.470  -0.469  -0.469
 -0.468  -0.467  -0.465  -0.464  -0.464  -0.463  -0.461  -0.458
 -0.457  -0.456  -0.453  -0.451  -0.450  -0.448  -0.446  -0.446
 -0.444  -0.443  -0.442  -0.442  -0.441  -0.439  -0.436  -0.434
 -0.433  -0.432  -0.431  -0.430  -0.428  -0.427  -0.426  -0.425
 -0.424  -0.423  -0.423  -0.423  -0.422  -0.422  -0.421  -0.420
 -0.420  -0.419  -0.419  -0.418  -0.417  -0.417  -0.416  -0.415
 -0.412  -0.412  -0.409  -0.407  -0.406  -0.404  -0.400  -0.400
 -0.396  -0.395  -0.394  -0.393  -0.392  -0.391  -0.389  -0.386
 -0.383  -0.380  -0.377  -0.374  -0.371  -0.370  -0.367  -0.367
 -0.366  -0.366  -0.365  -0.364  -0.363  -0.363  -0.362  -0.360
 -0.359  -0.359  -0.358  -0.357  -0.356  -0.355  -0.353  -0.352
 -0.350  -0.349  -0.348  -0.347  -0.347  -0.347  -0.346  -0.345
 -0.344  -0.343  -0.342  -0.341  -0.339  -0.339  -0.336  -0.336
 -0.334  -0.333  -0.332  -0.331  -0.330  -0.329  -0.326  -0.325
 -0.311  -0.309  -0.298  -0.298  -0.292  -0.289  -0.275  -0.274
 -0.273  -0.272  -0.272  -0.270  -0.269  -0.267  -0.266  -0.265
 -0.265  -0.263  -0.262  -0.261  -0.259  -0.257  -0.255  -0.255
 -0.250  -0.249  -0.247  -0.244  -0.226  -0.224  -0.216  -0.215
 -0.214  -0.212  -0.209  -0.206  -0.205  -0.200

          Ground-State Mulliken Net Atomic Charges

     Atom                 Charge (a.u.)
  ----------------------------------------
      1 O                    -0.484038
      2 C                    -0.083894
      3 H                     0.122211
      4 H                     0.127108
      5 H                     0.117194
      6 O                    -0.449648
      7 C                     0.607292
      8 C                    -0.271447
      9 H                     0.133278
     10 H                     0.136220
     11 C                    -0.189415
     12 H                     0.105357
     13 H                     0.139897
     14 C                    -0.194362
     15 H                     0.109858
     16 H                     0.115065
     17 C                     0.008852
     18 C                     0.085556
     19 C                    -0.125502
     20 H                     0.092164
     21 C                    -0.095759
     22 H                     0.089045
     23 C                    -0.070702
     24 H                     0.091291
     25 C                    -0.088300
     26 H                     0.094365
     27 C                    -0.090944
     28 H                     0.091142
     29 C                    -0.025774
     30 C                     0.006752
     31 C                     0.012299
     32 C                     0.025564
     33 C                     0.004577
     34 C                     0.010107
     35 C                    -0.032406
     36 C                     0.003280
     37 C                    -0.001361
     38 C                    -0.000723
     39 C                    -0.072612
     40 C                     0.004404
     41 C                     0.004754
     42 C                     0.000438
     43 C                     0.005178
     44 C                    -0.004941
     45 C                    -0.098739
     46 C                     0.037217
     47 C                    -0.041531
     48 C                    -0.007005
     49 C                    -0.013544
     50 C                    -0.005826
     51 C                     0.005649
     52 C                     0.030250
     53 C                     0.023410
     54 C                    -0.006872
     55 C                    -0.002982
     56 C                    -0.016597
     57 C                    -0.028574
     58 C                    -0.013222
     59 C                     0.032699
     60 C                     0.047459
     61 C                    -0.000842
     62 C                    -0.006293
     63 C                     0.014369
     64 C                     0.017782
     65 C                    -0.004895
     66 C                    -0.005908
     67 C                    -0.025541
     68 C                    -0.018004
     69 C                     0.007779
     70 C                    -0.002456
     71 C                    -0.027185
     72 C                    -0.028507
     73 C                     0.048047
     74 C                     0.017949
     75 C                     0.019266
     76 C                     0.000150
     77 C                    -0.015411
     78 C                    -0.009670
     79 C                     0.017414
     80 C                     0.023177
     81 C                     0.002621
     82 C                     0.024213
     83 C                    -0.028873
     84 C                     0.006149
     85 C                    -0.005394
     86 C                    -0.001448
     87 C                     0.001388
     88 C                    -0.025884
     89 O                    -0.461575
     90 C                    -0.085472
     91 H                     0.131436
     92 H                     0.126546
     93 H                     0.127654
     94 O                    -0.478010
     95 C                     0.578547
     96 C                    -0.249348
     97 H                     0.138488
     98 H                     0.124052
     99 C                    -0.191199
    100 H                     0.122761
    101 H                     0.122369
    102 C                    -0.175836
    103 H                     0.104959
    104 H                     0.115282
    105 C                     0.002064
    106 C                     0.109234
    107 C                    -0.106913
    108 H                     0.087972
    109 C                    -0.086046
    110 H                     0.089175
    111 C                    -0.083035
    112 H                     0.086615
    113 C                    -0.090626
    114 H                     0.093094
    115 C                    -0.113221
    116 H                     0.085608
    117 C                    -0.008022
    118 C                    -0.017904
    119 C                    -0.008060
    120 C                    -0.014080
    121 C                     0.017868
    122 C                    -0.001141
    123 C                    -0.013134
    124 C                     0.042066
    125 C                    -0.001864
    126 C                     0.002089
    127 C                    -0.110371
    128 C                     0.009856
    129 C                    -0.000055
    130 C                     0.027736
    131 C                     0.032477
    132 C                    -0.013615
    133 C                    -0.092784
    134 C                     0.047906
    135 C                    -0.017910
    136 C                     0.029390
    137 C                     0.013755
    138 C                    -0.044461
    139 C                    -0.027701
    140 C                    -0.015452
    141 C                     0.005840
    142 C                    -0.020191
    143 C                    -0.014212
    144 C                     0.004610
    145 C                    -0.014226
    146 C                     0.011855
    147 C                     0.006797
    148 C                     0.040796
    149 C                     0.006327
    150 C                     0.006668
    151 C                     0.040919
    152 C                    -0.019292
    153 C                     0.017575
    154 C                    -0.027028
    155 C                    -0.002890
    156 C                    -0.022402
    157 C                     0.007739
    158 C                     0.030122
    159 C                    -0.009613
    160 C                     0.040686
    161 C                    -0.026240
    162 C                    -0.028652
    163 C                     0.025801
    164 C                     0.012117
    165 C                    -0.006310
    166 C                    -0.014895
    167 C                    -0.031844
    168 C                     0.002690
    169 C                    -0.000659
    170 C                    -0.006245
    171 C                     0.031789
    172 C                     0.009876
    173 C                    -0.017822
    174 C                     0.005106
    175 C                     0.011085
    176 C                    -0.014244
  ----------------------------------------
  Sum of atomic charges =     0.000000

                    Cartesian Multipole Moments
 -----------------------------------------------------------------
    Charge (ESU x 10^10)
                 0.0000
    Dipole Moment (Debye)
         X       0.2792      Y      -1.2830      Z      -1.1915
       Tot       1.7731
    Quadrupole Moments (Debye-Ang)
        XX    -798.1563     XY     -18.3448     YY    -834.4325
        XZ       0.7981     YZ      -7.6401     ZZ    -798.4488

 Total job time:  888.79s(wall), 8547.60s(cpu)
        *  Thank you very much for using Q-Chem.  Have a nice day.  *
