 Q-Chem 4.4, Q-Chem, Inc., Pleasanton, CA (2016)
 Q-Chem 4.4.2 for Intel X86 Linux

User input:
--------------------------------------------------------------
$comment
SP
$end

$rem
MEM_STATIC 5000
MEM_TOTAL 20000
JOBTYPE SP
EXCHANGE B3LYP
BASIS 6-31g(d,p)
$end

$molecule
0 1
O          -9.332000     13.301000      9.338000
C         -10.638000     13.873000      9.582000
H         -10.998000     14.180000      8.592000
H         -10.553000     14.777000     10.197000
H         -11.240000     13.167000     10.167000
O          -8.651000     14.833000      7.850000
C          -8.465000     13.816000      8.510000
C          -7.209000     12.950000      8.433000
H          -7.595000     11.932000      8.297000
H          -6.755000     13.026000      9.428000
C          -6.321000     13.247000      7.160000
H          -6.459000     14.292000      6.857000
H          -5.300000     13.242000      7.562000
C          -6.416000     12.214000      5.916000
H          -5.463000     12.362000      5.393000
H          -6.635000     11.191000      6.245000
C          -7.483000     12.653000      4.841000
C          -6.962000     13.888000      4.152000
C          -7.399000     15.182000      4.449000
H          -8.209000     15.158000      5.171000
C          -6.878000     16.332000      3.812000
H          -7.182000     17.341000      4.074000
C          -5.729000     16.170000      2.933000
H          -5.245000     17.049000      2.518000
C          -5.393000     14.813000      2.475000
H          -4.583000     14.572000      1.792000
C          -5.914000     13.736000      3.200000
H          -5.713000     12.697000      2.956000
C         -12.656000     13.239000      3.427000
C         -11.593000     12.708000      1.281000
C         -13.322000      8.512000      1.142000
C         -11.730000      9.909000      6.991000
C         -10.514000      6.858000      2.375000
C         -11.550000     13.369000      2.545000
C         -11.455000      7.302000      5.766000
C         -14.306000     10.604000      1.785000
C          -8.434000     10.319000      2.082000
C         -10.415000      9.401000      6.751000
C          -8.032000     11.559000      4.000000
C          -8.179000      9.375000      3.061000
C          -9.245000      8.135000      5.291000
C         -11.432000      6.633000      4.572000
C          -9.450000     12.494000      2.143000
C         -12.933000      6.872000      2.660000
C          -8.912000     12.375000      4.970000
C          -9.601000     11.598000      6.099000
C         -11.818000      7.005000      1.893000
C         -14.651000      9.700000      5.140000
C         -14.639000      8.617000      3.166000
C         -14.852000      9.969000      2.948000
C         -13.795000     11.918000      1.862000
C         -10.832000     12.095000      6.298000
C          -8.427000     11.611000      2.558000
C         -12.718000     11.967000      0.967000
C         -10.330000      8.095000      6.158000
C         -10.304000     12.228000      0.990000
C          -8.705000      8.056000      3.005000
C         -13.204000     11.334000      6.224000
C         -13.539000      9.881000      0.933000
C          -8.065000     10.057000      4.267000
C         -14.317000     11.952000      4.204000
C          -9.191000      7.379000      4.081000
C          -9.293000     10.004000      1.030000
C         -13.495000      7.461000      4.918000
C         -12.672000      7.862000      5.972000
C          -9.755000      8.668000      0.959000
C         -11.922000     11.280000      6.731000
C          -9.401000     10.231000      6.262000
C         -13.794000     10.041000      6.212000
C         -10.062000     13.122000      4.452000
C         -11.305000     10.201000      0.107000
C          -8.689000      9.476000      5.351000
C          -9.473000      7.706000      1.925000
C         -13.522000     12.306000      5.286000
C         -12.072000      7.973000      0.878000
C         -13.761000     12.545000      3.065000
C         -13.845000      7.868000      2.261000
C         -10.193000     10.924000      0.474000
C         -11.017000      8.826000      0.417000
C         -10.273000     13.197000      3.068000
C         -11.136000     13.047000      5.318000
C         -14.470000      8.425000      4.552000
C         -12.590000     10.675000      0.373000
C         -10.306000      6.648000      3.745000
C         -12.819000      9.120000      6.585000
C         -12.727000      6.715000      4.020000
C         -12.448000     13.138000      4.832000
C         -14.863000     10.643000      4.118000
O           4.997000      9.634000      6.286000
C           6.385000      9.798000      5.963000
H           6.893000      8.969000      6.471000
H           6.907000     10.698000      6.311000
H           6.522000      9.635000      4.887000
O           5.294000     10.478000      8.350000
C           4.565000     10.091000      7.472000
C           3.094000      9.856000      7.590000
H           3.035000      9.152000      8.429000
H           2.681000      9.323000      6.724000
C           2.249000     11.118000      7.855000
H           2.565000     11.479000      8.842000
H           2.586000     12.010000      7.312000
C           0.712000     10.888000      7.911000
H           0.588000     10.154000      8.717000
H           0.270000     11.860000      8.159000
C           0.105000     10.463000      6.637000
C           0.271000     11.574000      5.613000
C           1.482000     11.536000      4.858000
H           2.233000     10.771000      5.028000
C           1.739000     12.669000      4.124000
H           2.664000     12.744000      3.559000
C           0.820000     13.773000      4.146000
H           1.050000     14.705000      3.638000
C          -0.408000     13.698000      4.812000
H          -1.074000     14.540000      4.650000
C          -0.707000     12.587000      5.523000
H          -1.655000     12.568000      6.052000
C          -4.572000      8.929000      4.110000
C          -2.905000      7.877000      2.753000
C          -3.728000      3.594000      4.086000
C          -3.942000      7.616000      8.952000
C          -1.092000      3.595000      6.374000
C          -3.292000      9.032000      3.464000
C          -2.960000      5.041000      9.081000
C          -5.271000      5.455000      3.622000
C           0.389000      7.037000      4.972000
C          -2.610000      7.470000      9.261000
C          -0.066000      8.957000      6.270000
C           0.573000      6.677000      6.316000
C          -0.848000      6.228000      8.702000
C          -2.532000      3.966000      8.271000
C          -1.105000      8.649000      3.927000
C          -3.461000      2.937000      6.278000
C          -1.292000      9.778000      6.600000
C          -2.096000      9.363000      7.796000
C          -2.183000      3.034000      5.677000
C          -6.229000      5.888000      6.953000
C          -5.510000      4.149000      5.644000
C          -5.960000      5.168000      4.831000
C          -5.040000      6.738000      3.214000
C          -3.457000      9.530000      7.500000
C          -0.037000      8.343000      4.833000
C          -3.775000      6.766000      2.569000
C          -2.138000      6.145000      9.297000
C          -1.519000      7.643000      2.999000
C           0.318000      5.355000      6.706000
C          -5.513000      8.175000      7.411000
C          -4.167000      4.673000      3.273000
C           0.183000      7.786000      7.141000
C          -6.076000      7.575000      5.152000
C          -0.428000      5.163000      7.891000
C          -0.047000      6.074000      4.029000
C          -4.728000      4.193000      7.929000
C          -4.328000      5.259000      8.791000
C          -0.275000      4.728000      4.394000
C          -4.380000      8.601000      8.062000
C          -1.640000      8.313000      8.623000
C          -5.822000      6.857000      7.848000
C          -2.375000      9.972000      5.541000
C          -1.819000      5.275000      2.881000
C          -0.506000      7.519000      8.354000
C          -0.151000      4.442000      5.742000
C          -5.705000      8.480000      6.091000
C          -2.378000      3.369000      4.303000
C          -5.462000      7.868000      4.009000
C          -4.343000      3.386000      5.272000
C          -0.986000      6.348000      3.024000
C          -1.355000      4.182000      3.651000
C          -2.225000      9.515000      4.220000
C          -3.551000      9.819000      6.127000
C          -5.727000      4.550000      6.988000
C          -3.198000      5.474000      2.657000
C          -1.245000      4.051000      7.700000
C          -4.868000      6.531000      8.813000
C          -3.607000      3.409000      7.580000
C          -4.686000      9.281000      5.465000
C          -6.333000      6.259000      5.603000
$end

--------------------------------------------------------------

             Standard Nuclear Orientation (Angstroms)
    I     Atom           X                Y                Z
 ----------------------------------------------------------------
    1      O       3.0017761330    -3.5307968874     4.8466686698
    2      C       4.3193490942    -3.8335858733     5.3611356969
    3      H       4.9320950244    -4.0170018060     4.4695920801
    4      H       4.3002029368    -4.7617774214     5.9448821100
    5      H       4.6262787073    -3.0455355678     6.0595882210
    6      O       2.9785812367    -5.1033865249     3.2493731966
    7      C       2.4517785683    -4.1756986755     3.8546493341
    8      C       1.0860145203    -3.5824616273     3.5137983843
    9      H       1.2701067853    -2.5020849165     3.4617195909
   10      H       0.4625025074    -3.7930219882     4.3906188358
   11      C       0.5622352989    -3.9990904710     2.0822405846
   12      H       0.9752959603    -4.9795361256     1.8158100902
   13      H      -0.4977213407    -4.2206020127     2.2597076495
   14      C       0.6938423723    -2.9152967280     0.8856952654
   15      H      -0.0781050297    -3.2322027904     0.1734384605
   16      H       0.6212448391    -1.8844599902     1.2528957805
   17      C       2.0275212045    -3.0794457847     0.0603523914
   18      C       1.9301429028    -4.3636900034    -0.7223488627
   19      C       2.5571825669    -5.5526022213    -0.3390435043
   20      H       3.1772916731    -5.3948807753     0.5376255563
   21      C       2.4312865542    -6.7559928261    -1.0709664826
   22      H       2.8788136773    -7.6918946290    -0.7501109238
   23      C       1.4806654938    -6.7943421916    -2.1727536334
   24      H       1.2876063726    -7.7348323002    -2.6800292304
   25      C       0.9702322245    -5.5161444848    -2.6921547308
   26      H       0.2866383153    -5.4164277752    -3.5308596522
   27      C       1.0932263447    -4.3879737681    -1.8741704520
   28      H       0.7341571922    -3.4024475985    -2.1557117683
   29      C       7.3865760710    -2.5325377615    -0.2297226883
   30      C       6.7026014286    -2.1372433715    -2.5520420104
   31      C       7.5062296668     2.3257200859    -2.3255098210
   32      C       5.0689735476     0.3790395769     3.0565986511
   33      C       4.2216819472     3.3149204753    -1.7138744171
   34      C       6.5387542277    -2.8474995453    -1.3251939097
   35      C       4.5137594116     2.9254882748     1.7996041037
   36      C       8.7515806960     0.4532923718    -1.4880826483
   37      C       3.0180211375    -0.4822871904    -2.4371894238
   38      C       3.7553593754     0.6172287835     2.5441801616
   39      C       2.4970959085    -1.8606807983    -0.6464923619
   40      C       2.3746638493     0.3459979605    -1.5346169288
   41      C       2.6737108986     1.6794787618     0.8693913521
   42      C       4.5983938892     3.6270143535     0.6272457259
   43      C       4.4315010945    -2.4039700676    -2.1618508495
   44      C       6.4779040300     3.7837055967    -0.9247708606
   45      C       3.3086089908    -2.5208629521     0.4878629797
   46      C       3.5715100368    -1.6692902829     1.7363813132
   47      C       5.5983601814     3.4589575200    -1.9097298978
   48      C       8.1994509974     1.2616748822     1.8636238593
   49      C       8.3690682319     2.4042831288    -0.0690906536
   50      C       8.9004805120     1.1352688614    -0.2364249824
   51      C       8.5221092411    -0.9395384895    -1.5198795544
   52      C       4.8110001808    -1.9121214380     2.1909890705
   53      C       3.1832924754    -1.7678804123    -1.9726203195
   54      C       7.6877476341    -1.1687926418    -2.6219858298
   55      C       3.5233835976     1.9027888668     1.9458219823
   56      C       5.4302269792    -1.9188930596    -3.1088080311
   57      C       2.6130904054     1.7458718888    -1.4791303336
   58      C       6.9343198001    -0.6794522239     2.6187990784
   59      C       8.0431627656     1.0405080440    -2.4831925871
   60      C       2.1593224165    -0.3967918192    -0.3794340816
   61      C       8.5445481648    -0.9680499894     0.8795552935
   62      C       2.7138204402     2.4604352773    -0.3252006894
   63      C       3.9904204293     0.0473274731    -3.2843953760
   64      C       6.6720139928     3.2243157622     1.4013274467
   65      C       5.7516005459     2.6178815539     2.2581370158
   66      C       4.1672155352     1.4513854447    -3.2570878177
   67      C       5.5929606441    -0.9110204473     2.8437896835
   68      C       3.0607431805    -0.3805514734     1.8526890909
   69      C       7.2302719872     0.7061730199     2.7308168753
   70      C       4.6710289159    -2.9934902530     0.2246741082
   71      C       6.1453477511     0.3065354641    -3.7618694120
   72      C       2.4103854073     0.2517796117     0.8114964259
   73      C       3.4969702215     2.2923150657    -2.3729313881
   74      C       7.6352847323    -1.5240156702     1.7696155005
   75      C       6.2532157203     2.6085674906    -2.8476883303
   76      C       8.3723488055    -1.6120473223    -0.3507783262
   77      C       7.6403487313     3.0137093837    -1.1217204695
   78      C       5.1579178290    -0.6439634288    -3.6373864673
   79      C       5.5184397559     1.5786878285    -3.5204491821
   80      C       5.1741875831    -2.9633524687    -1.0835785698
   81      C       5.5030728823    -2.7381612935     1.2977849880
   82      C       7.8811677943     2.4970625508     1.2499112955
   83      C       7.4178062525     0.0943235043    -3.2303880423
   84      C       3.6960430514     3.4180200601    -0.4187534857
   85      C       6.0286672466     1.3910724373     2.8891009092
   86      C       5.9673280406     3.8358225935     0.3610288818
   87      C       6.8765099027    -2.5375520800     1.0996746791
   88      C       8.8103779030     0.4274442070     0.9099444076
   89      O     -10.8310851209    -2.7434416435    -1.1628117779
   90      C     -12.0567696781    -3.1737043560    -1.7713677444
   91      H     -12.8206361820    -2.4891107082    -1.3825123710
   92      H     -12.4393143159    -4.1757536078    -1.5408359743
   93      H     -11.9996233604    -2.9954495202    -2.8521422408
   94      O     -11.3646304115    -3.7194762513     0.7925211521
   95      C     -10.5674796055    -3.1536330627     0.0879176621
   96      C      -9.2349810956    -2.6280269981     0.5135653873
   97      H      -9.4990971966    -1.9640915704     1.3457014537
   98      H      -8.7728891133    -1.9845859068    -0.2460849019
   99      C      -8.2180498053    -3.7007813278     0.9516782715
  100      H      -8.6483907965    -4.1614553506     1.8499722523
  101      H      -8.2414515604    -4.6183317404     0.3503168177
  102      C      -6.8086180694    -3.1638601520     1.3306543031
  103      H      -7.0100663015    -2.4558522093     2.1442336557
  104      H      -6.2340353775    -4.0347374412     1.6669272242
  105      C      -6.0542542098    -2.5685605843     0.2132002360
  106      C      -5.7690754122    -3.6443213317    -0.8221088326
  107      C      -6.7786255625    -3.8220155099    -1.8156999322
  108      H      -7.6915749771    -3.2349914916    -1.8084771741
  109      C      -6.6357091163    -4.9505443438    -2.5867327205
  110      H      -7.3874903103    -5.1885066459    -3.3341776877
  111      C      -5.5309176976    -5.8430652814    -2.3706232647
  112      H      -5.4509063463    -6.7793652529    -2.9151676129
  113      C      -4.5103771123    -5.5475145465    -1.4605069661
  114      H      -3.6642184556    -6.2275736464    -1.4778028700
  115      C      -4.6037975579    -4.4309041164    -0.7030792351
  116      H      -3.8108846610    -4.2414287107     0.0140638528
  117      C      -1.3829104617    -0.0015247243    -1.2707433210
  118      C      -2.9161105034     0.7452913845    -2.9496135756
  119      C      -3.3006223713     5.0438291302    -1.4754932034
  120      C      -3.2595841959     0.9425386550     3.3284602004
  121      C      -6.2924365665     4.4038563765     0.2046626511
  122      C      -2.4514270639    -0.3359660890    -2.1722677214
  123      C      -4.7634704639     3.2540490001     3.2457799876
  124      C      -1.3406920755     3.5598951036    -1.6022963593
  125      C      -6.6985268898     0.7961028820    -1.4762699390
  126      C      -4.6270925236     0.7993341666     3.3493036254
  127      C      -6.1300415621    -1.0448991914    -0.1103399269
  128      C      -7.2272333224     1.0519272505    -0.2015874685
  129      C      -6.4556235649     1.6777367506     2.4302975693
  130      C      -5.2301656366     4.2530023294     2.3630587056
  131      C      -4.7175423203    -0.4290459051    -2.1814759972
  132      C      -4.1458964552     5.5361490968     0.6103962409
  133      C      -4.8546088027    -1.6112943628     0.4714545265
  134      C      -4.4199014900    -1.0931057431     1.8099488696
  135      C      -5.2230487946     5.2060231985    -0.2467231959
  136      C      -1.0222766968     3.1873121657     1.8561147789
  137      C      -1.8029681272     4.7977868173     0.4238245545
  138      C      -0.9918148700     3.9288213812    -0.2752887869
  139      C      -1.2088656804     2.2757976500    -2.0490955661
  140      C      -3.0229659575    -0.9650701856     1.8079453795
  141      C      -5.9894587738    -0.3877946580    -1.5214586717
  142      C      -2.2789395204     2.0177223558    -2.9465213956
  143      C      -5.3628338714     1.9968888592     3.2840929881
  144      C      -4.3406316272     0.6798378487    -3.0017998051
  145      C      -7.3405607726     2.3798564133     0.2326590372
  146      C      -1.3228402718     0.7844628549     2.1540505557
  147      C      -2.4874326940     4.1139405625    -2.1768923768
  148      C      -6.7928450572     0.0112981216     0.6877965044
  149      C      -0.4437394773     1.5848128189     0.0643922754
  150      C      -6.9123738741     2.6685915698     1.5482931008
  151      C      -6.2884960240     1.8680924452    -2.3065873876
  152      C      -3.0130653464     4.4951995478     2.4923483432
  153      C      -3.3504151842     3.3333834228     3.2511489618
  154      C      -6.4274885940     3.2150562727    -1.9024902297
  155      C      -2.4511125941     0.1077214772     2.5515284474
  156      C      -5.2461650912    -0.1956636898     2.5214622022
  157      C      -1.3934217042     2.1174800515     2.6456371858
  158      C      -3.5601886211    -1.5332871627    -0.3350175872
  159      C      -4.5248439975     3.0619710089    -3.0552358396
  160      C      -6.4406103323     0.3604925305     2.0187258651
  161      C      -6.8841924335     3.4106185555    -0.6111912726
  162      C      -0.8029477778     0.5830126152     0.9044831923
  163      C      -4.6828627552     4.9782035485    -1.5484233342
  164      C      -0.7333033832     1.2224871702    -1.1822700159
  165      C      -3.0012020885     5.3213659163    -0.1865378796
  166      C      -5.1261316936     1.8360557701    -3.0906185189
  167      C      -5.3559784526     4.0023090244    -2.4011525620
  168      C      -3.5263739510    -1.0595194058    -1.6581920581
  169      C      -2.5891469865    -1.1686142692     0.4858799854
  170      C      -1.7892056315     4.3914852522     1.7835876338
  171      C      -3.1188777169     3.1592594695    -2.9830432273
  172      C      -6.3246254136     3.9314623713     1.5333570411
  173      C      -2.5727406931     2.1990406720     3.3873727099
  174      C      -4.1764733716     5.0477227909     1.9141633964
  175      C      -1.4801191781    -0.3814620343     0.0780053976
  176      C      -0.5664965046     2.9046256768     0.5586904977
 ----------------------------------------------------------------

    9   -5804.2251859769      7.89E-06 Convergence criterion met
 Total energy in the final basis set = -5804.2251859769

                    Orbital Energies (a.u.)
 --------------------------------------------------------------

 Alpha MOs
 -- Occupied --
-19.198 -19.197 -19.136 -19.130 -10.316 -10.314 -10.253 -10.246
-10.246 -10.237 -10.237 -10.237 -10.236 -10.236 -10.235 -10.229
-10.226 -10.225 -10.225 -10.224 -10.224 -10.223 -10.223 -10.221
-10.221 -10.221 -10.221 -10.221 -10.221 -10.220 -10.220 -10.220
-10.219 -10.219 -10.219 -10.219 -10.219 -10.218 -10.218 -10.218
-10.218 -10.218 -10.217 -10.217 -10.217 -10.217 -10.217 -10.217
-10.217 -10.217 -10.217 -10.216 -10.216 -10.216 -10.216 -10.216
-10.216 -10.216 -10.216 -10.216 -10.216 -10.215 -10.215 -10.215
-10.215 -10.214 -10.214 -10.214 -10.214 -10.214 -10.214 -10.214
-10.214 -10.214 -10.214 -10.214 -10.213 -10.213 -10.213 -10.213
-10.213 -10.213 -10.213 -10.213 -10.213 -10.213 -10.213 -10.213
-10.213 -10.212 -10.212 -10.212 -10.212 -10.212 -10.212 -10.212
-10.212 -10.212 -10.212 -10.212 -10.211 -10.211 -10.211 -10.211
-10.211 -10.211 -10.211 -10.211 -10.210 -10.210 -10.210 -10.210
-10.210 -10.210 -10.209 -10.209 -10.209 -10.209 -10.209 -10.209
-10.208 -10.208 -10.208 -10.207 -10.207 -10.207 -10.207 -10.206
-10.206 -10.206 -10.206 -10.205 -10.204 -10.204 -10.203 -10.203
-10.203 -10.202 -10.202 -10.202 -10.202 -10.201 -10.200 -10.199
-10.197 -10.196 -10.195 -10.192  -1.111  -1.108  -1.019  -1.007
 -0.986  -0.984  -0.968  -0.967  -0.966  -0.963  -0.963  -0.961
 -0.937  -0.933  -0.929  -0.928  -0.927  -0.926  -0.926  -0.925
 -0.924  -0.920  -0.897  -0.894  -0.894  -0.893  -0.890  -0.889
 -0.878  -0.876  -0.856  -0.844  -0.843  -0.843  -0.842  -0.841
 -0.838  -0.838  -0.823  -0.817  -0.807  -0.801  -0.800  -0.799
 -0.797  -0.796  -0.794  -0.793  -0.792  -0.792  -0.786  -0.786
 -0.774  -0.774  -0.769  -0.768  -0.767  -0.767  -0.766  -0.764
 -0.761  -0.745  -0.743  -0.742  -0.732  -0.731  -0.719  -0.718
 -0.717  -0.716  -0.715  -0.714  -0.713  -0.712  -0.711  -0.710
 -0.709  -0.708  -0.708  -0.705  -0.703  -0.701  -0.673  -0.673
 -0.662  -0.660  -0.658  -0.657  -0.649  -0.646  -0.632  -0.631
 -0.631  -0.629  -0.628  -0.624  -0.624  -0.619  -0.619  -0.616
 -0.616  -0.615  -0.614  -0.613  -0.613  -0.611  -0.610  -0.607
 -0.606  -0.605  -0.604  -0.602  -0.571  -0.565  -0.565  -0.563
 -0.563  -0.562  -0.560  -0.559  -0.556  -0.556  -0.553  -0.552
 -0.538  -0.536  -0.535  -0.532  -0.531  -0.529  -0.526  -0.526
 -0.524  -0.523  -0.522  -0.519  -0.518  -0.516  -0.516  -0.513
 -0.510  -0.506  -0.502  -0.499  -0.494  -0.493  -0.491  -0.488
 -0.486  -0.485  -0.484  -0.483  -0.482  -0.481  -0.479  -0.476
 -0.475  -0.474  -0.472  -0.472  -0.470  -0.469  -0.469  -0.468
 -0.466  -0.465  -0.464  -0.464  -0.463  -0.462  -0.462  -0.458
 -0.457  -0.454  -0.451  -0.449  -0.448  -0.447  -0.447  -0.445
 -0.443  -0.443  -0.442  -0.439  -0.439  -0.438  -0.437  -0.435
 -0.432  -0.431  -0.430  -0.429  -0.427  -0.426  -0.426  -0.425
 -0.425  -0.424  -0.423  -0.422  -0.421  -0.420  -0.419  -0.419
 -0.419  -0.418  -0.418  -0.417  -0.416  -0.416  -0.415  -0.413
 -0.412  -0.411  -0.410  -0.407  -0.401  -0.399  -0.398  -0.398
 -0.395  -0.395  -0.393  -0.391  -0.390  -0.389  -0.388  -0.383
 -0.382  -0.376  -0.375  -0.372  -0.371  -0.369  -0.367  -0.365
 -0.364  -0.363  -0.363  -0.362  -0.362  -0.361  -0.360  -0.359
 -0.358  -0.356  -0.356  -0.354  -0.354  -0.353  -0.353  -0.353
 -0.350  -0.349  -0.349  -0.348  -0.346  -0.346  -0.344  -0.342
 -0.341  -0.340  -0.340  -0.338  -0.338  -0.337  -0.334  -0.334
 -0.333  -0.332  -0.331  -0.329  -0.328  -0.326  -0.324  -0.321
 -0.312  -0.303  -0.302  -0.301  -0.287  -0.283  -0.275  -0.274
 -0.272  -0.271  -0.269  -0.269  -0.268  -0.268  -0.267  -0.266
 -0.264  -0.263  -0.262  -0.261  -0.259  -0.256  -0.253  -0.251
 -0.248  -0.246  -0.244  -0.239  -0.220  -0.219  -0.215  -0.212
 -0.212  -0.208  -0.207  -0.205  -0.203  -0.194

          Ground-State Mulliken Net Atomic Charges

     Atom                 Charge (a.u.)
  ----------------------------------------
      1 O                    -0.439477
      2 C                    -0.089099
      3 H                     0.140570
      4 H                     0.127863
      5 H                     0.133510
      6 O                    -0.499429
      7 C                     0.590183
      8 C                    -0.269688
      9 H                     0.133390
     10 H                     0.134582
     11 C                    -0.196806
     12 H                     0.140554
     13 H                     0.092325
     14 C                    -0.177837
     15 H                     0.118103
     16 H                     0.107161
     17 C                     0.013857
     18 C                     0.096298
     19 C                    -0.111911
     20 H                     0.118993
     21 C                    -0.101901
     22 H                     0.100516
     23 C                    -0.106256
     24 H                     0.093805
     25 C                    -0.097033
     26 H                     0.093632
     27 C                    -0.107497
     28 H                     0.089027
     29 C                     0.000911
     30 C                     0.004384
     31 C                     0.005664
     32 C                    -0.049016
     33 C                    -0.003569
     34 C                    -0.019308
     35 C                    -0.012369
     36 C                    -0.018386
     37 C                    -0.004043
     38 C                    -0.036241
     39 C                    -0.109007
     40 C                     0.022275
     41 C                    -0.002497
     42 C                     0.027942
     43 C                     0.013864
     44 C                    -0.020247
     45 C                    -0.093997
     46 C                     0.038907
     47 C                     0.027027
     48 C                    -0.023245
     49 C                    -0.009518
     50 C                     0.003582
     51 C                    -0.014821
     52 C                     0.013269
     53 C                     0.027850
     54 C                     0.000353
     55 C                    -0.011231
     56 C                    -0.044130
     57 C                     0.038075
     58 C                     0.022629
     59 C                     0.041930
     60 C                     0.033045
     61 C                    -0.008121
     62 C                    -0.005573
     63 C                    -0.012059
     64 C                    -0.004697
     65 C                     0.016573
     66 C                     0.011494
     67 C                     0.007542
     68 C                     0.006032
     69 C                    -0.030736
     70 C                     0.037085
     71 C                    -0.012243
     72 C                     0.002231
     73 C                    -0.018458
     74 C                    -0.027869
     75 C                    -0.025823
     76 C                     0.032350
     77 C                     0.003420
     78 C                     0.031649
     79 C                    -0.018419
     80 C                     0.021815
     81 C                     0.002363
     82 C                    -0.006143
     83 C                    -0.010446
     84 C                    -0.023771
     85 C                     0.046226
     86 C                     0.000302
     87 C                    -0.014729
     88 C                     0.024689
     89 O                    -0.449922
     90 C                    -0.096958
     91 H                     0.125822
     92 H                     0.138879
     93 H                     0.122694
     94 O                    -0.471011
     95 C                     0.590568
     96 C                    -0.255447
     97 H                     0.136935
     98 H                     0.125838
     99 C                    -0.209898
    100 H                     0.117902
    101 H                     0.118808
    102 C                    -0.176960
    103 H                     0.108073
    104 H                     0.114443
    105 C                     0.022645
    106 C                     0.044770
    107 C                    -0.077250
    108 H                     0.107733
    109 C                    -0.101663
    110 H                     0.089257
    111 C                    -0.082493
    112 H                     0.086068
    113 C                    -0.089103
    114 H                     0.096357
    115 C                    -0.084000
    116 H                     0.096552
    117 C                    -0.015397
    118 C                    -0.000183
    119 C                     0.019330
    120 C                     0.007445
    121 C                     0.006271
    122 C                    -0.022497
    123 C                     0.002729
    124 C                     0.020753
    125 C                     0.038235
    126 C                    -0.029308
    127 C                    -0.097371
    128 C                    -0.005639
    129 C                     0.001975
    130 C                     0.000036
    131 C                     0.007552
    132 C                    -0.024759
    133 C                    -0.122946
    134 C                     0.049048
    135 C                    -0.005153
    136 C                     0.024246
    137 C                     0.009157
    138 C                    -0.027750
    139 C                    -0.020012
    140 C                    -0.046221
    141 C                     0.004507
    142 C                    -0.019560
    143 C                     0.003791
    144 C                    -0.005664
    145 C                    -0.023415
    146 C                    -0.012971
    147 C                    -0.016629
    148 C                     0.053795
    149 C                     0.052681
    150 C                     0.008551
    151 C                    -0.006569
    152 C                    -0.011461
    153 C                     0.011567
    154 C                    -0.010783
    155 C                     0.031577
    156 C                    -0.006384
    157 C                    -0.022678
    158 C                     0.057964
    159 C                     0.031884
    160 C                    -0.022772
    161 C                     0.018100
    162 C                    -0.011172
    163 C                    -0.013580
    164 C                    -0.001404
    165 C                     0.022729
    166 C                    -0.003669
    167 C                    -0.030644
    168 C                     0.002231
    169 C                     0.022206
    170 C                    -0.033425
    171 C                     0.007932
    172 C                    -0.010995
    173 C                    -0.011890
    174 C                     0.022762
    175 C                    -0.012534
    176 C                     0.015546
  ----------------------------------------
  Sum of atomic charges =     0.000000

                    Cartesian Multipole Moments
 -----------------------------------------------------------------
    Charge (ESU x 10^10)
                 0.0000
    Dipole Moment (Debye)
         X      -1.8139      Y      -2.4264      Z       0.2544
       Tot       3.0401
    Quadrupole Moments (Debye-Ang)
        XX    -812.6809     XY       6.0222     YY    -801.8389
        XZ      32.8830     YZ       7.6388     ZZ    -795.0227

 Total job time:  887.74s(wall), 8507.60s(cpu)
        *  Thank you very much for using Q-Chem.  Have a nice day.  *
