 Q-Chem 4.4, Q-Chem, Inc., Pleasanton, CA (2016)
 Q-Chem 4.4.2 for Intel X86 Linux

User input:
--------------------------------------------------------------
$comment
SP
$end

$rem
MEM_STATIC 5000
MEM_TOTAL 20000
JOBTYPE SP
EXCHANGE B3LYP
BASIS 6-31g(d,p)
$end

$molecule
0 1
O         -11.195000      6.469000     -1.826000
C         -11.843000      7.426000     -2.781000
H         -12.268000      6.847000     -3.610000
H         -11.241000      8.268000     -3.143000
H         -12.673000      7.977000     -2.322000
O         -13.046000      5.203000     -1.483000
C         -11.884000      5.415000     -1.254000
C         -10.943000      4.403000     -0.593000
H         -10.455000      4.917000      0.244000
H         -10.293000      4.098000     -1.423000
C         -11.583000      3.169000     -0.073000
H         -12.008000      2.617000     -0.920000
H         -10.773000      2.496000      0.231000
C         -12.544000      3.205000      1.099000
H         -12.236000      3.948000      1.846000
H         -13.434000      3.676000      0.665000
C         -12.884000      1.883000      1.904000
C         -14.041000      1.064000      1.238000
C         -13.723000      0.155000      0.210000
H         -12.681000      0.137000     -0.094000
C         -14.700000     -0.688000     -0.294000
H         -14.437000     -1.470000     -1.000000
C         -16.019000     -0.528000      0.147000
H         -16.804000     -1.145000     -0.281000
C         -16.361000      0.377000      1.188000
H         -17.368000      0.531000      1.563000
C         -15.366000      1.210000      1.676000
H         -15.604000      1.903000      2.478000
C         -14.296000     -0.193000      6.833000
C         -13.004000     -2.021000      5.821000
C          -9.283000     -1.799000      8.395000
C         -11.413000      4.021000      6.824000
C          -7.439000     -0.044000      5.879000
C         -13.960000     -0.958000      5.680000
C          -8.640000      3.305000      6.922000
C         -11.619000     -1.634000      8.971000
C         -10.339000     -0.645000      3.146000
C         -10.639000      4.015000      5.595000
C         -11.818000      1.181000      2.734000
C          -9.607000      0.512000      3.158000
C          -8.996000      2.841000      4.590000
C          -7.817000      2.136000      6.996000
C         -12.657000     -0.974000      3.800000
C          -8.051000      0.145000      8.265000
C         -12.915000      1.904000      3.448000
C         -12.475000      3.058000      4.288000
C          -7.761000     -0.605000      7.113000
C         -11.384000      1.806000      9.397000
C          -9.987000      0.106000      9.751000
C         -11.333000     -0.431000      9.698000
C         -12.798000     -1.654000      8.213000
C         -13.263000      3.016000      5.493000
C         -11.648000     -0.305000      3.056000
C         -12.495000     -2.354000      7.057000
C          -9.252000      3.699000      5.711000
C         -12.302000     -2.081000      4.603000
C          -8.412000      0.615000      3.952000
C         -12.916000      2.903000      7.911000
C         -10.587000     -2.290000      8.306000
C         -10.428000      1.630000      3.033000
C         -13.356000      0.609000      8.753000
C          -8.057000      1.778000      4.654000
C          -9.950000     -1.723000      3.938000
C          -9.097000      2.208000      8.879000
C          -9.439000      3.282000      8.090000
C          -8.825000     -1.632000      4.738000
C         -12.708000      3.518000      6.678000
C         -11.165000      3.508000      4.451000
C         -11.799000      2.952000      8.710000
C         -13.764000      1.127000      4.392000
C         -10.366000     -2.720000      5.966000
C         -10.128000      2.805000      3.794000
C          -8.074000     -0.512000      4.739000
C         -13.715000      1.708000      7.892000
C          -8.517000     -1.760000      7.206000
C         -13.637000     -0.551000      8.044000
C          -8.953000     -0.587000      9.063000
C         -10.903000     -2.396000      4.692000
C          -9.056000     -2.299000      6.014000
C         -13.686000     -0.304000      4.486000
C         -14.042000      1.838000      5.492000
C         -10.060000      1.502000      9.584000
C         -11.144000     -2.785000      7.135000
C          -7.470000      1.392000      5.826000
C         -10.819000      3.673000      8.031000
C          -8.046000      1.516000      8.192000
C         -14.306000      1.208000      6.729000
C         -12.177000      0.647000      9.513000
O           4.997000      9.634000      6.286000
C           6.385000      9.798000      5.963000
H           6.893000      8.969000      6.471000
H           6.907000     10.698000      6.311000
H           6.522000      9.635000      4.887000
O           5.294000     10.478000      8.350000
C           4.565000     10.091000      7.472000
C           3.094000      9.856000      7.590000
H           3.035000      9.152000      8.429000
H           2.681000      9.323000      6.724000
C           2.249000     11.118000      7.855000
H           2.565000     11.479000      8.842000
H           2.586000     12.010000      7.312000
C           0.712000     10.888000      7.911000
H           0.588000     10.154000      8.717000
H           0.270000     11.860000      8.159000
C           0.105000     10.463000      6.637000
C           0.271000     11.574000      5.613000
C           1.482000     11.536000      4.858000
H           2.233000     10.771000      5.028000
C           1.739000     12.669000      4.124000
H           2.664000     12.744000      3.559000
C           0.820000     13.773000      4.146000
H           1.050000     14.705000      3.638000
C          -0.408000     13.698000      4.812000
H          -1.074000     14.540000      4.650000
C          -0.707000     12.587000      5.523000
H          -1.655000     12.568000      6.052000
C          -4.572000      8.929000      4.110000
C          -2.905000      7.877000      2.753000
C          -3.728000      3.594000      4.086000
C          -3.942000      7.616000      8.952000
C          -1.092000      3.595000      6.374000
C          -3.292000      9.032000      3.464000
C          -2.960000      5.041000      9.081000
C          -5.271000      5.455000      3.622000
C           0.389000      7.037000      4.972000
C          -2.610000      7.470000      9.261000
C          -0.066000      8.957000      6.270000
C           0.573000      6.677000      6.316000
C          -0.848000      6.228000      8.702000
C          -2.532000      3.966000      8.271000
C          -1.105000      8.649000      3.927000
C          -3.461000      2.937000      6.278000
C          -1.292000      9.778000      6.600000
C          -2.096000      9.363000      7.796000
C          -2.183000      3.034000      5.677000
C          -6.229000      5.888000      6.953000
C          -5.510000      4.149000      5.644000
C          -5.960000      5.168000      4.831000
C          -5.040000      6.738000      3.214000
C          -3.457000      9.530000      7.500000
C          -0.037000      8.343000      4.833000
C          -3.775000      6.766000      2.569000
C          -2.138000      6.145000      9.297000
C          -1.519000      7.643000      2.999000
C           0.318000      5.355000      6.706000
C          -5.513000      8.175000      7.411000
C          -4.167000      4.673000      3.273000
C           0.183000      7.786000      7.141000
C          -6.076000      7.575000      5.152000
C          -0.428000      5.163000      7.891000
C          -0.047000      6.074000      4.029000
C          -4.728000      4.193000      7.929000
C          -4.328000      5.259000      8.791000
C          -0.275000      4.728000      4.394000
C          -4.380000      8.601000      8.062000
C          -1.640000      8.313000      8.623000
C          -5.822000      6.857000      7.848000
C          -2.375000      9.972000      5.541000
C          -1.819000      5.275000      2.881000
C          -0.506000      7.519000      8.354000
C          -0.151000      4.442000      5.742000
C          -5.705000      8.480000      6.091000
C          -2.378000      3.369000      4.303000
C          -5.462000      7.868000      4.009000
C          -4.343000      3.386000      5.272000
C          -0.986000      6.348000      3.024000
C          -1.355000      4.182000      3.651000
C          -2.225000      9.515000      4.220000
C          -3.551000      9.819000      6.127000
C          -5.727000      4.550000      6.988000
C          -3.198000      5.474000      2.657000
C          -1.245000      4.051000      7.700000
C          -4.868000      6.531000      8.813000
C          -3.607000      3.409000      7.580000
C          -4.686000      9.281000      5.465000
C          -6.333000      6.259000      5.603000
$end

--------------------------------------------------------------

             Standard Nuclear Orientation (Angstroms)
    I     Atom           X                Y                Z
 ----------------------------------------------------------------
    1      O      -3.3472548485     8.2326185669     0.0515128454
    2      C      -3.4434037551     9.6480433725     0.5363901571
    3      H      -4.1993056079    10.1657256272    -0.0667055833
    4      H      -2.5141014725    10.2262952235     0.6029789290
    5      H      -3.7744848820     9.7108007450     1.5802430201
    6      O      -5.5442273573     7.7451342398     0.3383522192
    7      C      -4.4454336946     7.3936824212    -0.0033539503
    8      C      -4.1678423407     6.1351792928    -0.8313991881
    9      H      -3.3954457142     5.5652706772    -0.3008177888
   10      H      -3.8850943864     6.5455564923    -1.8091870733
   11      C      -5.3311639571     5.2424666662    -1.0605344824
   12      H      -6.0738159764     5.7884207971    -1.6547903743
   13      H      -5.0082826020     4.4791618171    -1.7778617005
   14      C      -5.9859850196     4.4822015653     0.0759545640
   15      H      -5.2433023833     4.1392583040     0.8078933737
   16      H      -6.5003932833     5.2760128084     0.6305218263
   17      C      -6.9225992832     3.2385930119    -0.2198502488
   18      C      -8.3992988574     3.6661023110    -0.5191162953
   19      C      -8.7466476842     4.0269386650    -1.8356780744
   20      H      -7.9282487330     4.0427084244    -2.5487548384
   21      C     -10.0721698799     4.2654291611    -2.1601887705
   22      H     -10.3618678073     4.4271584311    -3.1941364259
   23      C     -11.0260281839     4.2640970237    -1.1354963477
   24      H     -12.0597336711     4.5043492600    -1.3675089092
   25      C     -10.6993901820     3.8956877483     0.1976398875
   26      H     -11.4060382265     3.8775904438     1.0214790883
   27      C      -9.3662058073     3.6618968034     0.4976719146
   28      H      -9.0959120319     3.3703337929     1.5086265555
   29      C      -8.7507137834    -1.6215797438     1.6867905560
   30      C      -8.8059232248    -1.9355281972    -0.7490625361
   31      C      -5.3579469627    -4.8402135649    -1.1904961218
   32      C      -4.0265807930    -0.2251782901     3.0292496684
   33      C      -3.1114404920    -2.2749888637    -2.2783600423
   34      C      -9.0154605227    -1.0894260218     0.3928618176
   35      C      -2.1303400578    -1.2737015873     1.1539739636
   36      C      -7.1337419042    -4.7260599768     0.4372072554
   37      C      -6.1098881823     0.3978915335    -2.6031858897
   38      C      -3.5148641877     0.6396463027     1.9805468794
   39      C      -6.3522943148     1.9586082792    -0.8152083992
   40      C      -4.8604680916     0.7823513241    -2.1960531027
   41      C      -2.9155438838     0.5568663864    -0.1924033406
   42      C      -2.0962046067    -2.0844749988    -0.0253679064
   43      C      -8.1383989091     0.2035924878    -1.2778658861
   44      C      -3.2719544254    -4.0675425071    -0.5859511931
   45      C      -6.7820732189     1.9481145884     0.6169626716
   46      C      -5.6922098156     1.6952217067     1.6064872809
   47      C      -3.5661539878    -3.5187121128    -1.8452906294
   48      C      -4.9800427800    -3.4794382954     2.8616279008
   49      C      -4.7407897534    -4.9119028599     1.1711462355
   50      C      -6.1547926175    -4.8251800266     1.4809349544
   51      C      -8.1924186605    -3.8301739320     0.6411599961
   52      C      -6.2446195761     0.8306902089     2.6175074319
   53      C      -7.0082645525     0.9308597628    -1.7394464823
   54      C      -8.4484339806    -3.2567360381    -0.5932508503
   55      C      -2.5362226234     0.0788001605     1.1060222695
   56      C      -8.3825489087    -1.0899769959    -1.7910439920
   57      C      -3.7387413721    -0.1075484708    -2.3334485977
   58      C      -5.7798486184    -1.3491186731     3.6236501628
   59      C      -6.7152924711    -4.7101983582    -0.8902841687
   60      C      -4.9264810120     1.6112577330    -1.0788483500
   61      C      -7.3369665201    -3.0707270044     2.7424869577
   62      C      -2.7277167210    -0.2202268463    -1.3657034150
   63      C      -6.3109505766    -0.8799712869    -3.1202057402
   64      C      -2.9227956792    -3.3581547404     1.6727958415
   65      C      -2.6849250486    -2.0952717009     2.1642274152
   66      C      -5.2530073014    -1.7650908450    -3.2261557016
   67      C      -5.3888960263    -0.0546952000     3.2868981131
   68      C      -4.3453733656     1.4814136763     1.3141061887
   69      C      -4.7520093341    -2.2518691496     3.4929635799
   70      C      -7.8205357581     0.9635868859     1.0268001488
   71      C      -7.0067760343    -2.9854648976    -2.5180657334
   72      C      -3.9482003109     1.4667032381    -0.0435624629
   73      C      -4.0096504149    -1.3934178694    -2.8596521517
   74      C      -7.1063713950    -1.7310058712     3.2220452686
   75      C      -4.8237422747    -3.9857602093    -2.1837397044
   76      C      -8.2860273704    -2.9672192325     1.7346121423
   77      C      -4.3436148640    -4.8948646504    -0.1943979075
   78      C      -7.3961589410    -1.6301586988    -2.6852394737
   79      C      -5.6876017314    -3.1158782414    -2.8901094382
   80      C      -8.5444726583     0.1760316518     0.0684927254
   81      C      -7.5433828847     0.4372908144     2.2263849644
   82      C      -4.0395390642    -4.0805340321     2.0650742769
   83      C      -7.5673629771    -3.8328439582    -1.5465921068
   84      C      -2.3418795597    -1.5302510459    -1.3197112255
   85      C      -3.6102940357    -1.5480711717     3.1155558646
   86      C      -2.5109518577    -3.3452820013     0.2996050466
   87      C      -7.9884521174    -0.8552366851     2.5842271659
   88      C      -6.2680568008    -3.9596210934     2.5517402392
   89      O      12.5735312174    -0.7303214775    -1.9971232389
   90      C      13.7766517921    -0.6880044073    -2.7771739733
   91      H      13.7840654260    -1.6318169518    -3.3362195161
   92      H      14.7433327138    -0.6651442692    -2.2589139907
   93      H      13.6911340434     0.1139246015    -3.5206190484
   94      O      13.4951194254    -2.1373762015    -0.5032982229
   95      C      12.5907774535    -1.4175774327    -0.8441051040
   96      C      11.2591766759    -1.3019908993    -0.1759216544
   97      H      10.9020309909    -2.3390155077    -0.1826239939
   98      H      10.5351059117    -0.7334614998    -0.7735083430
   99      C      11.2926395011    -0.7285060610     1.2547737637
  100      H      11.8529888110    -1.4608122633     1.8498218936
  101      H      12.0132990592     0.0864065516     1.3984721810
  102      C       9.9032289884    -0.5432444520     1.9282881017
  103      H       9.4724886295    -1.5522651522     1.9178972545
  104      H      10.1055057868    -0.1854084811     2.9445014231
  105      C       9.0386671371     0.4662933987     1.2914866151
  106      C       9.6923639463     1.8324536966     1.4208679201
  107      C      10.5938148846     2.1827161252     0.3707762875
  108      H      10.8033905829     1.5016886074    -0.4480066793
  109      C      11.3637719424     3.2935571075     0.6191559187
  110      H      12.1114803825     3.6013926787    -0.1065467407
  111      C      11.2238803210     4.0131329298     1.8546728025
  112      H      11.8821443677     4.8416320188     2.0993474933
  113      C      10.2365345254     3.6875150247     2.7907744315
  114      H      10.1407354324     4.3799172853     3.6215365173
  115      C       9.4419236495     2.6161585900     2.5670962123
  116      H       8.7028728353     2.3709745817     3.3237960842
  117      C       4.0761514810     2.9118471230     1.3684238937
  118      C       4.7280607797     3.1806631307    -0.9184504405
  119      C       1.7957150337     0.1691210858    -2.6877073289
  120      C       4.3476621530    -1.9630591785     2.6827311281
  121      C       4.1976463222    -2.3574015812    -2.8633498594
  122      C       5.1239626899     3.2224119175     0.4346326007
  123      C       3.7346571198    -3.5344084549     0.4994592071
  124      C       1.5148690666     1.8050732762    -0.8699471760
  125      C       7.1966591540     0.1596328872    -2.0406782849
  126      C       5.3950247292    -2.5930190978     2.0524905913
  127      C       8.0216064414     0.0886234908     0.1712549507
  128      C       7.2820288035    -1.1933946262    -1.6776072576
  129      C       6.0991152578    -3.1129166637     0.0046497653
  130      C       3.4072407453    -3.4628831876    -0.8726164664
  131      C       6.7593203846     2.1564995334    -0.7201240837
  132      C       1.8687338613    -2.0639110057    -2.1255348206
  133      C       7.5017357354     0.4794545559     1.5361734565
  134      C       6.7273327335    -0.5538639684     2.2988069321
  135      C       2.9160514841    -1.7939026869    -3.0388339527
  136      C       1.2996640197    -0.5926541353     1.6609427955
  137      C       0.7920956380    -0.4840198272    -0.5717989999
  138      C       0.9078956963     0.7967966887    -0.0738739062
  139      C       2.3795989702     2.7180337863    -0.3364124529
  140      C       5.6690730071     0.0817044387     2.9651140321
  141      C       7.5595983641     1.0027912920    -1.0092753402
  142      C       3.3733428511     2.9949154158    -1.3125495654
  143      C       5.0491106764    -3.3684051723     0.9305169269
  144      C       5.7645816149     2.5495175397    -1.6691486497
  145      C       6.3739800382    -2.1045643632    -2.2344071769
  146      C       3.2103379399    -0.0370471354     3.0728263007
  147      C       1.9540247301     1.4764302475    -2.1549674338
  148      C       7.6612160840    -1.2697131492    -0.2944953715
  149      C       2.1860165019     1.7123600722     1.7803906104
  150      C       5.7705791145    -3.0339303949    -1.3570297755
  151      C       6.2062557750     0.5910219365    -2.9570399139
  152      C       1.6896102563    -2.5727035722     0.2446278022
  153      C       2.6996546490    -2.8777466107     1.2069993882
  154      C       5.3045837966    -0.3165944516    -3.5571608478
  155      C       4.4467029300    -0.6361242950     3.1112211972
  156      C       6.6005986173    -1.8628366740     1.7841284698
  157      C       2.2647105453    -0.9740146315     2.5713736690
  158      C       6.6113698922     1.7120413457     1.6775398984
  159      C       4.1856240550     1.5738780996    -3.1745949978
  160      C       7.0657904174    -2.2717264159     0.5171798646
  161      C       5.3821475787    -1.6238858165    -3.1107875207
  162      C       3.0901177806     1.2709051193     2.6892940169
  163      C       2.8046813634    -0.4250733945    -3.4287429994
  164      C       2.7411172687     2.6844092825     1.0618661004
  165      C       1.2914673163    -0.7981036287    -1.8887732945
  166      C       5.4845662132     1.7842835401    -2.8083357725
  167      C       4.0358169488     0.2906382300    -3.7522612230
  168      C       6.3481990731     2.5766770665     0.6007222767
  169      C       5.6154081404     1.4049068576     2.4921008815
  170      C       0.9711302154    -1.3801742524     0.5140554407
  171      C       3.1375636677     2.1679389207    -2.4396942115
  172      C       4.4582870312    -3.2260833193    -1.7830353409
  173      C       2.9657797687    -2.1618479370     2.3588390080
  174      C       2.1416627039    -2.9061128278    -1.0505883392
  175      C       4.3138673795     1.9597024750     2.3733302181
  176      C       1.2857625207     0.7528746320     1.2605478847
 ----------------------------------------------------------------

    9   -5804.2560308101      8.18E-06 Convergence criterion met
 Total energy in the final basis set = -5804.2560308101

                    Orbital Energies (a.u.)
 --------------------------------------------------------------

 Alpha MOs
 -- Occupied --
-19.197 -19.188 -19.140 -19.135 -10.319 -10.315 -10.252 -10.248
-10.245 -10.244 -10.239 -10.237 -10.235 -10.235 -10.234 -10.227
-10.225 -10.224 -10.224 -10.224 -10.224 -10.223 -10.221 -10.221
-10.221 -10.220 -10.220 -10.220 -10.219 -10.219 -10.219 -10.219
-10.219 -10.219 -10.218 -10.218 -10.217 -10.217 -10.217 -10.217
-10.217 -10.217 -10.217 -10.217 -10.216 -10.216 -10.216 -10.216
-10.215 -10.215 -10.215 -10.215 -10.215 -10.215 -10.215 -10.215
-10.215 -10.214 -10.214 -10.214 -10.214 -10.214 -10.214 -10.214
-10.214 -10.214 -10.214 -10.214 -10.213 -10.213 -10.213 -10.213
-10.213 -10.213 -10.213 -10.213 -10.213 -10.212 -10.212 -10.212
-10.212 -10.212 -10.212 -10.212 -10.212 -10.212 -10.212 -10.211
-10.211 -10.211 -10.211 -10.211 -10.211 -10.211 -10.211 -10.211
-10.211 -10.211 -10.210 -10.210 -10.210 -10.210 -10.210 -10.210
-10.210 -10.210 -10.210 -10.210 -10.210 -10.210 -10.210 -10.209
-10.209 -10.209 -10.209 -10.209 -10.209 -10.209 -10.208 -10.208
-10.208 -10.208 -10.208 -10.208 -10.207 -10.207 -10.207 -10.207
-10.206 -10.206 -10.206 -10.205 -10.204 -10.203 -10.201 -10.201
-10.200 -10.199 -10.199 -10.199 -10.198 -10.198 -10.197 -10.197
-10.196 -10.195 -10.194 -10.192  -1.107  -1.085  -1.018  -1.007
 -0.982  -0.981  -0.964  -0.964  -0.962  -0.961  -0.960  -0.959
 -0.931  -0.930  -0.926  -0.925  -0.924  -0.924  -0.922  -0.922
 -0.920  -0.918  -0.894  -0.892  -0.891  -0.888  -0.887  -0.886
 -0.874  -0.873  -0.854  -0.852  -0.841  -0.841  -0.839  -0.836
 -0.835  -0.834  -0.821  -0.820  -0.810  -0.805  -0.799  -0.797
 -0.794  -0.794  -0.793  -0.792  -0.791  -0.790  -0.784  -0.782
 -0.772  -0.769  -0.767  -0.766  -0.765  -0.764  -0.764  -0.762
 -0.758  -0.753  -0.743  -0.739  -0.731  -0.729  -0.716  -0.714
 -0.714  -0.713  -0.711  -0.710  -0.710  -0.709  -0.709  -0.708
 -0.708  -0.707  -0.706  -0.705  -0.703  -0.702  -0.671  -0.671
 -0.658  -0.657  -0.656  -0.655  -0.647  -0.647  -0.630  -0.629
 -0.627  -0.626  -0.625  -0.624  -0.622  -0.621  -0.617  -0.614
 -0.614  -0.613  -0.612  -0.611  -0.610  -0.609  -0.609  -0.606
 -0.605  -0.604  -0.602  -0.601  -0.570  -0.566  -0.563  -0.561
 -0.560  -0.558  -0.557  -0.557  -0.554  -0.552  -0.552  -0.551
 -0.536  -0.533  -0.533  -0.532  -0.529  -0.526  -0.523  -0.523
 -0.522  -0.521  -0.517  -0.517  -0.516  -0.514  -0.513  -0.511
 -0.509  -0.505  -0.504  -0.500  -0.491  -0.491  -0.488  -0.486
 -0.484  -0.483  -0.482  -0.479  -0.479  -0.477  -0.477  -0.474
 -0.472  -0.470  -0.470  -0.470  -0.468  -0.467  -0.465  -0.465
 -0.463  -0.463  -0.463  -0.462  -0.461  -0.460  -0.459  -0.456
 -0.455  -0.453  -0.450  -0.448  -0.447  -0.446  -0.445  -0.443
 -0.442  -0.441  -0.440  -0.439  -0.438  -0.437  -0.435  -0.435
 -0.433  -0.431  -0.429  -0.428  -0.427  -0.427  -0.424  -0.424
 -0.423  -0.422  -0.422  -0.420  -0.420  -0.418  -0.418  -0.417
 -0.417  -0.416  -0.415  -0.415  -0.414  -0.413  -0.412  -0.412
 -0.411  -0.409  -0.408  -0.405  -0.399  -0.398  -0.397  -0.396
 -0.395  -0.393  -0.393  -0.389  -0.388  -0.387  -0.385  -0.384
 -0.380  -0.378  -0.374  -0.373  -0.370  -0.368  -0.367  -0.364
 -0.363  -0.362  -0.362  -0.361  -0.361  -0.360  -0.360  -0.357
 -0.356  -0.356  -0.356  -0.354  -0.354  -0.352  -0.351  -0.351
 -0.349  -0.348  -0.347  -0.347  -0.347  -0.344  -0.344  -0.342
 -0.342  -0.339  -0.339  -0.336  -0.335  -0.333  -0.332  -0.331
 -0.331  -0.330  -0.328  -0.327  -0.326  -0.324  -0.323  -0.322
 -0.310  -0.301  -0.300  -0.299  -0.286  -0.284  -0.274  -0.272
 -0.270  -0.269  -0.269  -0.268  -0.267  -0.266  -0.265  -0.263
 -0.262  -0.261  -0.259  -0.258  -0.258  -0.257  -0.255  -0.254
 -0.246  -0.245  -0.243  -0.243  -0.220  -0.218  -0.212  -0.210
 -0.208  -0.207  -0.206  -0.204  -0.200  -0.196

          Ground-State Mulliken Net Atomic Charges

     Atom                 Charge (a.u.)
  ----------------------------------------
      1 O                    -0.492607
      2 C                    -0.087903
      3 H                     0.133874
      4 H                     0.131929
      5 H                     0.129215
      6 O                    -0.453782
      7 C                     0.593914
      8 C                    -0.259151
      9 H                     0.134465
     10 H                     0.145439
     11 C                    -0.176556
     12 H                     0.112397
     13 H                     0.099063
     14 C                    -0.192499
     15 H                     0.097148
     16 H                     0.142073
     17 C                     0.001591
     18 C                     0.088913
     19 C                    -0.098644
     20 H                     0.088393
     21 C                    -0.083679
     22 H                     0.094124
     23 C                    -0.093379
     24 H                     0.086996
     25 C                    -0.083207
     26 H                     0.094564
     27 C                    -0.108870
     28 H                     0.090762
     29 C                    -0.022697
     30 C                     0.038408
     31 C                    -0.003252
     32 C                    -0.023476
     33 C                    -0.032217
     34 C                    -0.035188
     35 C                    -0.006556
     36 C                    -0.012019
     37 C                     0.035550
     38 C                    -0.019839
     39 C                    -0.082846
     40 C                     0.000144
     41 C                     0.003691
     42 C                     0.032405
     43 C                     0.003156
     44 C                     0.019761
     45 C                    -0.102693
     46 C                     0.026383
     47 C                     0.031501
     48 C                     0.021875
     49 C                    -0.038842
     50 C                    -0.019360
     51 C                     0.013046
     52 C                    -0.015957
     53 C                     0.036090
     54 C                    -0.001755
     55 C                    -0.030705
     56 C                    -0.047042
     57 C                    -0.028307
     58 C                    -0.016999
     59 C                     0.034012
     60 C                     0.025741
     61 C                    -0.030116
     62 C                     0.015921
     63 C                    -0.006845
     64 C                    -0.013544
     65 C                     0.005852
     66 C                    -0.007811
     67 C                     0.019481
     68 C                     0.037281
     69 C                    -0.000267
     70 C                     0.057319
     71 C                     0.024384
     72 C                    -0.016057
     73 C                     0.031421
     74 C                    -0.005889
     75 C                    -0.016748
     76 C                     0.017294
     77 C                    -0.007964
     78 C                    -0.009926
     79 C                    -0.020527
     80 C                     0.014021
     81 C                     0.007728
     82 C                     0.022540
     83 C                    -0.027285
     84 C                    -0.012476
     85 C                    -0.000843
     86 C                    -0.023326
     87 C                     0.007801
     88 C                     0.023331
     89 O                    -0.449776
     90 C                    -0.096893
     91 H                     0.125711
     92 H                     0.138702
     93 H                     0.122506
     94 O                    -0.471197
     95 C                     0.590473
     96 C                    -0.255902
     97 H                     0.137039
     98 H                     0.126026
     99 C                    -0.209007
    100 H                     0.117616
    101 H                     0.118282
    102 C                    -0.176939
    103 H                     0.108270
    104 H                     0.114576
    105 C                     0.022084
    106 C                     0.043516
    107 C                    -0.076498
    108 H                     0.107578
    109 C                    -0.101996
    110 H                     0.088748
    111 C                    -0.081874
    112 H                     0.085568
    113 C                    -0.088359
    114 H                     0.093322
    115 C                    -0.082658
    116 H                     0.097746
    117 C                    -0.006382
    118 C                    -0.000762
    119 C                     0.017489
    120 C                     0.008594
    121 C                     0.004923
    122 C                    -0.020170
    123 C                     0.001265
    124 C                     0.017468
    125 C                     0.038518
    126 C                    -0.029190
    127 C                    -0.097484
    128 C                    -0.006459
    129 C                     0.001525
    130 C                     0.000277
    131 C                     0.007019
    132 C                    -0.024640
    133 C                    -0.122847
    134 C                     0.048975
    135 C                    -0.005603
    136 C                     0.029647
    137 C                     0.016550
    138 C                    -0.024848
    139 C                    -0.016203
    140 C                    -0.040730
    141 C                     0.004336
    142 C                    -0.020626
    143 C                     0.004245
    144 C                    -0.005433
    145 C                    -0.023123
    146 C                     0.000501
    147 C                    -0.016344
    148 C                     0.054307
    149 C                     0.057343
    150 C                     0.007398
    151 C                    -0.007506
    152 C                    -0.020713
    153 C                     0.011479
    154 C                    -0.010531
    155 C                     0.029359
    156 C                    -0.006759
    157 C                    -0.026484
    158 C                     0.059093
    159 C                     0.030729
    160 C                    -0.023005
    161 C                     0.017868
    162 C                    -0.024038
    163 C                    -0.013557
    164 C                    -0.010886
    165 C                     0.023890
    166 C                    -0.004383
    167 C                    -0.031957
    168 C                     0.001691
    169 C                     0.019406
    170 C                    -0.026494
    171 C                     0.007665
    172 C                    -0.010579
    173 C                    -0.010329
    174 C                     0.023460
    175 C                    -0.011877
    176 C                     0.006909
  ----------------------------------------
  Sum of atomic charges =     0.000000

                    Cartesian Multipole Moments
 -----------------------------------------------------------------
    Charge (ESU x 10^10)
                 0.0000
    Dipole Moment (Debye)
         X       1.8345      Y       4.8270      Z      -0.4754
       Tot       5.1857
    Quadrupole Moments (Debye-Ang)
        XX    -784.0151     XY      17.0919     YY    -788.5792
        XZ      -0.2692     YZ       1.7912     ZZ    -798.2444

 Total job time:  853.52s(wall), 8131.55s(cpu)
        *  Thank you very much for using Q-Chem.  Have a nice day.  *
