 Q-Chem 4.4, Q-Chem, Inc., Pleasanton, CA (2016)
 Q-Chem 4.4.2 for Intel X86 Linux

User input:
--------------------------------------------------------------
$comment
SP
$end

$rem
MEM_STATIC 5000
MEM_TOTAL 20000
JOBTYPE SP
EXCHANGE B3LYP
BASIS 6-31g(d,p)
$end

$molecule
0 1
O           9.796000    -22.416000     11.121000
C           9.374000    -23.615000     10.310000
H           8.417000    -24.032000     10.646000
H          10.162000    -24.355000     10.499000
H           9.249000    -23.284000      9.272000
O          11.831000    -22.373000      9.950000
C          11.047000    -21.864000     10.739000
C          11.278000    -20.672000     11.625000
H          12.074000    -20.177000     11.055000
H          11.782000    -21.042000     12.527000
C          10.044000    -19.811000     11.905000
H           9.236000    -20.208000     11.278000
H           9.783000    -19.828000     12.970000
C          10.210000    -18.363000     11.421000
H           9.395000    -17.774000     11.859000
H          11.086000    -17.958000     11.944000
C          10.238000    -18.013000      9.927000
C           9.167000    -18.661000      9.060000
C           9.392000    -19.884000      8.469000
H          10.401000    -20.283000      8.431000
C           8.473000    -20.518000      7.666000
H           8.750000    -21.470000      7.223000
C           7.264000    -19.933000      7.516000
H           6.511000    -20.484000      6.961000
C           6.872000    -18.810000      8.269000
H           5.880000    -18.381000      8.168000
C           7.887000    -18.169000      8.994000
H           7.694000    -17.283000      9.593000
C          13.487000    -17.122000      5.499000
C          11.634000    -15.622000      5.156000
C          13.989000    -11.874000      6.099000
C          15.569000    -16.514000     10.108000
C          12.825000    -11.591000      9.423000
C          12.127000    -16.817000      5.645000
C          15.323000    -13.856000     10.730000
C          14.596000    -13.796000      4.816000
C          10.143000    -14.484000      8.844000
C          14.522000    -16.139000     10.971000
C          10.707000    -16.610000      9.598000
C          10.652000    -14.292000     10.124000
C          13.069000    -14.421000     11.400000
C          14.878000    -12.592000     10.386000
C          10.583000    -16.142000      7.156000
C          14.885000    -11.554000      8.156000
C          11.613000    -17.709000      9.273000
C          13.019000    -17.600000      9.888000
C          13.502000    -11.310000      8.222000
C          16.876000    -14.963000      7.202000
C          16.052000    -12.980000      6.584000
C          15.810000    -13.889000      5.579000
C          13.878000    -14.961000      4.543000
C          13.949000    -18.039000      8.969000
C          10.259000    -15.817000      8.495000
C          12.512000    -14.671000      4.623000
C          14.427000    -14.768000     11.288000
C          10.656000    -15.189000      6.135000
C          11.419000    -13.092000     10.346000
C          15.909000    -17.075000      7.935000
C          13.679000    -12.809000      5.108000
C          11.095000    -15.505000     10.598000
C          15.608000    -16.311000      5.637000
C          12.656000    -13.108000     11.056000
C          10.204000    -13.455000      7.815000
C          16.367000    -13.292000      8.878000
C          16.272000    -14.311000      9.847000
C          10.975000    -12.306000      8.096000
C          15.230000    -17.435000      9.055000
C          13.252000    -16.602000     10.906000
C          16.734000    -15.978000      8.208000
C          12.037000    -17.965000      7.866000
C          11.323000    -12.910000      5.903000
C          12.319000    -15.551000     11.216000
C          11.555000    -12.104000      9.338000
C          15.418000    -17.342000      6.625000
C          12.914000    -11.412000      6.939000
C          14.386000    -16.228000      4.914000
C          15.164000    -11.928000      6.817000
C          10.428000    -13.851000      6.476000
C          11.643000    -11.949000      6.894000
C          11.447000    -17.162000      6.831000
C          13.356000    -18.268000      7.701000
C          16.701000    -13.621000      7.566000
C          12.370000    -13.357000      5.048000
C          13.523000    -12.206000     10.488000
C          16.482000    -15.616000      9.538000
C          15.533000    -12.221000      9.207000
C          14.115000    -17.885000      6.529000
C          16.308000    -15.146000      5.937000
O           7.617000    -14.510000     -2.674000
C           6.378000    -14.555000     -3.409000
H           5.563000    -14.715000     -2.693000
H           6.454000    -15.444000     -4.046000
H           6.115000    -13.638000     -3.951000
O           8.578000    -13.523000     -4.448000
C           8.634000    -13.895000     -3.332000
C           9.942000    -13.900000     -2.437000
H           9.942000    -14.930000     -2.059000
H           9.680000    -13.245000     -1.597000
C          11.184000    -13.295000     -3.160000
H          11.540000    -13.838000     -4.044000
H          10.820000    -12.350000     -3.583000
C          12.354000    -13.093000     -2.188000
H          12.074000    -12.306000     -1.478000
H          12.465000    -13.969000     -1.537000
C          13.702000    -12.496000     -2.725000
C          13.629000    -11.482000     -3.872000
C          13.813000    -10.127000     -3.618000
H          13.858000     -9.825000     -2.576000
C          13.683000     -9.240000     -4.666000
H          13.845000     -8.171000     -4.562000
C          13.397000     -9.659000     -5.981000
H          13.317000     -8.959000     -6.807000
C          13.304000    -11.003000     -6.260000
H          13.096000    -11.441000     -7.232000
C          13.414000    -11.935000     -5.161000
H          13.326000    -12.988000     -5.409000
C          18.895000    -13.879000     -4.183000
C          19.161000    -11.637000     -3.220000
C          21.158000    -12.963000      0.705000
C          16.435000    -16.871000     -0.817000
C          18.238000    -12.737000      2.719000
C          18.418000    -12.548000     -3.977000
C          17.110000    -15.983000      1.679000
C          21.427000    -13.724000     -1.600000
C          16.319000    -11.053000     -0.499000
C          15.517000    -16.098000     -0.145000
C          14.818000    -12.344000     -1.728000
C          15.649000    -11.864000      0.435000
C          15.322000    -14.390000      1.400000
C          17.808000    -15.117000      2.513000
C          16.963000    -11.292000     -2.751000
C          20.107000    -14.261000      2.230000
C          14.922000    -13.457000     -2.723000
C          14.971000    -14.811000     -2.143000
C          19.611000    -12.943000      2.408000
C          20.003000    -16.813000     -0.930000
C          21.218000    -15.284000      0.245000
C          21.395000    -15.072000     -1.128000
C          20.837000    -13.293000     -2.799000
C          15.955000    -15.548000     -2.841000
C          15.899000    -11.299000     -1.784000
C          20.335000    -12.028000     -2.580000
C          15.845000    -15.675000      1.181000
C          18.253000    -10.849000     -2.452000
C          16.223000    -12.170000      1.675000
C          18.036000    -16.856000     -2.437000
C          21.339000    -12.686000     -0.709000
C          14.749000    -12.671000     -0.210000
C          19.962000    -15.549000     -3.022000
C          16.138000    -13.458000      2.177000
C          17.590000    -10.573000     -0.125000
C          19.315000    -16.304000      1.284000
C          18.004000    -16.729000      0.950000
C          18.203000    -10.929000      1.074000
C          16.670000    -16.562000     -2.129000
C          14.831000    -15.049000     -0.762000
C          18.680000    -17.259000     -1.249000
C          16.141000    -13.437000     -3.655000
C          19.781000    -10.823000     -0.572000
C          14.649000    -14.006000      0.231000
C          17.536000    -11.779000      1.960000
C          18.682000    -16.015000     -3.382000
C          20.292000    -12.127000      1.481000
C          20.049000    -14.280000     -3.548000
C          21.070000    -14.254000      1.160000
C          18.584000    -10.485000     -1.127000
C          19.551000    -11.112000      0.821000
C          17.084000    -12.386000     -3.641000
C          16.668000    -14.734000     -3.696000
C          20.352000    -16.382000      0.338000
C          20.717000    -11.617000     -1.339000
C          17.337000    -13.857000      2.720000
C          17.661000    -17.258000     -0.319000
C          19.202000    -15.271000      2.249000
C          17.986000    -14.965000     -4.030000
C          20.634000    -15.958000     -1.843000
$end

--------------------------------------------------------------

             Standard Nuclear Orientation (Angstroms)
    I     Atom           X                Y                Z
 ----------------------------------------------------------------
    1      O     -10.7717566191     1.6348879854    -4.5725420625
    2      C     -10.5858741381     2.4710082894    -5.8134113305
    3      H     -11.3794301808     3.2175843005    -5.9380189815
    4      H     -10.6563860608     1.7471827045    -6.6352200621
    5      H      -9.6348124590     3.0072559722    -5.7106976254
    6      O      -8.9353894836     0.3199493355    -5.2151983399
    7      C      -9.7821698643     0.6333797246    -4.3899817755
    8      C     -10.1109106791    -0.0638292695    -3.0996135741
    9      H      -9.1544924341    -0.5708703138    -2.9215278645
   10      H     -10.8052183208    -0.8767170237    -3.3479488268
   11      C     -10.5892483948     0.8441538586    -1.9641679925
   12      H     -10.4801349575     1.8759075775    -2.3207917737
   13      H     -11.6240783147     0.6144885351    -1.6830703652
   14      C      -9.6764108729     0.7808985910    -0.7307814230
   15      H     -10.2065272441     1.2683454212     0.0964804586
   16      H      -9.6657901105    -0.2670488018    -0.4042489418
   17      C      -8.2625035123     1.3775256186    -0.7456866356
   18      C      -8.1224607400     2.7713721588    -1.3425231664
   19      C      -7.8791448010     2.9341627545    -2.6878601412
   20      H      -7.5644053372     2.0818755130    -3.2822266341
   21      C      -7.7305453434     4.1627410180    -3.2877265027
   22      H      -7.5156855963     4.1908078661    -4.3518362438
   23      C      -7.9060906397     5.2600209872    -2.5185928874
   24      H      -7.8831814781     6.2244810227    -3.0165155823
   25      C      -8.3858316292     5.1847586134    -1.1972351924
   26      H      -8.5640836096     6.0798875612    -0.6096329474
   27      C      -8.4265375393     3.9036507847    -0.6281686232
   28      H      -8.7633205689     3.7380058414     0.3917259516
   29      C      -2.8627121621     0.3234074906    -1.5752373250
   30      C      -2.8558152733     2.0020956175     0.1519617386
   31      C      -1.6419395845    -0.8442090813     3.4546626596
   32      C      -5.8703486583    -3.6056767393    -0.3654072454
   33      C      -4.9110792349    -1.2773612256     4.7231523781
   34      C      -3.4379055241     1.4510437037    -0.9739635379
   35      C      -5.7266876168    -3.8879298244     2.3571023875
   36      C      -0.8511468634    -0.6606833347     1.2075340089
   37      C      -6.3194001965     1.6285663252     2.3843426084
   38      C      -6.9249654046    -3.0773833243     0.4028977630
   39      C      -7.3779198322     0.9791893966     0.4185517279
   40      C      -7.1752356614     0.5973541907     2.7564879979
   41      C      -7.3673839609    -2.1128183518     2.4328372288
   42      C      -5.2314648181    -3.4491514446     3.5721270428
   43      C      -5.1646099006     2.1154728347     0.3297649332
   44      C      -2.9830653887    -2.5722621821     4.0476880033
   45      C      -7.0601949585     0.4052597534    -0.8867902462
   46      C      -7.0070888060    -1.1317292546    -0.9290575620
   47      C      -3.5157019073    -1.3838074843     4.5772678088
   48      C      -2.3686650782    -3.6424553366     0.1782336657
   49      C      -1.5733861642    -2.8071822852     2.0921405021
   50      C      -1.0621871962    -2.0727794524     1.0461012608
   51      C      -1.2404182431     0.2027141209     0.1826971309
   52      C      -5.9688583916    -1.5252425469    -1.7472304627
   53      C      -6.3621147884     1.7928958826     1.0120025411
   54      C      -1.7649757483     1.3658358986     0.7557967331
   55      C      -6.8349217649    -3.2498535959     1.7997875755
   56      C      -3.9669989928     2.4129245948     0.9879666986
   57      C      -6.7119124725    -0.2907037168     3.7929520713
   58      C      -4.0103436753    -2.9128762015    -1.4666151632
   59      C      -1.1774675438    -0.0527633257     2.4009618769
   60      C      -7.7693481126     0.0991892242     1.6201975151
   61      C      -1.9052287378    -1.7066747232    -1.2045653707
   62      C      -6.8450859081    -1.7069551880     3.6879682325
   63      C      -5.0972119562     1.9336497625     3.1154944405
   64      C      -3.5364808150    -4.0634645919     2.2565155552
   65      C      -4.7169718188    -4.3127806209     1.5280723470
   66      C      -4.6986461333     1.0206897678     4.1161204110
   67      C      -5.3592846530    -2.7624157690    -1.4140709278
   68      C      -7.5069694612    -1.8714833289     0.2065040788
   69      C      -3.5987603408    -3.8661810225    -0.5283337144
   70      C      -5.7436711072     0.6619708788    -1.5393431918
   71      C      -2.8307290105     1.7187939900     2.9677715453
   72      C      -7.8364470675    -1.2626554466     1.4682342864
   73      C      -5.4903951322    -0.0583850951     4.4745879311
   74      C      -3.1433565141    -1.8781688186    -1.9206899303
   75      C      -2.6620199718    -0.2883647639     4.3062154167
   76      C      -1.7350968550    -0.3040052077    -1.0418528244
   77      C      -1.8177775854    -2.2051285471     3.3279969379
   78      C      -3.9601516365     2.3519480949     2.3860882885
   79      C      -3.2835951958     0.9161332244     4.0441775624
   80      C      -4.8402510368     1.5722870537    -0.8918166379
   81      C      -5.1675749682    -0.4208303703    -2.1346999703
   82      C      -2.3596888414    -3.7612802992     1.5746165127
   83      C      -1.8042588860     1.1932671694     2.1327723570
   84      C      -5.7425641091    -2.3138277895     4.2393921422
   85      C      -4.7490696203    -4.2525215344     0.1723642023
   86      C      -3.8374471384    -3.5533228634     3.5214316350
   87      C      -3.7349818974    -0.6222320868    -2.1935934510
   88      C      -1.5465679683    -2.5657386074    -0.1698689441
   89      O       2.6950037599     8.9204098865     0.2360375120
   90      C       2.8311877245    10.3546671348     0.2776436836
   91      H       1.8388033176    10.7858745777     0.4557288601
   92      H       3.1538731411    10.6419328881    -0.7299368387
   93      H       3.4685585014    10.7470538989     1.0798987055
   94      O       4.9089880191     8.7483857084     0.5728570220
   95      C       3.8507073464     8.2434445906     0.4630732104
   96      C       3.5878951096     6.6819049352     0.3964576497
   97      H       2.9559374602     6.6064417498    -0.4972530625
   98      H       2.9461678874     6.4929334084     1.2657935654
   99      C       4.8862021510     5.8326941749     0.5531672885
  100      H       5.6363470771     5.9469592130    -0.2388346629
  101      H       5.3883288892     6.2611493142     1.4299482945
  102      C       4.5627246753     4.3431296433     0.7293712294
  103      H       4.0658250599     4.2155474799     1.6982275468
  104      H       3.7824637911     4.0357165631     0.0221314181
  105      C       5.7387754385     3.3185033567     0.8994523143
  106      C       7.0062145025     3.7963938064     1.6166363471
  107      C       7.2567143610     3.4029697635     2.9269280487
  108      H       6.4567931926     2.8815927239     3.4439242838
  109      C       8.3781040050     3.8997299017     3.5575528431
  110      H       8.6662520948     3.6163415408     4.5657605177
  111      C       9.2857974981     4.7662553004     2.9158299620
  112      H      10.1787884565     5.1375934007     3.4091363206
  113      C       9.0962783128     5.0881452979     1.5917093829
  114      H       9.7308073200     5.7367554497     0.9945747164
  115      C       7.9093645577     4.5909454299     0.9340217447
  116      H       7.7804795591     4.8695315630    -0.1070524234
  117      C       8.6543080395    -0.5751877385    -1.8106291065
  118      C       8.5813839154    -1.4286199702     0.4895935996
  119      C       5.5661499312    -4.8149120223    -0.2806662000
  120      C       3.8723441536     0.4185695349    -3.3850775418
  121      C       2.7254511079    -3.0988066408     0.9917663189
  122      C       8.6780655536    -0.3536499885    -0.3992883944
  123      C       2.2289947011    -1.3525733038    -2.1057649835
  124      C       7.4540674665    -3.9835288510    -1.5879826890
  125      C       5.2617587833    -0.1220847680     2.2488308628
  126      C       3.1520413904     0.8801185221    -2.3080569005
  127      C       5.3574758282     1.8707295179     1.0448157179
  128      C       3.9454969694     0.1407073016     1.8276751134
  129      C       2.2332836215     0.2318877940    -0.2886522642
  130      C       2.0342797064    -2.4169444660    -1.2328869279
  131      C       7.4054866197     0.3049780321     1.3739541123
  132      C       3.4416960545    -4.4265721546    -0.9521703871
  133      C       5.9367983690     2.3086578618    -0.2637002963
  134      C       5.0531345789     2.1293066973    -1.4294997928
  135      C       3.4784744805    -4.1746680570     0.4442592291
  136      C       5.3989603896    -2.7322829774    -4.0838824599
  137      C       5.3071378079    -4.4661022436    -2.6073560071
  138      C       6.6340962522    -4.0437247379    -2.7562872995
  139      C       8.3907120903    -2.9692914970    -1.3320892767
  140      C       5.8327562698     1.6168744856    -2.4916825677
  141      C       6.1412565135     0.8363044913     1.8059823894
  142      C       8.3738501570    -2.7253037413     0.0245151794
  143      C       2.2525665108    -0.0291669194    -1.6685774820
  144      C       7.7859261161    -1.0192334071     1.6008458354
  145      C       3.0036339252    -0.8879639700     1.7034115993
  146      C       5.9194633193    -0.3093027875    -4.0686936648
  147      C       6.9494887307    -4.3838702730    -0.3779430015
  148      C       3.9132387404     1.2983427280     1.0954773079
  149      C       7.5748100872    -1.8922911611    -3.3518081179
  150      C       2.1542538166    -0.9190088280     0.6099022725
  151      C       5.5803174888    -1.4652351340     2.5319994440
  152      C       3.3503396087    -3.1268266534    -2.9517565022
  153      C       2.9973421430    -1.7700970597    -3.1652502934
  154      C       4.6748389916    -2.5065882624     2.3427949163
  155      C       5.1977130953     0.7539502828    -3.4395470026
  156      C       3.7261996323     1.6725638560    -1.3110319730
  157      C       5.0219866467    -1.3695294360    -4.3114776759
  158      C       7.2357087210     1.6221219321    -0.7069669366
  159      C       6.7622592872    -3.2104253804     1.7445258956
  160      C       3.0971684219     1.3114420154    -0.0536804897
  161      C       3.3900499014    -2.2221408405     1.8729101881
  162      C       7.2446306098    -0.5484091993    -3.6166076374
  163      C       4.7944680447    -4.4508006904     0.8695329149
  164      C       8.4402714473    -1.8509098379    -2.2822894317
  165      C       4.7555924913    -4.8224943188    -1.3871873907
  166      C       6.8711468756    -1.9256403034     2.1833297232
  167      C       5.3742795921    -3.5873782525     1.8355692824
  168      C       7.9057694335     0.6801993111     0.1041103826
  169      C       7.0981750655     1.2808320954    -2.0583457662
  170      C       4.5606080511    -3.6357525129    -3.4543634728
  171      C       7.5661562321    -3.6448008212     0.6220782673
  172      C       2.0386483038    -2.1950445612     0.1098830999
  173      C       3.8101007951    -0.8630454182    -3.8894958962
  174      C       2.7700183086    -3.5366466954    -1.7244188463
  175      C       7.8420991749     0.2664355500    -2.6236930650
  176      C       6.6944729871    -2.9731417306    -3.6080787495
 ----------------------------------------------------------------

    9   -5804.2447392846      8.47E-06 Convergence criterion met
 Total energy in the final basis set = -5804.2447392846

                    Orbital Energies (a.u.)
 --------------------------------------------------------------

 Alpha MOs
 -- Occupied --
-19.192 -19.185 -19.145 -19.140 -10.319 -10.315 -10.246 -10.244
-10.244 -10.241 -10.238 -10.236 -10.235 -10.233 -10.229 -10.225
-10.225 -10.223 -10.223 -10.223 -10.222 -10.222 -10.222 -10.222
-10.221 -10.220 -10.219 -10.219 -10.218 -10.218 -10.218 -10.218
-10.217 -10.217 -10.217 -10.217 -10.217 -10.216 -10.216 -10.216
-10.216 -10.215 -10.215 -10.215 -10.215 -10.215 -10.215 -10.215
-10.215 -10.214 -10.214 -10.214 -10.214 -10.214 -10.214 -10.214
-10.214 -10.213 -10.213 -10.213 -10.213 -10.213 -10.213 -10.213
-10.213 -10.213 -10.213 -10.212 -10.212 -10.212 -10.212 -10.212
-10.212 -10.212 -10.212 -10.212 -10.212 -10.211 -10.211 -10.211
-10.211 -10.211 -10.211 -10.211 -10.211 -10.210 -10.210 -10.210
-10.210 -10.210 -10.210 -10.210 -10.210 -10.210 -10.209 -10.209
-10.209 -10.209 -10.209 -10.209 -10.209 -10.209 -10.209 -10.209
-10.209 -10.209 -10.208 -10.208 -10.208 -10.208 -10.208 -10.208
-10.207 -10.207 -10.207 -10.207 -10.207 -10.207 -10.207 -10.207
-10.207 -10.206 -10.206 -10.205 -10.205 -10.205 -10.205 -10.205
-10.205 -10.204 -10.204 -10.204 -10.204 -10.203 -10.202 -10.201
-10.200 -10.200 -10.198 -10.198 -10.197 -10.197 -10.196 -10.196
-10.196 -10.195 -10.193 -10.192  -1.107  -1.072  -1.027  -1.002
 -0.984  -0.981  -0.968  -0.964  -0.962  -0.961  -0.959  -0.959
 -0.937  -0.932  -0.927  -0.924  -0.924  -0.923  -0.922  -0.921
 -0.921  -0.918  -0.900  -0.895  -0.889  -0.888  -0.886  -0.886
 -0.880  -0.872  -0.864  -0.854  -0.841  -0.840  -0.838  -0.837
 -0.837  -0.834  -0.822  -0.819  -0.809  -0.800  -0.798  -0.796
 -0.794  -0.794  -0.793  -0.792  -0.791  -0.787  -0.784  -0.781
 -0.771  -0.770  -0.770  -0.768  -0.765  -0.764  -0.762  -0.760
 -0.756  -0.749  -0.744  -0.743  -0.734  -0.730  -0.716  -0.714
 -0.714  -0.713  -0.713  -0.711  -0.709  -0.709  -0.707  -0.707
 -0.705  -0.704  -0.703  -0.702  -0.699  -0.697  -0.673  -0.668
 -0.659  -0.657  -0.656  -0.654  -0.650  -0.644  -0.631  -0.630
 -0.627  -0.625  -0.624  -0.624  -0.620  -0.620  -0.618  -0.616
 -0.615  -0.614  -0.612  -0.611  -0.611  -0.610  -0.608  -0.608
 -0.605  -0.603  -0.603  -0.598  -0.568  -0.563  -0.561  -0.559
 -0.558  -0.557  -0.557  -0.555  -0.554  -0.554  -0.553  -0.551
 -0.540  -0.535  -0.533  -0.533  -0.526  -0.524  -0.523  -0.522
 -0.521  -0.519  -0.518  -0.517  -0.516  -0.514  -0.513  -0.511
 -0.506  -0.504  -0.498  -0.495  -0.493  -0.488  -0.486  -0.485
 -0.482  -0.482  -0.481  -0.479  -0.478  -0.477  -0.475  -0.473
 -0.473  -0.472  -0.469  -0.469  -0.467  -0.466  -0.466  -0.465
 -0.463  -0.463  -0.462  -0.462  -0.460  -0.459  -0.459  -0.458
 -0.457  -0.456  -0.452  -0.452  -0.450  -0.450  -0.444  -0.443
 -0.442  -0.440  -0.440  -0.438  -0.437  -0.436  -0.433  -0.432
 -0.430  -0.430  -0.427  -0.426  -0.426  -0.426  -0.425  -0.425
 -0.423  -0.422  -0.421  -0.419  -0.418  -0.417  -0.417  -0.417
 -0.416  -0.415  -0.414  -0.414  -0.413  -0.412  -0.412  -0.411
 -0.409  -0.409  -0.406  -0.405  -0.402  -0.401  -0.399  -0.398
 -0.395  -0.391  -0.389  -0.389  -0.387  -0.386  -0.384  -0.382
 -0.381  -0.379  -0.376  -0.374  -0.373  -0.368  -0.367  -0.366
 -0.364  -0.364  -0.363  -0.362  -0.360  -0.359  -0.356  -0.356
 -0.355  -0.355  -0.354  -0.353  -0.352  -0.352  -0.352  -0.350
 -0.350  -0.348  -0.347  -0.346  -0.346  -0.345  -0.342  -0.342
 -0.341  -0.340  -0.340  -0.338  -0.338  -0.336  -0.335  -0.334
 -0.331  -0.331  -0.330  -0.327  -0.325  -0.324  -0.324  -0.322
 -0.306  -0.305  -0.302  -0.297  -0.291  -0.287  -0.273  -0.273
 -0.271  -0.268  -0.268  -0.266  -0.265  -0.265  -0.264  -0.262
 -0.261  -0.260  -0.260  -0.258  -0.258  -0.256  -0.255  -0.252
 -0.252  -0.249  -0.246  -0.242  -0.220  -0.220  -0.212  -0.209
 -0.208  -0.206  -0.206  -0.201  -0.197  -0.194

          Ground-State Mulliken Net Atomic Charges

     Atom                 Charge (a.u.)
  ----------------------------------------
      1 O                    -0.491936
      2 C                    -0.084853
      3 H                     0.123934
      4 H                     0.137204
      5 H                     0.128260
      6 O                    -0.476717
      7 C                     0.604465
      8 C                    -0.260605
      9 H                     0.135807
     10 H                     0.143224
     11 C                    -0.187486
     12 H                     0.139669
     13 H                     0.106577
     14 C                    -0.190549
     15 H                     0.103530
     16 H                     0.106727
     17 C                     0.013311
     18 C                     0.111910
     19 C                    -0.136110
     20 H                     0.102740
     21 C                    -0.073026
     22 H                     0.096835
     23 C                    -0.093183
     24 H                     0.082713
     25 C                    -0.085918
     26 H                     0.098399
     27 C                    -0.119398
     28 H                     0.085484
     29 C                    -0.001708
     30 C                    -0.026254
     31 C                    -0.005693
     32 C                    -0.011932
     33 C                     0.006834
     34 C                     0.011341
     35 C                     0.015868
     36 C                    -0.005557
     37 C                    -0.012190
     38 C                    -0.000105
     39 C                    -0.089056
     40 C                     0.008163
     41 C                     0.012405
     42 C                    -0.009365
     43 C                     0.020230
     44 C                    -0.014108
     45 C                    -0.082164
     46 C                     0.021817
     47 C                     0.004266
     48 C                    -0.028998
     49 C                     0.020224
     50 C                    -0.004264
     51 C                     0.010695
     52 C                     0.004117
     53 C                     0.065272
     54 C                    -0.003396
     55 C                    -0.035747
     56 C                    -0.007880
     57 C                    -0.027529
     58 C                     0.030483
     59 C                    -0.015896
     60 C                     0.019999
     61 C                    -0.013239
     62 C                    -0.015531
     63 C                    -0.011424
     64 C                    -0.008144
     65 C                     0.035846
     66 C                     0.022729
     67 C                    -0.012309
     68 C                    -0.007614
     69 C                    -0.011893
     70 C                     0.030614
     71 C                    -0.012295
     72 C                     0.013497
     73 C                     0.007488
     74 C                    -0.014067
     75 C                    -0.011760
     76 C                     0.002276
     77 C                     0.012085
     78 C                    -0.024292
     79 C                    -0.001956
     80 C                    -0.010613
     81 C                     0.011377
     82 C                     0.002423
     83 C                     0.024088
     84 C                     0.001510
     85 C                    -0.011200
     86 C                    -0.004809
     87 C                    -0.007187
     88 C                     0.023762
     89 O                    -0.467693
     90 C                    -0.090505
     91 H                     0.119246
     92 H                     0.126435
     93 H                     0.136844
     94 O                    -0.444488
     95 C                     0.583085
     96 C                    -0.273237
     97 H                     0.134155
     98 H                     0.132281
     99 C                    -0.176327
    100 H                     0.111052
    101 H                     0.129853
    102 C                    -0.182680
    103 H                     0.107387
    104 H                     0.113045
    105 C                    -0.009797
    106 C                     0.087578
    107 C                    -0.092695
    108 H                     0.098201
    109 C                    -0.106013
    110 H                     0.089795
    111 C                    -0.076662
    112 H                     0.091119
    113 C                    -0.086619
    114 H                     0.095033
    115 C                    -0.108257
    116 H                     0.092541
    117 C                    -0.031499
    118 C                    -0.008870
    119 C                    -0.002293
    120 C                     0.023625
    121 C                    -0.018368
    122 C                     0.000229
    123 C                     0.029705
    124 C                    -0.002465
    125 C                     0.022316
    126 C                    -0.016454
    127 C                    -0.098351
    128 C                     0.034935
    129 C                    -0.008450
    130 C                    -0.012039
    131 C                     0.004001
    132 C                    -0.015440
    133 C                    -0.087527
    134 C                     0.031749
    135 C                     0.000795
    136 C                     0.005807
    137 C                    -0.001855
    138 C                    -0.009554
    139 C                    -0.038768
    140 C                    -0.002567
    141 C                     0.014868
    142 C                     0.047953
    143 C                    -0.021272
    144 C                    -0.015105
    145 C                    -0.011108
    146 C                    -0.022146
    147 C                     0.012506
    148 C                     0.017059
    149 C                     0.042133
    150 C                     0.008668
    151 C                    -0.023762
    152 C                     0.005082
    153 C                    -0.000867
    154 C                     0.013050
    155 C                    -0.012083
    156 C                     0.023786
    157 C                     0.008879
    158 C                     0.025612
    159 C                    -0.013483
    160 C                    -0.028972
    161 C                    -0.002293
    162 C                    -0.038438
    163 C                    -0.013794
    164 C                    -0.003334
    165 C                     0.023770
    166 C                     0.006462
    167 C                    -0.006146
    168 C                     0.025033
    169 C                     0.031295
    170 C                    -0.026506
    171 C                    -0.021540
    172 C                     0.019239
    173 C                    -0.018050
    174 C                     0.007428
    175 C                    -0.001573
    176 C                     0.016068
  ----------------------------------------
  Sum of atomic charges =     0.000000

                    Cartesian Multipole Moments
 -----------------------------------------------------------------
    Charge (ESU x 10^10)
                 0.0000
    Dipole Moment (Debye)
         X      -4.2252      Y       5.2961      Z       0.7018
       Tot       6.8113
    Quadrupole Moments (Debye-Ang)
        XX    -768.4587     XY     -13.6050     YY    -778.7475
        XZ      18.5362     YZ      -8.3781     ZZ    -808.5303

 Total job time:  861.32s(wall), 8210.29s(cpu)
        *  Thank you very much for using Q-Chem.  Have a nice day.  *
