 Q-Chem 4.4, Q-Chem, Inc., Pleasanton, CA (2016)
 Q-Chem 4.4.2 for Intel X86 Linux

User input:
--------------------------------------------------------------
$comment
SP
$end

$rem
MEM_STATIC 5000
MEM_TOTAL 20000
JOBTYPE SP
EXCHANGE B3LYP
BASIS 6-31g(d,p)
$end

$molecule
0 1
O          19.161000      8.508000     -1.816000
C          19.432000      9.918000     -1.483000
H          19.510000     10.076000     -0.401000
H          18.601000     10.548000     -1.824000
H          20.376000     10.258000     -1.926000
O          21.251000      7.794000     -1.049000
C          20.184000      7.607000     -1.531000
C          19.756000      6.268000     -2.032000
H          20.596000      6.031000     -2.696000
H          18.960000      6.356000     -2.781000
C          19.321000      5.169000     -0.988000
H          20.153000      5.165000     -0.272000
H          18.418000      5.489000     -0.453000
C          19.223000      3.838000     -1.743000
H          18.458000      3.923000     -2.525000
H          20.156000      3.692000     -2.301000
C          18.833000      2.704000     -0.723000
C          19.774000      2.726000      0.493000
C          21.131000      2.345000      0.429000
H          21.652000      2.165000     -0.507000
C          21.858000      2.147000      1.605000
H          22.864000      1.742000      1.566000
C          21.343000      2.412000      2.891000
H          21.907000      2.287000      3.811000
C          20.010000      2.883000      2.906000
H          19.660000      3.011000      3.926000
C          19.178000      3.004000      1.765000
H          18.117000      3.218000      1.854000
C          18.590000     -2.686000     -0.417000
C          16.860000     -2.097000      1.145000
C          13.525000     -3.543000     -1.626000
C          18.016000     -0.642000     -4.926000
C          12.822000     -0.276000     -2.814000
C          18.091000     -1.775000      0.549000
C          15.358000     -0.342000     -5.528000
C          15.589000     -4.612000     -1.087000
C          15.252000      1.374000     -0.051000
C          17.430000      0.598000     -4.683000
C          17.362000      2.081000     -0.772000
C          15.079000      1.949000     -1.382000
C          15.563000      1.667000     -4.033000
C          14.026000     -0.556000     -4.950000
C          17.053000      0.205000      0.881000
C          13.243000     -2.544000     -3.661000
C          18.604000      1.321000     -1.272000
C          18.736000      1.011000     -2.763000
C          12.812000     -1.666000     -2.663000
C          16.928000     -3.860000     -4.224000
C          14.884000     -4.314000     -3.435000
C          15.805000     -4.697000     -2.483000
C          16.692000     -4.124000     -0.229000
C          19.302000     -0.217000     -2.963000
C          16.570000      1.346000      0.289000
C          16.150000     -3.270000      0.747000
C          16.101000      0.727000     -4.986000
C          16.200000     -0.877000      1.248000
C          14.015000      1.525000     -2.175000
C          18.853000     -2.452000     -3.860000
C          14.461000     -3.959000     -0.631000
C          16.322000      2.354000     -1.820000
C          18.166000     -4.028000     -2.152000
C          14.241000      1.332000     -3.561000
C          14.395000      0.378000      0.392000
C          15.100000     -2.629000     -5.258000
C          15.960000     -1.590000     -5.730000
C          13.312000     -0.043000     -0.421000
C          18.944000     -1.097000     -4.012000
C          17.765000      1.453000     -3.616000
C          17.787000     -2.847000     -4.668000
C          18.992000      0.050000     -0.645000
C          14.101000     -1.927000      0.609000
C          16.607000      2.124000     -3.168000
C          13.138000      0.513000     -1.711000
C          19.073000     -3.065000     -2.568000
C          12.922000     -2.271000     -1.466000
C          17.962000     -3.873000     -0.800000
C          13.686000     -3.726000     -3.027000
C          14.822000     -0.772000      1.005000
C          13.188000     -1.470000     -0.276000
C          18.230000     -0.418000      0.444000
C          19.443000     -0.824000     -1.684000
C          15.550000     -3.777000     -4.516000
C          14.761000     -3.163000      0.455000
C          13.502000      0.252000     -3.999000
C          17.289000     -1.730000     -5.363000
C          13.895000     -1.993000     -4.787000
C          19.303000     -2.183000     -1.522000
C          17.092000     -4.428000     -2.970000
O           0.967000     -0.605000     -0.433000
C           0.441000      0.705000     -0.531000
H          -0.233000      0.813000     -1.390000
H           1.282000      1.407000     -0.591000
H          -0.195000      0.874000      0.347000
O          -0.840000     -1.632000     -1.428000
C           0.220000     -1.687000     -0.842000
C           1.014000     -2.989000     -0.588000
H           0.365000     -3.873000     -0.618000
H           1.279000     -2.957000      0.476000
C           2.307000     -3.059000     -1.535000
H           2.150000     -3.657000     -2.441000
H           2.467000     -2.044000     -1.921000
C           3.549000     -3.502000     -0.814000
H           3.875000     -2.871000      0.022000
H           3.356000     -4.446000     -0.288000
C           4.676000     -3.686000     -1.827000
C           4.855000     -2.433000     -2.680000
C           5.072000     -1.237000     -2.085000
H           5.034000     -1.094000     -1.009000
C           5.327000     -0.172000     -2.909000
H           5.529000      0.798000     -2.465000
C           5.332000     -0.235000     -4.315000
H           5.433000      0.717000     -4.827000
C           4.962000     -1.444000     -4.898000
H           4.922000     -1.611000     -5.970000
C           4.702000     -2.529000     -4.108000
H           4.443000     -3.456000     -4.610000
C           7.363000     -7.072000     -5.213000
C           9.033000     -5.467000     -4.550000
C          11.607000     -8.192000     -1.947000
C           5.265000     -9.077000     -1.099000
C          10.123000     -6.994000      1.011000
C           7.708000     -5.777000     -4.906000
C           7.202000     -9.151000      0.974000
C          10.373000     -8.551000     -3.986000
C           8.425000     -3.901000     -0.974000
C           5.300000     -8.085000     -0.030000
C           6.058000     -4.117000     -1.321000
C           7.767000     -4.359000      0.207000
C           6.615000     -6.814000      1.183000
C           8.505000     -8.819000      1.217000
C           7.736000     -4.141000     -3.285000
C          10.609000     -9.070000     -0.099000
C           5.190000     -5.042000     -2.189000
C           4.716000     -6.372000     -1.638000
C          10.922000     -7.747000      0.155000
C           7.922000    -10.630000     -2.718000
C          10.076000    -10.068000     -2.162000
C           9.846000     -9.728000     -3.504000
C           9.690000     -7.742000     -4.873000
C           4.749000     -7.360000     -2.665000
C           7.393000     -3.726000     -1.935000
C          10.065000     -6.431000     -4.578000
C           6.222000     -8.190000      0.995000
C           9.112000     -4.434000     -3.586000
C           8.540000     -5.321000      0.941000
C           5.837000     -9.534000     -3.252000
C          11.314000     -7.766000     -3.263000
C           6.398000     -4.670000     -0.012000
C           7.808000     -9.282000     -4.795000
C           7.984000     -6.488000      1.477000
C           9.771000     -4.245000     -1.288000
C           8.570000    -10.457000     -0.351000
C           7.189000    -10.159000      0.005000
C          10.501000     -5.120000     -0.531000
C           5.029000     -8.733000     -2.414000
C           5.032000     -6.749000     -0.343000
C           6.612000    -10.393000     -2.379000
C           5.701000     -5.469000     -3.555000
C          11.084000     -5.445000     -2.634000
C           5.870000     -5.913000      0.422000
C           9.830000     -5.729000      0.519000
C           6.445000     -9.005000     -4.458000
C          11.580000     -7.193000     -0.964000
C           8.361000     -8.074000     -5.211000
C          11.001000     -9.332000     -1.380000
C          10.118000     -4.435000     -2.594000
C          11.343000     -5.825000     -1.316000
C           6.902000     -4.993000     -4.041000
C           5.363000     -6.817000     -3.845000
C           8.916000    -10.670000     -1.678000
C          11.050000     -6.439000     -3.620000
C           8.922000     -7.516000      1.517000
C           6.283000    -10.100000     -1.041000
C           9.423000     -9.591000      0.392000
C           6.184000     -7.631000     -4.738000
C           8.514000    -10.008000     -3.868000
$end

--------------------------------------------------------------

             Standard Nuclear Orientation (Angstroms)
    I     Atom           X                Y                Z
 ----------------------------------------------------------------
    1      O      12.3164825151     5.5497483120    -0.6062010849
    2      C      13.3326955034     6.5836315923    -0.3400685519
    3      H      13.5201304901     6.7076280461     0.7329016272
    4      H      12.9782221281     7.5567772239    -0.7021157947
    5      H      14.2922508918     6.3289318611    -0.8062943593
    6      O      13.6864685127     3.8234078461     0.1742295410
    7      C      12.6791071131     4.2429505134    -0.2894394799
    8      C      11.5660020808     3.3495467530    -0.7252524075
    9      H      12.1126961409     2.6651397387    -1.3850839340
   10      H      10.9276748467     3.8389255142    -1.4705092560
   11      C      10.6299446693     2.7107423825     0.3714186912
   12      H      11.3436272677     2.2702119111     1.0795754906
   13      H      10.0725177153     3.4948316653     0.8991621777
   14      C       9.7877515789     1.6328030049    -0.3213637398
   15      H       9.1725022658     2.1014236173    -1.0997190600
   16      H      10.4656373195     0.9760878849    -0.8802601290
   17      C       8.8690220515     0.9391618804     0.7525329246
   18      C       9.7040564656     0.4764084780     1.9580194719
   19      C      10.6209983889    -0.5943431340     1.8995857935
   20      H      10.9248141953    -1.0636184666     0.9682353664
   21      C      11.1549056626    -1.1228981361     3.0769904108
   22      H      11.7671715842    -2.0183608789     3.0476831189
   23      C      10.9144533596    -0.5746662666     4.3540458158
   24      H      11.3447234254    -0.9606628547     5.2738258462
   25      C      10.0656755347     0.5560433980     4.3592283193
   26      H       9.8781885743     0.8901142180     5.3753628216
   27      C       9.4029052731     1.0798605436     3.2212049547
   28      H       8.6408421402     1.8485472260     3.3096276083
   29      C       5.6957431088    -3.4001091920     1.3055359186
   30      C       4.6319238208    -1.9001953564     2.8541520777
   31      C       0.9658335782    -1.3473730476     0.1809981674
   32      C       6.2019547967    -1.5307601288    -3.2866070242
   33      C       2.1488099656     1.7206194976    -1.1482236387
   34      C       5.8154917279    -2.3339033223     2.2334062283
   35      C       4.1354926785     0.1712540520    -3.8784262894
   36      C       2.1104433892    -3.3621746913     0.7500506406
   37      C       5.1740314344     1.8385462113     1.5155513809
   38      C       6.4077600153    -0.1665604342    -3.0951692925
   39      C       7.2982489863     1.2340898871     0.7447580596
   40      C       5.3048069335     2.3687323583     0.1613300481
   41      C       5.4657468275     1.7784151889    -2.4782163125
   42      C       2.9269848671     0.7501598970    -3.2796935508
   43      C       6.0571394381    -0.1007744624     2.4840252207
   44      C       1.2175061131    -0.4273473658    -1.8948061780
   45      C       7.8956965617    -0.1026638092     0.2690376059
   46      C       7.7857534118    -0.4829529550    -1.2074100462
   47      C       1.3766541937     0.5747960996    -0.9340620065
   48      C       3.5392615035    -3.5819684986    -2.4294718830
   49      C       1.6121174358    -2.8013509447    -1.6028371530
   50      C       2.1979501509    -3.5986743676    -0.6424677505
   51      C       3.3264452835    -3.5388269871     1.5753083939
   52      C       7.5713299452    -1.8246700089    -1.3562654262
   53      C       6.2668419593     1.0964141925     1.8449648346
   54      C       3.3791966055    -2.4958905499     2.5161361602
   55      C       5.3628501158     0.6669104674    -3.3921214066
   56      C       4.7605178611    -0.5162703724     2.9072953883
   57      C       4.1587777740     2.5791719808    -0.6022492410
   58      C       5.9323617867    -3.4649198605    -2.1467075807
   59      C       1.5472992386    -2.1790371782     1.1856918817
   60      C       6.5493958047     2.0026477607    -0.3054660628
   61      C       4.5442582155    -4.3390092975    -0.3628507669
   62      C       4.1952055173     2.2476173826    -1.9799522453
   63      C       3.9241082433     1.4993220493     2.0108623786
   64      C       2.6646536936    -1.5794846419    -3.5024213612
   65      C       3.9399141176    -1.2071086571    -4.0286836313
   66      C       2.7632712244     1.7221209936     1.2273337921
   67      C       6.7525626344    -2.3931144192    -2.3609823232
   68      C       7.1941374822     0.3944214943    -2.0711337680
   69      C       4.8002190289    -3.2297427905    -2.9265726470
   70      C       7.5361449047    -1.3542207630     0.9498032024
   71      C       2.4116235884    -0.2482013315     2.3350570767
   72      C       6.6157128938     1.6088867723    -1.6440411737
   73      C       2.8840370635     2.2384098889    -0.0850584468
   74      C       5.8184332368    -4.0540421071    -0.8301255422
   75      C       1.1724895252     0.0501212609     0.2882174631
   76      C       4.5040267144    -4.0523773666     0.9824256220
   77      C       0.9531911552    -1.6350990608    -1.2115767536
   78      C       3.6634888104     0.3263602018     2.6717980908
   79      C       1.8755508580     0.6084663487     1.4381794300
   80      C       6.6782850357    -1.2854691673     2.0655713966
   81      C       7.3945286914    -2.3654702248    -0.0522533699
   82      C       2.4284751321    -2.7592594181    -2.7129157155
   83      C       2.2725255806    -1.6471224579     2.2316964148
   84      C       2.9684701044     1.7440315629    -2.3619032224
   85      C       4.9808177201    -2.0476152938    -3.6672997859
   86      C       2.0284906317    -0.3673414296    -3.0503512434
   87      C       6.5316467725    -3.4131303646     0.1726199843
   88      C       3.4023655199    -4.1038908651    -1.1524078545
   89      O      -7.8253822583     8.0924214928     1.3485854878
   90      C      -7.5419802999     9.4703488005     1.1956813855
   91      H      -8.0712494405     9.9051510269     0.3385686738
   92      H      -6.4555417373     9.5865131057     1.0964740063
   93      H      -7.9495017872     9.9922577935     2.0705975189
   94      O      -9.9300151872     8.2061115793     0.4171361876
   95      C      -9.0589426892     7.5925617504     0.9957641430
   96      C      -9.1097419204     6.0779932070     1.3017993787
   97      H     -10.1399118327     5.7010928932     1.3177086616
   98      H      -8.8368935675     5.9929898565     2.3608901239
   99      C      -8.1027432182     5.2722325798     0.3477231629
  100      H      -8.5935744248     4.8317734240    -0.5287296074
  101      H      -7.4207282786     6.0152340976    -0.0854342757
  102      C      -7.2903517526     4.2395492512     1.0772704535
  103      H      -6.6428462183     4.6115341540     1.8808230748
  104      H      -7.9560298454     3.5785199963     1.6473353630
  105      C      -6.4867404274     3.4287215417     0.0638992167
  106      C      -5.6724400872     4.3437579544    -0.8467501776
  107      C      -4.8110311179     5.2381841505    -0.3086922185
  108      H      -4.7286587921     5.4137592072     0.7599785444
  109      C      -4.0364903802     5.9556817102    -1.1824827526
  110      H      -3.3174580623     6.6654147038    -0.7848502545
  111      C      -4.1128028202     5.8540321356    -2.5841509642
  112      H      -3.5188377822     6.5731406676    -3.1397924429
  113      C      -5.1083873740     5.0339385802    -3.1082959412
  114      H      -5.2688394569     4.8817362268    -4.1711988401
  115      C      -5.8992551000     4.3014487447    -2.2675154224
  116      H      -6.6438425812     3.6571447208    -2.7245447516
  117      C      -6.2322645201    -0.9884346914    -3.1878593575
  118      C      -3.9328026309    -0.5563663498    -2.6131542434
  119      C      -3.2124597265    -4.1630947184     0.0885723481
  120      C      -8.9542197275    -1.3583012637     1.0312381252
  121      C      -3.6893666060    -2.2466752595     3.0018386054
  122      C      -5.2188890310    -0.0920708643    -2.9431125342
  123      C      -7.3152732770    -2.4243046104     3.0884851685
  124      C      -4.5045096061    -3.8455949343    -1.9211438000
  125      C      -3.4568443059     1.2013809594     0.8930665240
  126      C      -8.3417661409    -0.5171035877     2.0536553953
  127      C      -5.5581377598     2.3213653666     0.5769103151
  128      C      -4.2196057459     1.2238839170     2.0993739486
  129      C      -6.5047145914    -0.1480706619     3.1960613232
  130      C      -6.0390028706    -2.8618464650     3.3047557753
  131      C      -4.2381868548     1.3069977722    -1.3985248248
  132      C      -4.4689081537    -4.2796132834     1.9832366386
  133      C      -6.8205024514     2.0039700987    -0.2405055090
  134      C      -7.9327821835     1.1783037960     0.3745440453
  135      C      -3.4684082230    -3.3439820423     2.1740456255
  136      C      -7.6536394782    -4.1755495933    -0.5385458934
  137      C      -5.5315360604    -4.8827993972    -0.0274971687
  138      C      -5.5785365777    -4.5169015577    -1.3815184840
  139      C      -4.6544962046    -2.8235646547    -2.8380391745
  140      C      -8.4850491121     0.3041548548    -0.6066933715
  141      C      -4.2504119845     1.8868557797    -0.0658623629
  142      C      -3.6076858963    -1.9309047097    -2.6062690275
  143      C      -7.5989853230    -1.0812975427     3.0742904122
  144      C      -3.2644512628     0.2910964461    -1.6978732711
  145      C      -4.0842739369     0.0196613382     2.8696091608
  146      C      -8.8006377246    -2.1264886856    -1.1036489101
  147      C      -3.2635033121    -3.6898959817    -1.2428398750
  148      C      -5.5384295646     1.7162482699     1.9066978493
  149      C      -7.0704543960    -3.0596355985    -2.6736477917
  150      C      -5.1751609033    -0.6254775577     3.4629745047
  151      C      -2.5367114823     0.1592404294     0.5833138766
  152      C      -6.9416666497    -4.3123424366     1.8123910283
  153      C      -7.9150145337    -3.2876941266     2.1664965741
  154      C      -2.3883166758    -0.9480270380     1.3729414704
  155      C      -9.0031268707    -0.9848598496    -0.2959418180
  156      C      -7.8361730611     0.7324342016     1.6825490079
  157      C      -8.6021659280    -3.2415384159    -0.1992662229
  158      C      -6.6755698743     1.3205406179    -1.5900701398
  159      C      -2.1509523193    -1.6108431344    -0.7181003714
  160      C      -6.6513478652     0.9890031393     2.4013860098
  161      C      -3.2496622910    -1.0482709502     2.4553724795
  162      C      -8.0410475229    -2.0630560316    -2.3377234718
  163      C      -2.6505422622    -3.2845725850     1.0253042331
  164      C      -5.9554954457    -2.3747605389    -3.1489810346
  165      C      -4.3290343356    -4.7570511393     0.7121121724
  166      C      -2.3952932608    -0.2341995414    -0.7156668299
  167      C      -2.1027094508    -2.0268744389     0.6135135288
  168      C      -5.4282385753     1.0352000427    -2.1076784731
  169      C      -7.7118773165     0.3767699963    -1.8154850887
  170      C      -6.8144825422    -4.7250564556     0.4934879457
  171      C      -2.7609856199    -2.4515153239    -1.6575244726
  172      C      -4.9614888168    -1.9989414740     3.5415181884
  173      C      -8.6705966508    -2.7713248849     1.1268372690
  174      C      -5.7284763691    -4.0398522600     2.5077560019
  175      C      -7.5075400762    -0.7846925114    -2.6776551041
  176      C      -6.8541189368    -4.0240357235    -1.7207719509
 ----------------------------------------------------------------

    9   -5804.2586678609      9.22E-06 Convergence criterion met
 Total energy in the final basis set = -5804.2586678609

                    Orbital Energies (a.u.)
 --------------------------------------------------------------

 Alpha MOs
 -- Occupied --
-19.192 -19.192 -19.143 -19.139 -10.320 -10.314 -10.250 -10.246
-10.244 -10.244 -10.244 -10.237 -10.236 -10.232 -10.230 -10.229
-10.229 -10.229 -10.229 -10.227 -10.226 -10.226 -10.224 -10.223
-10.223 -10.223 -10.223 -10.222 -10.222 -10.222 -10.222 -10.221
-10.221 -10.221 -10.220 -10.220 -10.219 -10.219 -10.219 -10.219
-10.219 -10.218 -10.218 -10.218 -10.218 -10.218 -10.218 -10.218
-10.218 -10.218 -10.218 -10.218 -10.217 -10.217 -10.217 -10.217
-10.217 -10.217 -10.217 -10.217 -10.216 -10.216 -10.216 -10.216
-10.216 -10.216 -10.216 -10.216 -10.215 -10.215 -10.215 -10.215
-10.215 -10.215 -10.215 -10.215 -10.215 -10.215 -10.215 -10.215
-10.214 -10.214 -10.214 -10.214 -10.213 -10.213 -10.213 -10.213
-10.213 -10.213 -10.213 -10.212 -10.212 -10.212 -10.212 -10.212
-10.211 -10.211 -10.211 -10.211 -10.211 -10.211 -10.210 -10.210
-10.210 -10.210 -10.210 -10.209 -10.209 -10.209 -10.209 -10.209
-10.209 -10.208 -10.208 -10.208 -10.208 -10.208 -10.208 -10.208
-10.207 -10.207 -10.207 -10.207 -10.207 -10.206 -10.206 -10.206
-10.206 -10.205 -10.205 -10.204 -10.202 -10.202 -10.202 -10.202
-10.202 -10.200 -10.199 -10.199 -10.198 -10.198 -10.196 -10.195
-10.194 -10.194 -10.194 -10.193  -1.094  -1.090  -1.022  -1.017
 -0.983  -0.982  -0.964  -0.964  -0.963  -0.961  -0.960  -0.959
 -0.934  -0.932  -0.927  -0.926  -0.925  -0.924  -0.921  -0.921
 -0.919  -0.918  -0.895  -0.893  -0.890  -0.890  -0.888  -0.882
 -0.873  -0.869  -0.856  -0.849  -0.842  -0.842  -0.839  -0.839
 -0.838  -0.836  -0.822  -0.821  -0.803  -0.803  -0.797  -0.796
 -0.796  -0.795  -0.795  -0.793  -0.792  -0.791  -0.783  -0.781
 -0.772  -0.772  -0.770  -0.768  -0.767  -0.764  -0.764  -0.760
 -0.755  -0.746  -0.743  -0.741  -0.734  -0.732  -0.717  -0.715
 -0.715  -0.713  -0.712  -0.711  -0.710  -0.710  -0.708  -0.708
 -0.707  -0.706  -0.706  -0.703  -0.701  -0.697  -0.671  -0.670
 -0.659  -0.659  -0.659  -0.658  -0.647  -0.647  -0.632  -0.631
 -0.627  -0.626  -0.623  -0.622  -0.621  -0.621  -0.619  -0.618
 -0.616  -0.615  -0.614  -0.613  -0.613  -0.612  -0.607  -0.607
 -0.606  -0.605  -0.602  -0.601  -0.569  -0.564  -0.564  -0.561
 -0.561  -0.558  -0.558  -0.558  -0.558  -0.554  -0.554  -0.553
 -0.537  -0.533  -0.533  -0.532  -0.531  -0.529  -0.528  -0.525
 -0.521  -0.521  -0.519  -0.518  -0.516  -0.514  -0.513  -0.511
 -0.507  -0.507  -0.500  -0.499  -0.489  -0.488  -0.486  -0.485
 -0.485  -0.483  -0.481  -0.480  -0.479  -0.477  -0.476  -0.473
 -0.472  -0.472  -0.470  -0.469  -0.469  -0.467  -0.467  -0.466
 -0.465  -0.463  -0.462  -0.462  -0.461  -0.460  -0.458  -0.458
 -0.455  -0.454  -0.453  -0.451  -0.450  -0.448  -0.445  -0.442
 -0.441  -0.440  -0.438  -0.438  -0.438  -0.437  -0.435  -0.432
 -0.432  -0.431  -0.430  -0.427  -0.426  -0.425  -0.425  -0.425
 -0.424  -0.422  -0.422  -0.422  -0.420  -0.419  -0.418  -0.418
 -0.417  -0.416  -0.416  -0.415  -0.414  -0.414  -0.413  -0.412
 -0.412  -0.410  -0.409  -0.406  -0.403  -0.400  -0.397  -0.397
 -0.396  -0.395  -0.393  -0.392  -0.390  -0.387  -0.386  -0.385
 -0.380  -0.378  -0.377  -0.377  -0.369  -0.369  -0.367  -0.366
 -0.364  -0.362  -0.362  -0.360  -0.359  -0.358  -0.357  -0.357
 -0.357  -0.356  -0.354  -0.353  -0.353  -0.351  -0.351  -0.351
 -0.349  -0.349  -0.348  -0.347  -0.346  -0.344  -0.343  -0.342
 -0.342  -0.340  -0.340  -0.339  -0.338  -0.338  -0.334  -0.334
 -0.333  -0.331  -0.330  -0.328  -0.328  -0.327  -0.324  -0.322
 -0.311  -0.307  -0.303  -0.298  -0.288  -0.284  -0.275  -0.271
 -0.270  -0.270  -0.269  -0.268  -0.267  -0.266  -0.265  -0.264
 -0.262  -0.261  -0.261  -0.259  -0.257  -0.256  -0.256  -0.254
 -0.251  -0.247  -0.245  -0.241  -0.226  -0.220  -0.214  -0.210
 -0.209  -0.208  -0.206  -0.205  -0.199  -0.197

          Ground-State Mulliken Net Atomic Charges

     Atom                 Charge (a.u.)
  ----------------------------------------
      1 O                    -0.478214
      2 C                    -0.095648
      3 H                     0.126636
      4 H                     0.124281
      5 H                     0.131113
      6 O                    -0.443643
      7 C                     0.586757
      8 C                    -0.257756
      9 H                     0.123363
     10 H                     0.116857
     11 C                    -0.185089
     12 H                     0.136386
     13 H                     0.114332
     14 C                    -0.180073
     15 H                     0.111841
     16 H                     0.114714
     17 C                     0.004750
     18 C                     0.053657
     19 C                    -0.091946
     20 H                     0.092546
     21 C                    -0.091980
     22 H                     0.087252
     23 C                    -0.073166
     24 H                     0.098747
     25 C                    -0.101553
     26 H                     0.082868
     27 C                    -0.094899
     28 H                     0.099350
     29 C                     0.005982
     30 C                    -0.018337
     31 C                    -0.004011
     32 C                    -0.012425
     33 C                    -0.016231
     34 C                    -0.001694
     35 C                     0.001981
     36 C                    -0.036643
     37 C                     0.012429
     38 C                     0.009846
     39 C                    -0.090655
     40 C                     0.026376
     41 C                    -0.032772
     42 C                    -0.005998
     43 C                     0.022982
     44 C                     0.017106
     45 C                    -0.093549
     46 C                     0.042226
     47 C                     0.040192
     48 C                    -0.026611
     49 C                     0.003253
     50 C                     0.023731
     51 C                    -0.019251
     52 C                     0.009343
     53 C                     0.012903
     54 C                     0.005567
     55 C                     0.003140
     56 C                    -0.015148
     57 C                    -0.014726
     58 C                    -0.004609
     59 C                     0.015321
     60 C                     0.035854
     61 C                     0.020348
     62 C                    -0.005336
     63 C                     0.001222
     64 C                    -0.001701
     65 C                    -0.014174
     66 C                    -0.021857
     67 C                     0.001441
     68 C                     0.001004
     69 C                     0.005570
     70 C                     0.039735
     71 C                     0.017403
     72 C                    -0.009107
     73 C                     0.005438
     74 C                    -0.035027
     75 C                    -0.010899
     76 C                    -0.009183
     77 C                    -0.019667
     78 C                    -0.008529
     79 C                    -0.023663
     80 C                     0.013554
     81 C                    -0.008336
     82 C                     0.007234
     83 C                     0.016816
     84 C                     0.011266
     85 C                     0.015992
     86 C                    -0.025515
     87 C                     0.008110
     88 C                     0.020629
     89 O                    -0.458555
     90 C                    -0.087897
     91 H                     0.135379
     92 H                     0.122930
     93 H                     0.121020
     94 O                    -0.453768
     95 C                     0.563399
     96 C                    -0.241246
     97 H                     0.127848
     98 H                     0.121328
     99 C                    -0.190391
    100 H                     0.117384
    101 H                     0.136490
    102 C                    -0.183596
    103 H                     0.113068
    104 H                     0.106580
    105 C                     0.014434
    106 C                     0.055663
    107 C                    -0.069534
    108 H                     0.095560
    109 C                    -0.104301
    110 H                     0.081198
    111 C                    -0.077598
    112 H                     0.091371
    113 C                    -0.092320
    114 H                     0.090304
    115 C                    -0.091934
    116 H                     0.094524
    117 C                     0.013088
    118 C                     0.002463
    119 C                    -0.026842
    120 C                    -0.013914
    121 C                    -0.025663
    122 C                    -0.000657
    123 C                     0.033478
    124 C                     0.004498
    125 C                     0.014627
    126 C                    -0.000571
    127 C                    -0.090070
    128 C                    -0.052812
    129 C                    -0.035937
    130 C                     0.014134
    131 C                    -0.016257
    132 C                     0.021079
    133 C                    -0.082745
    134 C                     0.029392
    135 C                     0.004701
    136 C                    -0.001333
    137 C                     0.010649
    138 C                    -0.009444
    139 C                    -0.002481
    140 C                    -0.010043
    141 C                     0.033893
    142 C                    -0.010982
    143 C                    -0.009221
    144 C                    -0.008309
    145 C                    -0.002816
    146 C                    -0.001782
    147 C                     0.006042
    148 C                     0.049596
    149 C                    -0.020759
    150 C                    -0.008164
    151 C                     0.023801
    152 C                    -0.036546
    153 C                    -0.013351
    154 C                     0.023254
    155 C                     0.010519
    156 C                    -0.011742
    157 C                    -0.014314
    158 C                     0.008478
    159 C                    -0.002798
    160 C                     0.034522
    161 C                     0.017219
    162 C                    -0.022427
    163 C                    -0.001863
    164 C                     0.000894
    165 C                    -0.002251
    166 C                    -0.009189
    167 C                    -0.007311
    168 C                     0.023039
    169 C                    -0.013937
    170 C                     0.004595
    171 C                     0.005002
    172 C                    -0.012358
    173 C                     0.016644
    174 C                     0.005052
    175 C                     0.003572
    176 C                     0.027494
  ----------------------------------------
  Sum of atomic charges =     0.000000

                    Cartesian Multipole Moments
 -----------------------------------------------------------------
    Charge (ESU x 10^10)
                 0.0000
    Dipole Moment (Debye)
         X       2.7310      Y       3.1114      Z       0.9108
       Tot       4.2390
    Quadrupole Moments (Debye-Ang)
        XX    -827.3104     XY      20.0710     YY    -783.0778
        XZ      -6.1524     YZ       4.6394     ZZ    -799.2555

 Total job time:  852.79s(wall), 8106.59s(cpu)
        *  Thank you very much for using Q-Chem.  Have a nice day.  *
