 Q-Chem 4.4, Q-Chem, Inc., Pleasanton, CA (2016)
 Q-Chem 4.4.2 for Intel X86 Linux

User input:
--------------------------------------------------------------
$comment
SP
$end

$rem
MEM_STATIC 5000
MEM_TOTAL 20000
JOBTYPE SP
EXCHANGE B3LYP
BASIS 6-31g(d,p)
$end

$molecule
0 1
O          16.985000     -8.857000     -6.296000
C          17.377000     -8.631000     -4.979000
H          17.784000     -7.620000     -4.855000
H          18.142000     -9.352000     -4.664000
H          16.479000     -8.784000     -4.369000
O          15.434000     -7.166000     -6.554000
C          16.056000     -8.166000     -6.982000
C          15.916000     -8.624000     -8.441000
H          15.358000     -9.566000     -8.510000
H          16.874000     -8.887000     -8.907000
C          15.292000     -7.458000     -9.265000
H          14.343000     -7.249000     -8.757000
H          15.874000     -6.532000     -9.186000
C          14.914000     -7.983000    -10.708000
H          15.838000     -7.964000    -11.299000
H          14.570000     -9.020000    -10.617000
C          13.845000     -7.190000    -11.348000
C          14.373000     -5.935000    -12.051000
C          14.852000     -5.955000    -13.389000
H          14.971000     -6.893000    -13.924000
C          15.204000     -4.723000    -13.910000
H          15.633000     -4.777000    -14.906000
C          15.205000     -3.549000    -13.222000
H          15.513000     -2.593000    -13.638000
C          14.788000     -3.521000    -11.938000
H          14.808000     -2.568000    -11.418000
C          14.386000     -4.734000    -11.327000
H          14.124000     -4.818000    -10.277000
C           8.872000     -5.068000    -11.585000
C           9.215000     -5.874000    -13.876000
C           6.266000     -9.250000    -13.634000
C           9.608000     -8.845000     -8.355000
C           8.682000    -11.699000    -13.085000
C           9.724000     -5.285000    -12.709000
C           8.780000    -11.286000     -9.506000
C           6.002000     -7.018000    -12.741000
C          11.584000     -9.102000    -13.924000
C          10.576000     -9.748000     -8.841000
C          12.804000     -8.113000    -12.064000
C          11.831000    -10.087000    -13.030000
C          11.014000    -11.082000    -10.539000
C           8.306000    -11.769000    -10.713000
C          11.351000     -6.712000    -13.575000
C           6.560000    -10.964000    -12.157000
C          12.445000     -7.167000    -10.913000
C          11.905000     -7.802000     -9.660000
C           7.397000    -11.217000    -13.250000
C           6.480000     -8.020000     -9.418000
C           5.527000     -8.880000    -11.315000
C           5.626000     -7.531000    -11.518000
C           6.962000     -5.940000    -12.849000
C          10.849000     -6.964000     -9.231000
C          12.100000     -7.903000    -13.377000
C           7.872000     -6.200000    -13.940000
C          10.177000    -10.930000     -9.438000
C          10.140000     -6.721000    -14.404000
C          10.917000    -11.159000    -12.988000
C           8.481000     -6.949000     -8.577000
C           6.361000     -7.894000    -13.840000
C          12.359000     -9.533000    -11.847000
C           7.165000     -5.928000    -10.432000
C          10.507000    -11.649000    -11.737000
C          10.448000     -9.116000    -14.754000
C           6.697000    -10.427000     -9.789000
C           7.811000    -10.458000     -8.920000
C           9.514000    -10.147000    -14.714000
C           9.780000     -7.464000     -8.463000
C          11.724000     -9.218000     -9.518000
C           7.583000     -8.065000     -8.528000
C          11.489000     -6.047000    -11.222000
C           8.372000     -8.309000    -15.077000
C          11.890000    -10.018000    -10.603000
C           9.751000    -11.203000    -13.836000
C           8.276000     -5.946000     -9.573000
C           7.167000    -10.171000    -14.196000
C           7.543000     -5.389000    -11.657000
C           5.896000     -9.750000    -12.388000
C           9.701000     -7.960000    -14.980000
C           8.257000     -9.677000    -14.924000
C          11.030000     -5.838000    -12.508000
C          10.589000     -5.942000    -10.173000
C           6.016000     -9.185000    -10.010000
C           7.482000     -7.386000    -14.533000
C           9.147000    -12.007000    -11.806000
C           8.256000     -9.235000     -8.370000
C           7.014000    -11.270000    -10.877000
C           9.324000     -5.406000    -10.293000
C           6.240000     -6.968000    -10.348000
O           0.967000     -0.605000     -0.433000
C           0.441000      0.705000     -0.531000
H          -0.233000      0.813000     -1.390000
H           1.282000      1.407000     -0.591000
H          -0.195000      0.874000      0.347000
O          -0.840000     -1.632000     -1.428000
C           0.220000     -1.687000     -0.842000
C           1.014000     -2.989000     -0.588000
H           0.365000     -3.873000     -0.618000
H           1.279000     -2.957000      0.476000
C           2.307000     -3.059000     -1.535000
H           2.150000     -3.657000     -2.441000
H           2.467000     -2.044000     -1.921000
C           3.549000     -3.502000     -0.814000
H           3.875000     -2.871000      0.022000
H           3.356000     -4.446000     -0.288000
C           4.676000     -3.686000     -1.827000
C           4.855000     -2.433000     -2.680000
C           5.072000     -1.237000     -2.085000
H           5.034000     -1.094000     -1.009000
C           5.327000     -0.172000     -2.909000
H           5.529000      0.798000     -2.465000
C           5.332000     -0.235000     -4.315000
H           5.433000      0.717000     -4.827000
C           4.962000     -1.444000     -4.898000
H           4.922000     -1.611000     -5.970000
C           4.702000     -2.529000     -4.108000
H           4.443000     -3.456000     -4.610000
C           7.363000     -7.072000     -5.213000
C           9.033000     -5.467000     -4.550000
C          11.607000     -8.192000     -1.947000
C           5.265000     -9.077000     -1.099000
C          10.123000     -6.994000      1.011000
C           7.708000     -5.777000     -4.906000
C           7.202000     -9.151000      0.974000
C          10.373000     -8.551000     -3.986000
C           8.425000     -3.901000     -0.974000
C           5.300000     -8.085000     -0.030000
C           6.058000     -4.117000     -1.321000
C           7.767000     -4.359000      0.207000
C           6.615000     -6.814000      1.183000
C           8.505000     -8.819000      1.217000
C           7.736000     -4.141000     -3.285000
C          10.609000     -9.070000     -0.099000
C           5.190000     -5.042000     -2.189000
C           4.716000     -6.372000     -1.638000
C          10.922000     -7.747000      0.155000
C           7.922000    -10.630000     -2.718000
C          10.076000    -10.068000     -2.162000
C           9.846000     -9.728000     -3.504000
C           9.690000     -7.742000     -4.873000
C           4.749000     -7.360000     -2.665000
C           7.393000     -3.726000     -1.935000
C          10.065000     -6.431000     -4.578000
C           6.222000     -8.190000      0.995000
C           9.112000     -4.434000     -3.586000
C           8.540000     -5.321000      0.941000
C           5.837000     -9.534000     -3.252000
C          11.314000     -7.766000     -3.263000
C           6.398000     -4.670000     -0.012000
C           7.808000     -9.282000     -4.795000
C           7.984000     -6.488000      1.477000
C           9.771000     -4.245000     -1.288000
C           8.570000    -10.457000     -0.351000
C           7.189000    -10.159000      0.005000
C          10.501000     -5.120000     -0.531000
C           5.029000     -8.733000     -2.414000
C           5.032000     -6.749000     -0.343000
C           6.612000    -10.393000     -2.379000
C           5.701000     -5.469000     -3.555000
C          11.084000     -5.445000     -2.634000
C           5.870000     -5.913000      0.422000
C           9.830000     -5.729000      0.519000
C           6.445000     -9.005000     -4.458000
C          11.580000     -7.193000     -0.964000
C           8.361000     -8.074000     -5.211000
C          11.001000     -9.332000     -1.380000
C          10.118000     -4.435000     -2.594000
C          11.343000     -5.825000     -1.316000
C           6.902000     -4.993000     -4.041000
C           5.363000     -6.817000     -3.845000
C           8.916000    -10.670000     -1.678000
C          11.050000     -6.439000     -3.620000
C           8.922000     -7.516000      1.517000
C           6.283000    -10.100000     -1.041000
C           9.423000     -9.591000      0.392000
C           6.184000     -7.631000     -4.738000
C           8.514000    -10.008000     -3.868000
$end

--------------------------------------------------------------

             Standard Nuclear Orientation (Angstroms)
    I     Atom           X                Y                Z
 ----------------------------------------------------------------
    1      O       3.3744523419    -7.5921425750     1.6083703327
    2      C       2.2989847534    -8.4364839210     1.8723516908
    3      H       2.1058706288    -8.5066202181     2.9498180869
    4      H       2.4855282670    -9.4475626345     1.4886690709
    5      H       1.4443603793    -8.0097222922     1.3343882243
    6      O       2.6026493775    -5.6390657404     2.5682958830
    7      C       3.4621461995    -6.2876962507     1.9275060001
    8      C       4.8167351764    -5.6645571337     1.5603121213
    9      H       4.8860340339    -5.4709025542     0.4827293764
   10      H       5.6650629963    -6.3395935185     1.7298844927
   11      C       5.0325888345    -4.4000731279     2.4448432952
   12      H       4.1631449893    -3.7687160649     2.2262073903
   13      H       4.9674654239    -4.6233728042     3.5164482578
   14      C       6.2967493942    -3.6070771974     1.9215713454
   15      H       7.1763274368    -4.1071123625     2.3455115541
   16      H       6.3288457253    -3.6941662116     0.8291559806
   17      C       6.2650659865    -2.1736511167     2.2758252556
   18      C       6.7976877286    -1.8958564794     3.6854926700
   19      C       8.1799402122    -1.7025555291     3.9540030313
   20      H       8.9254368612    -1.8636826415     3.1803734041
   21      C       8.4877643117    -1.3668458893     5.2600322658
   22      H       9.5540198607    -1.2959567079     5.4525077921
   23      C       7.5963246180    -1.2985118105     6.2858425437
   24      H       7.8591150622    -1.0618417798     7.3138427766
   25      C       6.2842751287    -1.5167778703     6.0530012572
   26      H       5.6023614320    -1.4600756155     6.8960834386
   27      C       5.8724023217    -1.8449813300     4.7381106610
   28      H       4.8554188616    -2.1237418692     4.4807447666
   29      C       4.0481987189     2.7634728985     2.2852048659
   30      C       6.4136315387     3.2444872958     1.8500971496
   31      C       5.8587752405     4.5112504829    -2.4207325726
   32      C       2.3519831084    -0.5114536957    -1.1262513342
   33      C       6.8859837511     1.4625244640    -3.7572094100
   34      C       5.4308759610     2.4864045316     2.5038501590
   35      C       3.6368858608    -0.0896839350    -3.6041539121
   36      C       4.4308859835     5.0489104182    -0.5442936410
   37      C       8.1395923777     0.2520047668    -0.1748859358
   38      C       3.3739921975    -1.3915871429    -1.5379448329
   39      C       6.7194613309    -1.2811094601     1.0736770691
   40      C       7.6725186821    -0.6711322088    -1.0467404460
   41      C       5.3732043486    -1.4251748762    -2.4634861012
   42      C       4.6436500038     0.6911879657    -4.1440418959
   43      C       7.1708848334     1.0582698257     1.8986936621
   44      C       5.0635544322     3.0534296727    -3.9853869598
   45      C       5.3303436052    -1.1931174096     1.7149315765
   46      C       4.1557800905    -1.5079862016     0.8283131728
   47      C       6.4213562393     2.7634178801    -3.8079203076
   48      C       1.8929566008     2.8395294006    -1.5201865490
   49      C       3.4187234040     4.2079279055    -2.5428982358
   50      C       3.3175321247     4.6498715260    -1.2524498015
   51      C       4.6425346242     4.6428741991     0.8289097094
   52      C       3.1659475553    -0.5497956145     1.1500636212
   53      C       7.5671053477    -0.0381212811     1.0865225932
   54      C       6.0284610346     4.2888138115     1.0284848254
   55      C       4.0322606748    -1.1712107545    -2.7341266165
   56      C       7.4431268382     2.4370416725     1.4759461190
   57      C       7.5360496433    -0.2719800633    -2.3915072533
   58      C       1.6634673775     1.1376532586     0.1854732335
   59      C       5.7570469574     4.9601250632    -1.1252172436
   60      C       6.6911702044    -1.4634834342    -0.4187884567
   61      C       2.5646505497     3.3946868287     0.7413422412
   62      C       6.3791303934    -0.6478029721    -3.0939999511
   63      C       8.4429308614     1.5670461419    -0.5726848121
   64      C       2.8791131857     2.0510034336    -3.6140110377
   65      C       2.5432002072     0.7223822122    -3.2689804290
   66      C       8.2907687211     1.9969583526    -1.8875761286
   67      C       2.1867902929    -0.1626819808     0.2151951331
   68      C       4.2955083895    -1.8757294553    -0.5512599140
   69      C       1.5374012137     1.5061784651    -1.1938590305
   70      C       4.9697972850     0.1028711169     2.3889027109
   71      C       7.7358563680     3.7030971615    -0.6245085749
   72      C       5.5164730857    -1.7853408458    -1.1393552378
   73      C       7.8509437567     1.0665100454    -2.8272616868
   74      C       2.2333996350     2.0772264643     1.0978489308
   75      C       6.9268532534     3.7152722443    -2.8696356822
   76      C       3.6743855737     3.8013101412     1.4742649236
   77      C       4.7241622081     4.1010816838    -3.1163120598
   78      C       8.0807445615     2.6630612248     0.2102538969
   79      C       7.8799200028     3.2907922604    -1.9349696913
   80      C       5.8884136914     1.1290438075     2.4950700645
   81      C       3.6619730072     0.4175812373     2.0542697800
   82      C       2.5175837720     3.1173587613    -2.7266842670
   83      C       6.6875975765     4.4986041557    -0.1681237282
   84      C       5.9994371278     0.4026604397    -3.9512540818
   85      C       1.9348700411     0.4978607182    -2.0136802626
   86      C       4.1713858441     2.0029376778    -4.1819926037
   87      C       3.1521637688     1.6989884651     2.0575949818
   88      C       2.3789034253     3.7944880312    -0.5815099819
   89      O     -10.0067754693     5.7975228760     2.4487264331
   90      C     -10.4340779277     6.7013239111     3.4501935059
   91      H      -9.9551224958     7.6831306734     3.3478305453
   92      H     -10.2219445364     6.2522095963     4.4284474384
   93      H     -11.5025948597     6.8929531510     3.2905351190
   94      O      -9.5754598524     7.4206743887     0.8709593383
   95      C      -9.6744096762     6.2561588968     1.1936567219
   96      C      -9.2843139195     5.0614616851     0.2932790938
   97      H      -9.2987473494     5.3322089576    -0.7697564609
   98      H     -10.1374200702     4.3740478593     0.3482074818
   99      C      -7.9236304655     4.3844375093     0.8068322101
  100      H      -7.0351003856     4.7290457000     0.2638326780
  101      H      -7.7588443892     4.7501073471     1.8285719611
  102      C      -7.9803047208     2.8828961017     0.8353879466
  103      H      -8.7489137422     2.4392572383     1.4801807281
  104      H      -8.2994620382     2.5048665247    -0.1445575853
  105      C      -6.5979674702     2.3372848002     1.1841085129
  106      C      -6.0662494957     2.9727934864     2.4659289782
  107      C      -6.7964778579     2.9096526127     3.6036063354
  108      H      -7.8038700988     2.5053297961     3.6403885721
  109      C      -6.2165466620     3.4083370700     4.7408044800
  110      H      -6.7643636366     3.3527078091     5.6765618992
  111      C      -4.9468873402     4.0137274921     4.7887382171
  112      H      -4.6776995419     4.4648113507     5.7388488853
  113      C      -4.2834605676     4.1949598872     3.5781640821
  114      H      -3.3041114277     4.6548508130     3.4884500995
  115      C      -4.8302821372     3.7092484688     2.4231768142
  116      H      -4.2630521201     3.8522341104     1.5087265892
  117      C      -1.7372486254     0.5239575199    -0.6145625205
  118      C      -2.0630222120    -0.6503944457     1.4637211538
  119      C      -2.7392748042    -4.8397316695    -0.2152207920
  120      C      -5.7384413142    -0.2130246288    -3.5800202221
  121      C      -6.2335687563    -4.5416087916     0.0818592081
  122      C      -2.1848526411     0.5148579502     0.6853862642
  123      C      -6.8184964460    -2.7814094398    -3.0399698775
  124      C      -1.3146863634    -3.0122563082    -0.8785755825
  125      C      -5.8564264592    -1.2416495800     2.3966185670
  126      C      -6.9129790833    -0.4022232044    -2.7357957687
  127      C      -6.4117569744     0.8191091214     1.2945134933
  128      C      -7.0545274079    -1.3689282514     1.6312145844
  129      C      -7.7868405557    -1.6341311365    -1.1436889965
  130      C      -6.6097183232    -3.8706183333    -2.2417733593
  131      C      -4.0068793701     0.2912321523     2.0764761610
  132      C      -4.5634845349    -5.1171329202    -1.5483747233
  133      C      -5.7545178871     1.6347645847     0.1696953092
  134      C      -6.1130012443     1.3558993691    -1.2762994605
  135      C      -4.9828955808    -5.0667943342    -0.2314182315
  136      C      -2.8990626053    -2.2036682518    -3.8405687086
  137      C      -2.6945354840    -4.0691315041    -2.5203749687
  138      C      -1.6685315337    -3.1668179290    -2.2000468462
  139      C      -0.9807434439    -1.7850783376    -0.3398220627
  140      C      -4.9505262548     1.4708386331    -2.0932467443
  141      C      -5.4410121743     0.1060568370     2.2225829803
  142      C      -1.4098479009    -1.8086882432     0.9874619828
  143      C      -7.4446020426    -1.6643270590    -2.5455199444
  144      C      -3.1367167797    -0.8160887057     2.3705570747
  145      C      -7.1809882565    -2.6518343596     0.9988471505
  146      C      -3.4902495669     0.1273002152    -3.6154443379
  147      C      -1.7812362337    -3.8688621026     0.1572780421
  148      C      -7.3152129244    -0.2286573640     0.8245744138
  149      C      -1.4126708382    -0.7448932723    -2.4964541027
  150      C      -7.5965432618    -2.8031765536    -0.3288314920
  151      C      -4.9741760638    -2.3345113955     2.6331249979
  152      C      -4.7984579063    -3.7489649055    -3.6020781581
  153      C      -5.7207481373    -2.6605025111    -3.8975969324
  154      C      -5.1584286019    -3.5638819235     2.0619217879
  155      C      -4.7397660839     0.6834858208    -3.2603738579
  156      C      -7.0550665815     0.3909980483    -1.5932984220
  157      C      -3.7642484951    -1.1864319617    -4.1628631489
  158      C      -4.2382786531     1.6830902354     0.0797552371
  159      C      -2.9818798251    -3.2127031537     2.1481302215
  160      C      -7.6110022482    -0.3820974725    -0.5542489284
  161      C      -6.2089761491    -3.6701694560     1.1626583051
  162      C      -2.3060802752     0.3303130209    -2.8027513520
  163      C      -3.8628361786    -4.9364313285     0.6174123890
  164      C      -1.1149349964    -0.6316232192    -1.1412226599
  165      C      -3.2082086998    -4.9545674697    -1.5400750257
  166      C      -3.6311348378    -2.1000618029     2.6915942525
  167      C      -3.9657796819    -4.1413173316     1.8042962784
  168      C      -3.4536153856     1.0518161977     1.0236671217
  169      C      -3.7905266606     1.6616991215    -1.2672817236
  170      C      -3.4316301214    -3.5116669842    -3.5635359364
  171      C      -1.8804341822    -3.0621612129     1.2963423254
  172      C      -7.0251278448    -3.9340793008    -0.9056949054
  173      C      -5.1532989881    -1.4171259681    -4.1222060047
  174      C      -5.3361123228    -4.5150770730    -2.5280139723
  175      C      -2.4838873471     1.1151262950    -1.6251054927
  176      C      -1.7930668379    -1.9824991772    -2.9530409046
 ----------------------------------------------------------------

    9   -5804.2724296790      9.05E-06 Convergence criterion met
 Total energy in the final basis set = -5804.2724296790

                    Orbital Energies (a.u.)
 --------------------------------------------------------------

 Alpha MOs
 -- Occupied --
-19.197 -19.191 -19.138 -19.135 -10.325 -10.319 -10.249 -10.245
-10.243 -10.238 -10.238 -10.237 -10.235 -10.235 -10.229 -10.228
-10.228 -10.228 -10.227 -10.226 -10.226 -10.226 -10.225 -10.222
-10.221 -10.221 -10.221 -10.220 -10.218 -10.218 -10.218 -10.218
-10.217 -10.217 -10.217 -10.217 -10.217 -10.217 -10.217 -10.216
-10.216 -10.216 -10.216 -10.216 -10.216 -10.216 -10.215 -10.215
-10.215 -10.215 -10.215 -10.215 -10.215 -10.215 -10.214 -10.214
-10.214 -10.214 -10.214 -10.214 -10.214 -10.214 -10.214 -10.213
-10.213 -10.213 -10.213 -10.213 -10.213 -10.213 -10.213 -10.212
-10.212 -10.212 -10.212 -10.212 -10.212 -10.212 -10.211 -10.211
-10.211 -10.211 -10.211 -10.211 -10.211 -10.211 -10.211 -10.211
-10.211 -10.210 -10.210 -10.210 -10.210 -10.209 -10.209 -10.209
-10.209 -10.209 -10.209 -10.209 -10.209 -10.209 -10.209 -10.208
-10.208 -10.208 -10.208 -10.208 -10.208 -10.208 -10.207 -10.207
-10.207 -10.207 -10.206 -10.206 -10.206 -10.206 -10.206 -10.206
-10.206 -10.206 -10.205 -10.205 -10.205 -10.205 -10.205 -10.205
-10.204 -10.204 -10.204 -10.203 -10.202 -10.201 -10.201 -10.200
-10.200 -10.199 -10.196 -10.195 -10.195 -10.193 -10.193 -10.193
-10.192 -10.192 -10.191 -10.189  -1.102  -1.093  -1.016  -1.003
 -0.981  -0.981  -0.964  -0.962  -0.961  -0.960  -0.959  -0.959
 -0.933  -0.933  -0.925  -0.924  -0.923  -0.923  -0.921  -0.919
 -0.917  -0.916  -0.894  -0.893  -0.890  -0.889  -0.886  -0.880
 -0.874  -0.871  -0.860  -0.855  -0.840  -0.839  -0.837  -0.836
 -0.834  -0.834  -0.821  -0.820  -0.802  -0.799  -0.795  -0.794
 -0.794  -0.794  -0.791  -0.791  -0.790  -0.789  -0.784  -0.780
 -0.771  -0.769  -0.767  -0.767  -0.766  -0.766  -0.763  -0.763
 -0.754  -0.754  -0.750  -0.742  -0.733  -0.731  -0.714  -0.714
 -0.713  -0.711  -0.710  -0.709  -0.708  -0.708  -0.708  -0.707
 -0.707  -0.706  -0.706  -0.702  -0.702  -0.700  -0.670  -0.668
 -0.657  -0.657  -0.656  -0.656  -0.645  -0.642  -0.631  -0.629
 -0.625  -0.624  -0.621  -0.620  -0.619  -0.619  -0.619  -0.616
 -0.613  -0.613  -0.612  -0.611  -0.611  -0.609  -0.609  -0.606
 -0.605  -0.605  -0.602  -0.599  -0.570  -0.568  -0.565  -0.563
 -0.559  -0.557  -0.557  -0.557  -0.554  -0.552  -0.552  -0.551
 -0.535  -0.535  -0.532  -0.531  -0.528  -0.527  -0.523  -0.523
 -0.520  -0.519  -0.518  -0.517  -0.515  -0.512  -0.512  -0.510
 -0.509  -0.505  -0.499  -0.499  -0.495  -0.489  -0.487  -0.484
 -0.484  -0.482  -0.481  -0.480  -0.479  -0.477  -0.475  -0.475
 -0.473  -0.471  -0.469  -0.468  -0.467  -0.467  -0.466  -0.465
 -0.463  -0.463  -0.461  -0.461  -0.460  -0.460  -0.458  -0.456
 -0.455  -0.453  -0.452  -0.452  -0.450  -0.448  -0.443  -0.440
 -0.440  -0.438  -0.438  -0.437  -0.436  -0.436  -0.433  -0.431
 -0.429  -0.429  -0.428  -0.425  -0.425  -0.424  -0.423  -0.422
 -0.422  -0.422  -0.420  -0.420  -0.419  -0.418  -0.417  -0.416
 -0.415  -0.415  -0.414  -0.413  -0.413  -0.412  -0.410  -0.410
 -0.408  -0.408  -0.405  -0.405  -0.402  -0.401  -0.398  -0.396
 -0.394  -0.392  -0.391  -0.389  -0.387  -0.386  -0.384  -0.381
 -0.379  -0.376  -0.376  -0.373  -0.368  -0.368  -0.366  -0.365
 -0.363  -0.362  -0.361  -0.359  -0.358  -0.357  -0.356  -0.356
 -0.355  -0.355  -0.352  -0.352  -0.350  -0.350  -0.350  -0.349
 -0.348  -0.347  -0.347  -0.345  -0.344  -0.343  -0.343  -0.342
 -0.340  -0.339  -0.338  -0.338  -0.337  -0.336  -0.334  -0.332
 -0.330  -0.330  -0.327  -0.326  -0.325  -0.325  -0.324  -0.322
 -0.310  -0.304  -0.297  -0.297  -0.283  -0.280  -0.269  -0.269
 -0.268  -0.268  -0.267  -0.266  -0.265  -0.264  -0.263  -0.262
 -0.261  -0.260  -0.259  -0.257  -0.256  -0.255  -0.254  -0.253
 -0.251  -0.249  -0.244  -0.239  -0.219  -0.218  -0.212  -0.209
 -0.207  -0.205  -0.204  -0.202  -0.197  -0.196

          Ground-State Mulliken Net Atomic Charges

     Atom                 Charge (a.u.)
  ----------------------------------------
      1 O                    -0.445551
      2 C                    -0.080090
      3 H                     0.126894
      4 H                     0.125751
      5 H                     0.126662
      6 O                    -0.485351
      7 C                     0.597470
      8 C                    -0.272309
      9 H                     0.136148
     10 H                     0.126995
     11 C                    -0.189626
     12 H                     0.132520
     13 H                     0.117141
     14 C                    -0.186728
     15 H                     0.113486
     16 H                     0.104589
     17 C                     0.035956
     18 C                     0.060458
     19 C                    -0.091948
     20 H                     0.097833
     21 C                    -0.098642
     22 H                     0.081339
     23 C                    -0.059194
     24 H                     0.089215
     25 C                    -0.091220
     26 H                     0.092794
     27 C                    -0.105350
     28 H                     0.098582
     29 C                    -0.007516
     30 C                     0.014184
     31 C                     0.031485
     32 C                     0.014059
     33 C                     0.018826
     34 C                    -0.012690
     35 C                    -0.007747
     36 C                     0.000623
     37 C                     0.028987
     38 C                    -0.029329
     39 C                    -0.105908
     40 C                    -0.004108
     41 C                    -0.004539
     42 C                     0.026575
     43 C                    -0.008126
     44 C                    -0.011966
     45 C                    -0.093576
     46 C                     0.035377
     47 C                    -0.001468
     48 C                     0.015718
     49 C                    -0.013942
     50 C                     0.013288
     51 C                    -0.027911
     52 C                     0.006620
     53 C                     0.008563
     54 C                     0.020119
     55 C                     0.003391
     56 C                    -0.013586
     57 C                    -0.020439
     58 C                    -0.027872
     59 C                    -0.030070
     60 C                     0.025760
     61 C                    -0.005184
     62 C                    -0.016186
     63 C                     0.006413
     64 C                    -0.010380
     65 C                    -0.030424
     66 C                     0.004729
     67 C                    -0.001306
     68 C                    -0.038491
     69 C                    -0.013756
     70 C                     0.048184
     71 C                     0.007341
     72 C                     0.031775
     73 C                    -0.017171
     74 C                     0.016934
     75 C                    -0.032526
     76 C                     0.003306
     77 C                     0.013978
     78 C                    -0.019073
     79 C                     0.010379
     80 C                     0.009011
     81 C                     0.019174
     82 C                    -0.008881
     83 C                     0.006081
     84 C                    -0.004674
     85 C                     0.043778
     86 C                    -0.000835
     87 C                    -0.008752
     88 C                    -0.014982
     89 O                    -0.458419
     90 C                    -0.087963
     91 H                     0.135429
     92 H                     0.122867
     93 H                     0.120840
     94 O                    -0.453651
     95 C                     0.563065
     96 C                    -0.241324
     97 H                     0.127889
     98 H                     0.121186
     99 C                    -0.190234
    100 H                     0.117626
    101 H                     0.136335
    102 C                    -0.184386
    103 H                     0.112870
    104 H                     0.106626
    105 C                     0.016015
    106 C                     0.055454
    107 C                    -0.069851
    108 H                     0.095185
    109 C                    -0.104211
    110 H                     0.080563
    111 C                    -0.077639
    112 H                     0.090979
    113 C                    -0.092481
    114 H                     0.090949
    115 C                    -0.092060
    116 H                     0.095122
    117 C                     0.021920
    118 C                     0.002751
    119 C                    -0.028360
    120 C                    -0.014222
    121 C                    -0.026915
    122 C                    -0.001790
    123 C                     0.033821
    124 C                    -0.000086
    125 C                     0.016518
    126 C                    -0.000271
    127 C                    -0.090576
    128 C                    -0.053400
    129 C                    -0.036787
    130 C                     0.013371
    131 C                    -0.017302
    132 C                     0.019932
    133 C                    -0.083312
    134 C                     0.029498
    135 C                     0.004722
    136 C                    -0.000288
    137 C                     0.010492
    138 C                    -0.008080
    139 C                     0.005324
    140 C                    -0.010316
    141 C                     0.033765
    142 C                    -0.009471
    143 C                    -0.009272
    144 C                    -0.006580
    145 C                    -0.003004
    146 C                    -0.000778
    147 C                     0.009633
    148 C                     0.049444
    149 C                    -0.014099
    150 C                    -0.007812
    151 C                     0.020503
    152 C                    -0.038014
    153 C                    -0.013194
    154 C                     0.019024
    155 C                     0.010370
    156 C                    -0.012720
    157 C                    -0.015039
    158 C                     0.008356
    159 C                    -0.002040
    160 C                     0.034165
    161 C                     0.017851
    162 C                    -0.024487
    163 C                     0.006092
    164 C                    -0.001381
    165 C                    -0.004055
    166 C                    -0.013819
    167 C                    -0.018969
    168 C                     0.023488
    169 C                    -0.013594
    170 C                     0.004410
    171 C                     0.017458
    172 C                    -0.013262
    173 C                     0.015873
    174 C                     0.005220
    175 C                     0.001232
    176 C                     0.022214
  ----------------------------------------
  Sum of atomic charges =     0.000000

                    Cartesian Multipole Moments
 -----------------------------------------------------------------
    Charge (ESU x 10^10)
                 0.0000
    Dipole Moment (Debye)
         X       0.6538      Y      -3.3188      Z       3.7444
       Tot       5.0460
    Quadrupole Moments (Debye-Ang)
        XX    -775.5434     XY     -19.5685     YY    -800.2834
        XZ      -5.1794     YZ      10.1747     ZZ    -789.9228

 Total job time:  856.49s(wall), 8181.08s(cpu)
        *  Thank you very much for using Q-Chem.  Have a nice day.  *
