 Q-Chem 4.4, Q-Chem, Inc., Pleasanton, CA (2016)
 Q-Chem 4.4.2 for Intel X86 Linux

User input:
--------------------------------------------------------------
$comment
SP
$end

$rem
MEM_STATIC 5000
MEM_TOTAL 20000
JOBTYPE SP
EXCHANGE B3LYP
BASIS 6-31g(d,p)
$end

$molecule
0 1
O          14.164000     15.734000      0.525000
C          15.261000     16.777000      0.468000
H          14.922000     17.691000      0.970000
H          15.674000     16.961000     -0.532000
H          16.086000     16.434000      1.104000
O          12.435000     17.114000      0.042000
C          12.833000     16.019000      0.282000
C          12.010000     14.761000      0.299000
H          11.180000     14.894000     -0.405000
H          11.495000     14.818000      1.266000
C          12.745000     13.467000     -0.041000
H          13.666000     13.402000      0.552000
H          12.120000     12.638000      0.313000
C          13.211000     13.359000     -1.507000
H          12.316000     13.331000     -2.141000
H          13.772000     14.246000     -1.825000
C          14.314000     12.342000     -1.787000
C          15.634000     12.863000     -1.342000
C          16.339000     13.729000     -2.241000
H          15.934000     14.096000     -3.179000
C          17.528000     14.379000     -1.826000
H          17.918000     15.101000     -2.537000
C          18.207000     13.827000     -0.691000
H          19.145000     14.232000     -0.321000
C          17.649000     12.819000      0.116000
H          18.292000     12.487000      0.926000
C          16.339000     12.342000     -0.135000
H          15.886000     11.588000      0.502000
C          16.042000      8.918000     -5.796000
C          16.756000      7.781000     -3.727000
C          13.644000      4.421000     -3.999000
C          11.162000      9.987000     -5.622000
C          11.464000      5.970000     -1.686000
C          16.539000      8.941000     -4.441000
C           9.850000      8.034000     -4.161000
C          14.979000      5.397000     -5.721000
C          14.203000      8.673000     -0.734000
C          10.730000     10.322000     -4.327000
C          13.974000     10.841000     -1.688000
C          12.833000      9.014000     -0.660000
C          10.665000      9.276000     -2.317000
C          10.029000      6.853000     -3.451000
C          15.864000      9.277000     -2.333000
C          11.430000      5.004000     -3.922000
C          14.159000     11.484000     -3.055000
C          12.933000     11.462000     -3.931000
C          11.962000      5.076000     -2.597000
C          12.324000      7.045000     -7.290000
C          12.611000      5.106000     -6.090000
C          13.837000      5.602000     -6.470000
C          15.949000      6.427000     -5.649000
C          13.293000     11.068000     -5.246000
C          14.893000      9.694000     -1.389000
C          16.413000      6.504000     -4.325000
C          10.121000      9.310000     -3.619000
C          16.376000      7.931000     -2.376000
C          11.849000      7.966000     -0.749000
C          12.866000      9.416000     -6.972000
C          14.882000      4.845000     -4.468000
C          12.635000     10.209000     -1.303000
C          14.616000      7.807000     -7.189000
C          10.706000      8.102000     -1.557000
C          14.647000      7.378000     -0.796000
C          10.585000      6.457000     -5.704000
C          10.178000      7.770000     -5.531000
C          13.701000      6.406000     -0.916000
C          12.411000     10.385000     -6.083000
C          11.704000     10.921000     -3.436000
C          11.922000      8.404000     -7.116000
C          15.220000     10.927000     -3.992000
C          15.377000      5.729000     -2.240000
C          11.515000     10.351000     -2.165000
C          12.300000      6.668000     -0.840000
C          14.224000      9.161000     -7.075000
C          13.299000      4.765000     -2.667000
C          15.743000      7.669000     -6.380000
C          12.508000      4.594000     -4.795000
C          15.715000      6.940000     -1.630000
C          14.169000      5.440000     -1.810000
C          16.078000      9.893000     -3.572000
C          14.698000     10.795000     -5.301000
C          11.627000      6.027000     -6.578000
C          15.782000      5.548000     -3.593000
C          10.495000      6.893000     -2.135000
C          10.831000      8.765000     -6.272000
C          10.516000      5.963000     -4.391000
C          15.117000      9.874000     -6.246000
C          13.689000      6.753000     -7.258000
O          19.161000      8.508000     -1.816000
C          19.432000      9.918000     -1.483000
H          19.510000     10.076000     -0.401000
H          18.601000     10.548000     -1.824000
H          20.376000     10.258000     -1.926000
O          21.251000      7.794000     -1.049000
C          20.184000      7.607000     -1.531000
C          19.756000      6.268000     -2.032000
H          20.596000      6.031000     -2.696000
H          18.960000      6.356000     -2.781000
C          19.321000      5.169000     -0.988000
H          20.153000      5.165000     -0.272000
H          18.418000      5.489000     -0.453000
C          19.223000      3.838000     -1.743000
H          18.458000      3.923000     -2.525000
H          20.156000      3.692000     -2.301000
C          18.833000      2.704000     -0.723000
C          19.774000      2.726000      0.493000
C          21.131000      2.345000      0.429000
H          21.652000      2.165000     -0.507000
C          21.858000      2.147000      1.605000
H          22.864000      1.742000      1.566000
C          21.343000      2.412000      2.891000
H          21.907000      2.287000      3.811000
C          20.010000      2.883000      2.906000
H          19.660000      3.011000      3.926000
C          19.178000      3.004000      1.765000
H          18.117000      3.218000      1.854000
C          18.590000     -2.686000     -0.417000
C          16.860000     -2.097000      1.145000
C          13.525000     -3.543000     -1.626000
C          18.016000     -0.642000     -4.926000
C          12.822000     -0.276000     -2.814000
C          18.091000     -1.775000      0.549000
C          15.358000     -0.342000     -5.528000
C          15.589000     -4.612000     -1.087000
C          15.252000      1.374000     -0.051000
C          17.430000      0.598000     -4.683000
C          17.362000      2.081000     -0.772000
C          15.079000      1.949000     -1.382000
C          15.563000      1.667000     -4.033000
C          14.026000     -0.556000     -4.950000
C          17.053000      0.205000      0.881000
C          13.243000     -2.544000     -3.661000
C          18.604000      1.321000     -1.272000
C          18.736000      1.011000     -2.763000
C          12.812000     -1.666000     -2.663000
C          16.928000     -3.860000     -4.224000
C          14.884000     -4.314000     -3.435000
C          15.805000     -4.697000     -2.483000
C          16.692000     -4.124000     -0.229000
C          19.302000     -0.217000     -2.963000
C          16.570000      1.346000      0.289000
C          16.150000     -3.270000      0.747000
C          16.101000      0.727000     -4.986000
C          16.200000     -0.877000      1.248000
C          14.015000      1.525000     -2.175000
C          18.853000     -2.452000     -3.860000
C          14.461000     -3.959000     -0.631000
C          16.322000      2.354000     -1.820000
C          18.166000     -4.028000     -2.152000
C          14.241000      1.332000     -3.561000
C          14.395000      0.378000      0.392000
C          15.100000     -2.629000     -5.258000
C          15.960000     -1.590000     -5.730000
C          13.312000     -0.043000     -0.421000
C          18.944000     -1.097000     -4.012000
C          17.765000      1.453000     -3.616000
C          17.787000     -2.847000     -4.668000
C          18.992000      0.050000     -0.645000
C          14.101000     -1.927000      0.609000
C          16.607000      2.124000     -3.168000
C          13.138000      0.513000     -1.711000
C          19.073000     -3.065000     -2.568000
C          12.922000     -2.271000     -1.466000
C          17.962000     -3.873000     -0.800000
C          13.686000     -3.726000     -3.027000
C          14.822000     -0.772000      1.005000
C          13.188000     -1.470000     -0.276000
C          18.230000     -0.418000      0.444000
C          19.443000     -0.824000     -1.684000
C          15.550000     -3.777000     -4.516000
C          14.761000     -3.163000      0.455000
C          13.502000      0.252000     -3.999000
C          17.289000     -1.730000     -5.363000
C          13.895000     -1.993000     -4.787000
C          19.303000     -2.183000     -1.522000
C          17.092000     -4.428000     -2.970000
$end

--------------------------------------------------------------

             Standard Nuclear Orientation (Angstroms)
    I     Atom           X                Y                Z
 ----------------------------------------------------------------
    1      O     -10.8856089129     2.7871959708     2.2041046924
    2      C     -11.6997010406     3.8165611800     1.4476866374
    3      H     -12.6416667934     3.9987368470     1.9785666116
    4      H     -11.8394924769     3.6035300454     0.3802124738
    5      H     -11.1801307038     4.7794270275     1.5232248708
    6      O     -12.5898869505     1.3768606088     2.6873443196
    7      C     -11.4303404484     1.6363802949     2.7432946723
    8      C     -10.3543034690     0.7641027713     3.3276390404
    9      H     -10.6715469555    -0.2795119901     3.2161500276
   10      H     -10.4717187338     0.9199312099     4.4072195855
   11      C      -8.9573172597     0.9230568928     2.7331441973
   12      H      -8.6935627981     1.9875801030     2.6965529583
   13      H      -8.2508324173     0.4795793486     3.4454565131
   14      C      -8.8186479702     0.4318023988     1.2780098907
   15      H      -8.9877989621    -0.6522336242     1.2736690681
   16      H      -9.5929139781     0.8553239220     0.6270447086
   17      C      -7.6202211773     0.9685467592     0.5002074005
   18      C      -7.8601286121     2.3712441046     0.0680609208
   19      C      -8.6086368827     2.5715175395    -1.1380932652
   20      H      -9.0827108369     1.7742633088    -1.7021833090
   21      C      -9.0013835801     3.8755337112    -1.5301874571
   22      H      -9.6619522321     3.9068665487    -2.3913333851
   23      C      -8.2855982636     4.9716518482    -0.9469667353
   24      H      -8.4880930119     6.0055995261    -1.2128935604
   25      C      -7.3731552303     4.8102820150     0.1113737051
   26      H      -6.8926130543     5.7300414864     0.4321457922
   27      C      -7.1669535774     3.5351002630     0.6927706244
   28      H      -6.4899837868     3.4051764362     1.5320117709
   29      C      -4.0858890342    -0.5734111592    -3.4888655594
   30      C      -2.7535392851     0.9833753234    -2.1160633182
   31      C      -0.0675066250    -2.2582408752    -0.2925280238
   32      C      -6.0654377075    -4.1755594479    -0.6439838823
   33      C      -1.9158469524    -2.3889645769     2.7188370068
   34      C      -3.9603998156     0.6071199415    -2.6677920085
   35      C      -4.3459331061    -4.7314596075     1.4546711485
   36      C      -0.8346717171    -2.0092398521    -2.5396464480
   37      C      -4.0029825653     0.8286869743     1.7162316867
   38      C      -6.4267909550    -3.7149234820     0.6339489553
   39      C      -6.2098807950     0.4853192336     0.8949644961
   40      C      -4.5978393823    -0.1607702550     2.5321831304
   41      C      -5.3357020649    -2.7973635949     2.3963478566
   42      C      -3.1259397242    -4.3915893217     2.0265158274
   43      C      -4.3379387584     1.3419513909    -0.5870055976
   44      C      -1.0617846494    -3.8760531151     0.9887638112
   45      C      -6.8578096740    -0.0386234590    -0.3786269701
   46      C      -7.1058476222    -1.5249725687    -0.3920247480
   47      C      -0.9787789061    -2.6760823938     1.7614301781
   48      C      -3.0218287438    -4.7354571645    -2.4358519085
   49      C      -1.0188029590    -4.1632021769    -1.4650265202
   50      C      -1.2842345784    -3.3148028344    -2.5153867494
   51      C      -1.6554295279    -1.0092946572    -3.1170979378
   52      C      -6.7012548375    -2.0651391599    -1.6404580592
   53      C      -4.8969096501     1.1851913647     0.7056056496
   54      C      -1.5904365847     0.1367383031    -2.3067983813
   55      C      -5.5240653090    -3.9746812968     1.6408756089
   56      C      -2.9213184811     1.4845884783    -0.8073477208
   57      C      -3.7627809107    -1.1848951249     3.1051810358
   58      C      -5.2302906843    -3.6951868873    -2.6747297189
   59      C      -0.2634782624    -1.4643884271    -1.4167052376
   60      C      -5.8326168464    -0.4747319034     2.0248068424
   61      C      -3.3245477896    -2.7119960471    -3.7235146306
   62      C      -4.1471618952    -2.5375743726     3.0873173386
   63      C      -2.6501795700     0.9152679348     1.5151526149
   64      C      -2.7180590375    -5.3155741351    -0.0999475299
   65      C      -4.0770989450    -5.3055232728     0.1692299395
   66      C      -1.8835424800    -0.0827618619     2.0350603925
   67      C      -6.2334896517    -3.3729837911    -1.7658380881
   68      C      -6.7924098846    -2.3176413503     0.7575751769
   69      C      -4.4249757442    -4.7125999670    -2.1723807639
   70      C      -6.1439854723     0.1688953419    -1.7057780378
   71      C      -0.9488280289     0.3712423537     0.0499986637
   72      C      -6.2205528108    -1.8390630534     1.9492145102
   73      C      -2.4068143926    -1.1099567316     2.8766530523
   74      C      -4.7231947228    -2.7165875419    -3.5143695267
   75      C      -0.4195280003    -1.7052794019     0.9652078627
   76      C      -2.9412424390    -1.3718661722    -3.6955338065
   77      C      -0.4863587179    -3.5917995094    -0.3075378068
   78      C      -2.0477081478     1.2089718290     0.2586534275
   79      C      -0.8809801374    -0.3969322989     1.1144183960
   80      C      -4.9488571838     0.9099792148    -1.7704546740
   81      C      -6.1656138094    -1.0246371653    -2.4663050718
   82      C      -2.1299801415    -5.0642040428    -1.3749048973
   83      C      -0.7459226115    -0.1167279495    -1.2721622096
   84      C      -3.0245906659    -3.2551936321     2.8320871806
   85      C      -4.9559756438    -5.0326956209    -0.8884353293
   86      C      -2.1960322591    -4.7034580192     1.0513855684
   87      C      -5.2185730543    -1.3991954262    -3.4042000112
   88      C      -2.4718741001    -3.6802042040    -3.1662655443
   89      O      -2.9300765970     4.1324460667    -1.9869779540
   90      C      -4.2477063739     4.7929449191    -1.9821782697
   91      H      -4.3457165652     5.5062164409    -1.1554922721
   92      H      -5.0384265525     4.0464922360    -1.8361919997
   93      H      -4.4168146163     5.3521258997    -2.9104584177
   94      O      -1.7984711638     6.1135980814    -2.4975568784
   95      C      -1.8388810051     4.9513162974    -2.2667970480
   96      C      -0.6275619819     4.0815757722    -2.3247939694
   97      H      -0.2594272934     4.3272071151    -3.3281917443
   98      H      -0.8958873537     3.0311289153    -2.4888789948
   99      C       0.4069418149     4.1384472846    -1.1358744912
  100      H       0.5985391695     5.2136755827    -1.0260083883
  101      H      -0.0596904539     3.7831737000    -0.2084754369
  102      C       1.6640066555     3.3872653994    -1.5905213453
  103      H       1.4033031366     2.3420237278    -1.7990339904
  104      H       1.9648923475     3.7844124590    -2.5677168290
  105      C       2.7405509327     3.4599596309    -0.4441252672
  106      C       2.9469810041     4.9145853012     0.0098260353
  107      C       3.5789498850     5.8922587153    -0.7873414683
  108      H       3.8193318563     5.7370229315    -1.8352228353
  109      C       3.9584232391     7.1136952392    -0.2262694661
  110      H       4.5474249307     7.8213901149    -0.8005751079
  111      C       3.6494077948     7.4903836875     1.0973094957
  112      H       3.9160457627     8.4475024118     1.5365690335
  113      C       2.9319006896     6.5197831754     1.8335657011
  114      H       2.7786343301     6.8504905560     2.8565153829
  115      C       2.6091054126     5.2209144534     1.3672082715
  116      H       2.1987609902     4.4638920382     2.0290031928
  117      C       7.9910573768     2.4765218280     0.3742983198
  118      C       7.1414773295     2.1006415441     2.5916374358
  119      C       7.8109629680    -2.4142605488     2.3486763858
  120      C       5.7016737487    -0.2103635368    -3.1439203544
  121      C       4.4262195034    -3.0736194537     1.5194601815
  122      C       7.0392584752     2.7975417652     1.3758486434
  123      C       4.8732426200    -2.6239376600    -2.1410595381
  124      C       9.2768433225    -0.6486768256     1.6950045241
  125      C       3.3824230973     0.7511161446     2.2566546370
  126      C       4.3825214218    -0.3159300481    -2.7094806575
  127      C       3.0667981357     2.1464148836     0.4058947086
  128      C       2.7337535223    -0.0499425257     1.2224168553
  129      C       3.0005843253    -1.2400154865    -1.1971096832
  130      C       4.8494462049    -3.3924375964    -0.8908813194
  131      C       4.9110368922     2.5151180380     2.0822322023
  132      C       6.6982916839    -3.6315046346     0.7678445006
  133      C       4.0314079154     2.7134950426    -0.6515134748
  134      C       4.3029845311     1.9051598048    -1.9201526217
  135      C       5.7931632849    -3.2437217980     1.7593161608
  136      C       8.6752651006    -1.2509956700    -1.6924000359
  137      C       8.7581235763    -2.5091690952     0.1560336538
  138      C       9.3476161511    -1.2950013307     0.4380427742
  139      C       9.0435873224     0.8126568634     1.7268241397
  140      C       5.6081916911     2.0216659168    -2.3089978293
  141      C       3.6764040301     1.9934291964     1.7836414317
  142      C       8.1398037767     1.0949099498     2.7656525652
  143      C       3.9888206606    -1.5276304832    -2.2080100538
  144      C       5.8222870687     1.8518716734     2.9555874425
  145      C       2.9142675328    -1.4312818788     1.2163108310
  146      C       7.6787335310     0.7467328237    -2.6070533562
  147      C       8.4373645276    -1.1692883485     2.6598713517
  148      C       2.5585754251     0.7623370374     0.1222202612
  149      C       9.1582677747     0.8992268344    -0.6937491466
  150      C       3.0932533870    -2.0832209286    -0.0295866525
  151      C       4.2115190977     0.1438262353     3.1875213236
  152      C       7.0767123242    -3.0841378687    -1.5908141103
  153      C       6.2049040011    -2.4834409329    -2.5505111662
  154      C       4.3846640972    -1.2636466480     3.1756937371
  155      C       6.3616415171     0.9746199945    -2.8912118760
  156      C       3.6498626579     0.7186445705    -2.0974304194
  157      C       7.8298448314    -0.6396397943    -2.6265812611
  158      C       5.3766121358     3.1562354623    -0.2596965201
  159      C       6.4236655197    -0.3788269267     3.7164748943
  160      C       2.7866566335     0.1727162519    -1.1233941621
  161      C       3.7560222428    -2.0453103378     2.1770329864
  162      C       8.3721885176     1.5560395587    -1.6284953404
  163      C       6.4539477403    -2.5754278271     2.7224781783
  164      C       9.0194555309     1.5423438181     0.5148354414
  165      C       7.9670672389    -3.1249053090     1.1268636009
  166      C       5.4450265633     0.6313057981     3.5359764976
  167      C       5.7657437059    -1.5347929849     3.4787263731
  168      C       5.7312532789     3.0911371118     1.1025005525
  169      C       6.2800738286     2.7615306114    -1.2964043141
  170      C       8.3176786668    -2.5037041622    -1.1502834655
  171      C       7.7565688331    -0.1622757959     3.3121404230
  172      C       3.9932608312    -3.1184516796     0.1209088383
  173      C       6.6118713003    -1.2368770697    -2.9988259579
  174      C       6.2396836431    -3.6606012839    -0.5683489921
  175      C       7.5920568065     2.4995844615    -0.9757645157
  176      C       9.3123567120    -0.5001802040    -0.7164766707
 ----------------------------------------------------------------

    9   -5804.2300626125      8.40E-06 Convergence criterion met
 Total energy in the final basis set = -5804.2300626125

                    Orbital Energies (a.u.)
 --------------------------------------------------------------

 Alpha MOs
 -- Occupied --
-19.192 -19.184 -19.142 -19.134 -10.313 -10.313 -10.251 -10.250
-10.246 -10.244 -10.243 -10.241 -10.241 -10.232 -10.232 -10.232
-10.230 -10.229 -10.227 -10.226 -10.226 -10.226 -10.225 -10.224
-10.224 -10.223 -10.222 -10.222 -10.222 -10.222 -10.222 -10.221
-10.221 -10.221 -10.221 -10.220 -10.220 -10.220 -10.220 -10.219
-10.219 -10.219 -10.218 -10.218 -10.218 -10.218 -10.218 -10.218
-10.218 -10.218 -10.218 -10.218 -10.217 -10.217 -10.217 -10.217
-10.217 -10.217 -10.217 -10.216 -10.216 -10.216 -10.216 -10.216
-10.216 -10.215 -10.215 -10.215 -10.215 -10.215 -10.215 -10.215
-10.215 -10.215 -10.215 -10.215 -10.214 -10.214 -10.214 -10.214
-10.214 -10.214 -10.214 -10.214 -10.214 -10.214 -10.214 -10.213
-10.213 -10.213 -10.213 -10.213 -10.213 -10.213 -10.213 -10.213
-10.213 -10.213 -10.212 -10.212 -10.212 -10.212 -10.212 -10.212
-10.212 -10.212 -10.212 -10.212 -10.211 -10.211 -10.211 -10.211
-10.211 -10.210 -10.210 -10.210 -10.209 -10.209 -10.209 -10.208
-10.208 -10.208 -10.208 -10.208 -10.207 -10.207 -10.207 -10.206
-10.206 -10.206 -10.206 -10.206 -10.205 -10.205 -10.205 -10.205
-10.205 -10.204 -10.202 -10.202 -10.202 -10.202 -10.199 -10.199
-10.198 -10.198 -10.196 -10.191  -1.089  -1.084  -1.021  -1.005
 -0.986  -0.983  -0.966  -0.965  -0.964  -0.963  -0.963  -0.959
 -0.933  -0.932  -0.930  -0.928  -0.927  -0.926  -0.924  -0.922
 -0.921  -0.921  -0.898  -0.894  -0.893  -0.890  -0.888  -0.887
 -0.875  -0.868  -0.852  -0.848  -0.843  -0.842  -0.840  -0.839
 -0.838  -0.837  -0.825  -0.821  -0.808  -0.802  -0.801  -0.798
 -0.797  -0.796  -0.795  -0.794  -0.792  -0.791  -0.786  -0.783
 -0.773  -0.772  -0.770  -0.770  -0.768  -0.767  -0.764  -0.760
 -0.757  -0.746  -0.740  -0.739  -0.733  -0.732  -0.718  -0.717
 -0.716  -0.715  -0.714  -0.713  -0.712  -0.712  -0.710  -0.708
 -0.708  -0.706  -0.706  -0.706  -0.705  -0.695  -0.674  -0.671
 -0.660  -0.659  -0.659  -0.658  -0.653  -0.646  -0.635  -0.632
 -0.632  -0.630  -0.627  -0.623  -0.621  -0.619  -0.618  -0.617
 -0.617  -0.616  -0.615  -0.614  -0.612  -0.612  -0.610  -0.608
 -0.607  -0.605  -0.604  -0.602  -0.567  -0.566  -0.564  -0.561
 -0.560  -0.559  -0.558  -0.558  -0.557  -0.556  -0.555  -0.553
 -0.539  -0.535  -0.533  -0.532  -0.531  -0.531  -0.528  -0.527
 -0.522  -0.521  -0.521  -0.518  -0.516  -0.515  -0.514  -0.511
 -0.508  -0.507  -0.499  -0.498  -0.490  -0.490  -0.489  -0.487
 -0.485  -0.483  -0.480  -0.480  -0.478  -0.478  -0.476  -0.473
 -0.472  -0.471  -0.471  -0.469  -0.468  -0.467  -0.467  -0.467
 -0.466  -0.465  -0.464  -0.462  -0.462  -0.461  -0.460  -0.458
 -0.456  -0.455  -0.454  -0.450  -0.448  -0.447  -0.445  -0.445
 -0.442  -0.441  -0.440  -0.439  -0.438  -0.438  -0.437  -0.436
 -0.432  -0.432  -0.431  -0.428  -0.426  -0.426  -0.425  -0.425
 -0.424  -0.422  -0.422  -0.421  -0.421  -0.420  -0.419  -0.419
 -0.418  -0.417  -0.417  -0.417  -0.415  -0.414  -0.414  -0.413
 -0.413  -0.412  -0.411  -0.409  -0.405  -0.401  -0.400  -0.397
 -0.397  -0.394  -0.393  -0.392  -0.389  -0.387  -0.386  -0.385
 -0.378  -0.377  -0.377  -0.376  -0.371  -0.370  -0.369  -0.368
 -0.366  -0.365  -0.363  -0.363  -0.362  -0.362  -0.361  -0.359
 -0.358  -0.357  -0.356  -0.353  -0.353  -0.353  -0.351  -0.350
 -0.350  -0.350  -0.347  -0.347  -0.345  -0.345  -0.345  -0.343
 -0.342  -0.341  -0.340  -0.339  -0.338  -0.337  -0.336  -0.335
 -0.332  -0.332  -0.331  -0.331  -0.330  -0.328  -0.324  -0.321
 -0.311  -0.307  -0.302  -0.299  -0.289  -0.288  -0.275  -0.273
 -0.272  -0.269  -0.269  -0.267  -0.267  -0.267  -0.266  -0.265
 -0.263  -0.262  -0.262  -0.260  -0.257  -0.256  -0.253  -0.253
 -0.252  -0.247  -0.247  -0.245  -0.226  -0.224  -0.214  -0.212
 -0.210  -0.208  -0.206  -0.203  -0.200  -0.197

          Ground-State Mulliken Net Atomic Charges

     Atom                 Charge (a.u.)
  ----------------------------------------
      1 O                    -0.495505
      2 C                    -0.086785
      3 H                     0.135152
      4 H                     0.130164
      5 H                     0.129051
      6 O                    -0.451245
      7 C                     0.598424
      8 C                    -0.270971
      9 H                     0.134743
     10 H                     0.137971
     11 C                    -0.181423
     12 H                     0.124391
     13 H                     0.100109
     14 C                    -0.173898
     15 H                     0.108242
     16 H                     0.114004
     17 C                     0.001392
     18 C                     0.069113
     19 C                    -0.102862
     20 H                     0.098884
     21 C                    -0.092902
     22 H                     0.099110
     23 C                    -0.095695
     24 H                     0.091238
     25 C                    -0.090946
     26 H                     0.098582
     27 C                    -0.103716
     28 H                     0.106157
     29 C                    -0.006062
     30 C                    -0.002554
     31 C                     0.010969
     32 C                     0.004254
     33 C                    -0.001669
     34 C                     0.004099
     35 C                    -0.002125
     36 C                    -0.008555
     37 C                     0.007276
     38 C                    -0.032874
     39 C                    -0.088651
     40 C                     0.025567
     41 C                     0.012999
     42 C                     0.016277
     43 C                    -0.004177
     44 C                    -0.024133
     45 C                    -0.082574
     46 C                     0.023131
     47 C                     0.004507
     48 C                    -0.015965
     49 C                    -0.001237
     50 C                     0.038032
     51 C                    -0.029758
     52 C                    -0.015185
     53 C                     0.008505
     54 C                    -0.003824
     55 C                     0.007562
     56 C                     0.051559
     57 C                    -0.028112
     58 C                     0.004109
     59 C                    -0.007981
     60 C                     0.020523
     61 C                    -0.001419
     62 C                     0.003752
     63 C                    -0.001603
     64 C                     0.038520
     65 C                    -0.018238
     66 C                     0.003292
     67 C                     0.019948
     68 C                    -0.002733
     69 C                     0.013258
     70 C                     0.014236
     71 C                     0.001516
     72 C                    -0.010054
     73 C                    -0.002125
     74 C                    -0.007648
     75 C                     0.007497
     76 C                    -0.006988
     77 C                    -0.015946
     78 C                    -0.064424
     79 C                     0.034688
     80 C                     0.005233
     81 C                     0.025630
     82 C                    -0.029140
     83 C                     0.022017
     84 C                    -0.001587
     85 C                    -0.020726
     86 C                    -0.006632
     87 C                    -0.013323
     88 C                     0.009873
     89 O                    -0.478130
     90 C                    -0.101962
     91 H                     0.120057
     92 H                     0.135329
     93 H                     0.127497
     94 O                    -0.445342
     95 C                     0.591958
     96 C                    -0.265329
     97 H                     0.121667
     98 H                     0.118838
     99 C                    -0.187259
    100 H                     0.134446
    101 H                     0.114572
    102 C                    -0.184233
    103 H                     0.115426
    104 H                     0.114094
    105 C                     0.007964
    106 C                     0.053959
    107 C                    -0.091812
    108 H                     0.092660
    109 C                    -0.092281
    110 H                     0.087000
    111 C                    -0.073195
    112 H                     0.098328
    113 C                    -0.101903
    114 H                     0.082474
    115 C                    -0.095183
    116 H                     0.099590
    117 C                     0.007321
    118 C                    -0.018202
    119 C                    -0.002777
    120 C                    -0.012115
    121 C                    -0.013859
    122 C                    -0.002642
    123 C                     0.002341
    124 C                    -0.036693
    125 C                     0.009761
    126 C                     0.011388
    127 C                    -0.096570
    128 C                     0.028170
    129 C                    -0.025071
    130 C                    -0.006436
    131 C                     0.023816
    132 C                     0.012939
    133 C                    -0.094543
    134 C                     0.043060
    135 C                     0.039390
    136 C                    -0.027195
    137 C                     0.011930
    138 C                     0.022908
    139 C                    -0.020266
    140 C                     0.009361
    141 C                     0.015336
    142 C                     0.005507
    143 C                    -0.004015
    144 C                    -0.016327
    145 C                    -0.007202
    146 C                    -0.004511
    147 C                     0.015651
    148 C                     0.042033
    149 C                     0.020177
    150 C                     0.005457
    151 C                     0.002672
    152 C                    -0.002266
    153 C                    -0.015250
    154 C                    -0.021120
    155 C                     0.001667
    156 C                    -0.004145
    157 C                     0.005912
    158 C                     0.040924
    159 C                     0.017788
    160 C                    -0.002137
    161 C                    -0.001161
    162 C                    -0.035152
    163 C                    -0.014851
    164 C                    -0.009738
    165 C                    -0.031706
    166 C                    -0.007295
    167 C                    -0.021419
    168 C                     0.013486
    169 C                    -0.008611
    170 C                     0.007280
    171 C                     0.015334
    172 C                     0.000720
    173 C                     0.016956
    174 C                    -0.024447
    175 C                     0.007697
    176 C                     0.019924
  ----------------------------------------
  Sum of atomic charges =     0.000000

                    Cartesian Multipole Moments
 -----------------------------------------------------------------
    Charge (ESU x 10^10)
                 0.0000
    Dipole Moment (Debye)
         X      -2.1703      Y       3.7048      Z      -0.3178
       Tot       4.3054
    Quadrupole Moments (Debye-Ang)
        XX    -822.0797     XY     -20.3124     YY    -797.2563
        XZ       8.2638     YZ       5.5789     ZZ    -806.4808

 Total job time:  878.06s(wall), 8379.27s(cpu)
        *  Thank you very much for using Q-Chem.  Have a nice day.  *
