 Q-Chem 4.4, Q-Chem, Inc., Pleasanton, CA (2016)
 Q-Chem 4.4.2 for Intel X86 Linux

User input:
--------------------------------------------------------------
$comment
SP
$end

$rem
MEM_STATIC 5000
MEM_TOTAL 20000
JOBTYPE SP
EXCHANGE B3LYP
BASIS 6-31g(d,p)
$end

$molecule
0 1
O          11.485000     -6.349000      8.764000
C          10.119000     -6.397000      8.205000
H           9.569000     -7.278000      8.560000
H          10.177000     -6.203000      7.127000
H           9.612000     -5.487000      8.549000
O          11.836000     -8.611000      8.237000
C          12.232000     -7.491000      8.600000
C          13.616000     -7.351000      9.178000
H          13.859000     -8.274000      9.719000
H          13.579000     -6.527000      9.901000
C          14.708000     -6.903000      8.103000
H          14.643000     -7.594000      7.254000
H          14.414000     -5.922000      7.710000
C          16.135000     -7.053000      8.662000
H          16.182000     -6.292000      9.451000
H          16.124000     -8.115000      8.938000
C          17.126000     -6.820000      7.586000
C          17.328000     -8.072000      6.808000
C          18.197000     -9.059000      7.390000
H          18.579000     -8.983000      8.404000
C          18.469000    -10.219000      6.654000
H          19.048000    -11.054000      7.037000
C          18.051000    -10.350000      5.307000
H          18.335000    -11.264000      4.794000
C          17.154000     -9.387000      4.774000
H          16.847000     -9.379000      3.732000
C          16.756000     -8.295000      5.539000
H          16.025000     -7.614000      5.114000
C          22.181000     -4.911000      6.994000
C          21.260000     -4.600000      4.727000
C          20.978000     -0.035000      5.199000
C          19.273000     -2.768000     10.617000
C          17.544000     -0.093000      5.903000
C          21.364000     -5.372000      5.943000
C          18.063000     -0.451000      9.469000
C          22.655000     -1.565000      5.890000
C          17.233000     -4.023000      5.054000
C          17.973000     -2.862000     10.132000
C          17.287000     -5.479000      6.987000
C          16.523000     -3.393000      6.083000
C          16.565000     -2.163000      8.582000
C          17.961000      0.310000      8.231000
C          19.183000     -5.469000      5.225000
C          19.689000      0.767000      6.747000
C          18.291000     -5.949000      7.965000
C          18.452000     -5.128000      9.193000
C          18.851000      0.397000      5.666000
C          22.087000     -1.008000      9.339000
C          21.932000      0.178000      7.474000
C          22.747000     -0.907000      7.144000
C          22.824000     -2.932000      5.721000
C          19.730000     -4.946000      9.561000
C          17.770000     -5.193000      5.590000
C          21.949000     -3.401000      4.701000
C          17.319000     -1.687000      9.644000
C          19.896000     -4.628000      4.350000
C          16.464000     -2.035000      6.118000
C          21.429000     -3.246000     10.008000
C          21.784000     -1.129000      4.935000
C          16.497000     -4.210000      7.229000
C          22.949000     -3.090000      8.119000
C          16.489000     -1.390000      7.365000
C          18.003000     -3.144000      4.210000
C          20.127000      0.436000      9.107000
C          19.420000     -0.395000      9.922000
C          17.883000     -1.744000      4.219000
C          20.181000     -3.810000     10.249000
C          17.569000     -4.006000      9.422000
C          21.334000     -1.824000     10.181000
C          19.708000     -6.049000      7.530000
C          19.996000     -2.310000      3.705000
C          16.696000     -3.534000      8.460000
C          17.051000     -1.146000      5.170000
C          22.230000     -3.892000      8.967000
C          19.670000     -0.119000      4.656000
C          22.919000     -3.705000      6.895000
C          21.037000      0.528000      6.468000
C          19.300000     -3.479000      3.862000
C          19.167000     -1.212000      3.995000
C          20.121000     -5.916000      6.165000
C          20.506000     -5.511000      8.582000
C          21.464000      0.103000      8.787000
C          21.296000     -2.245000      4.161000
C          17.139000     -0.201000      7.206000
C          20.009000     -1.566000     10.497000
C          19.259000      0.838000      8.059000
C          21.761000     -5.030000      8.280000
C          22.888000     -1.676000      8.300000
O          19.161000      8.508000     -1.816000
C          19.432000      9.918000     -1.483000
H          19.510000     10.076000     -0.401000
H          18.601000     10.548000     -1.824000
H          20.376000     10.258000     -1.926000
O          21.251000      7.794000     -1.049000
C          20.184000      7.607000     -1.531000
C          19.756000      6.268000     -2.032000
H          20.596000      6.031000     -2.696000
H          18.960000      6.356000     -2.781000
C          19.321000      5.169000     -0.988000
H          20.153000      5.165000     -0.272000
H          18.418000      5.489000     -0.453000
C          19.223000      3.838000     -1.743000
H          18.458000      3.923000     -2.525000
H          20.156000      3.692000     -2.301000
C          18.833000      2.704000     -0.723000
C          19.774000      2.726000      0.493000
C          21.131000      2.345000      0.429000
H          21.652000      2.165000     -0.507000
C          21.858000      2.147000      1.605000
H          22.864000      1.742000      1.566000
C          21.343000      2.412000      2.891000
H          21.907000      2.287000      3.811000
C          20.010000      2.883000      2.906000
H          19.660000      3.011000      3.926000
C          19.178000      3.004000      1.765000
H          18.117000      3.218000      1.854000
C          18.590000     -2.686000     -0.417000
C          16.860000     -2.097000      1.145000
C          13.525000     -3.543000     -1.626000
C          18.016000     -0.642000     -4.926000
C          12.822000     -0.276000     -2.814000
C          18.091000     -1.775000      0.549000
C          15.358000     -0.342000     -5.528000
C          15.589000     -4.612000     -1.087000
C          15.252000      1.374000     -0.051000
C          17.430000      0.598000     -4.683000
C          17.362000      2.081000     -0.772000
C          15.079000      1.949000     -1.382000
C          15.563000      1.667000     -4.033000
C          14.026000     -0.556000     -4.950000
C          17.053000      0.205000      0.881000
C          13.243000     -2.544000     -3.661000
C          18.604000      1.321000     -1.272000
C          18.736000      1.011000     -2.763000
C          12.812000     -1.666000     -2.663000
C          16.928000     -3.860000     -4.224000
C          14.884000     -4.314000     -3.435000
C          15.805000     -4.697000     -2.483000
C          16.692000     -4.124000     -0.229000
C          19.302000     -0.217000     -2.963000
C          16.570000      1.346000      0.289000
C          16.150000     -3.270000      0.747000
C          16.101000      0.727000     -4.986000
C          16.200000     -0.877000      1.248000
C          14.015000      1.525000     -2.175000
C          18.853000     -2.452000     -3.860000
C          14.461000     -3.959000     -0.631000
C          16.322000      2.354000     -1.820000
C          18.166000     -4.028000     -2.152000
C          14.241000      1.332000     -3.561000
C          14.395000      0.378000      0.392000
C          15.100000     -2.629000     -5.258000
C          15.960000     -1.590000     -5.730000
C          13.312000     -0.043000     -0.421000
C          18.944000     -1.097000     -4.012000
C          17.765000      1.453000     -3.616000
C          17.787000     -2.847000     -4.668000
C          18.992000      0.050000     -0.645000
C          14.101000     -1.927000      0.609000
C          16.607000      2.124000     -3.168000
C          13.138000      0.513000     -1.711000
C          19.073000     -3.065000     -2.568000
C          12.922000     -2.271000     -1.466000
C          17.962000     -3.873000     -0.800000
C          13.686000     -3.726000     -3.027000
C          14.822000     -0.772000      1.005000
C          13.188000     -1.470000     -0.276000
C          18.230000     -0.418000      0.444000
C          19.443000     -0.824000     -1.684000
C          15.550000     -3.777000     -4.516000
C          14.761000     -3.163000      0.455000
C          13.502000      0.252000     -3.999000
C          17.289000     -1.730000     -5.363000
C          13.895000     -1.993000     -4.787000
C          19.303000     -2.183000     -1.522000
C          17.092000     -4.428000     -2.970000
$end

--------------------------------------------------------------

             Standard Nuclear Orientation (Angstroms)
    I     Atom           X                Y                Z
 ----------------------------------------------------------------
    1      O       6.5805341441    -5.4818523220     4.8341791636
    2      C       5.9386270984    -6.5204711344     5.6648218708
    3      H       6.5828518336    -7.4020028387     5.7769037370
    4      H       4.9065633807    -6.6545506801     5.3184822136
    5      H       5.7662780298    -6.0667412101     6.6486460189
    6      O       7.1850727082    -7.0750304273     3.2174260441
    7      C       7.0468763825    -5.9055591332     3.6126774425
    8      C       7.6660730080    -4.7829591048     2.8217888819
    9      H       8.5923896171    -5.1528026790     2.3648290693
   10      H       7.9258049636    -3.9929533031     3.5369840612
   11      C       6.6504263009    -4.0929759482     1.8014075756
   12      H       6.2064637022    -4.8848659907     1.1863349201
   13      H       5.8220532024    -3.6692464552     2.3823527765
   14      C       7.3897354531    -3.1618094909     0.8228060193
   15      H       7.7467586578    -2.3470956080     1.4651662922
   16      H       8.1135524791    -3.8666641848     0.3945423467
   17      C       6.4581133907    -2.6918426729    -0.2285538253
   18      C       6.3645241922    -3.7096127038    -1.3097463272
   19      C       7.4341215136    -3.7287431797    -2.2708132317
   20      H       8.3421362785    -3.1442805614    -2.1533030857
   21      C       7.3446044380    -4.6238352219    -3.3441616976
   22      H       8.1334859080    -4.7678976246    -4.0763276968
   23      C       6.1631755775    -5.3671253421    -3.5850758834
   24      H       6.1603864694    -6.0100957491    -4.4601771784
   25      C       5.1442119469    -5.3686500277    -2.5962494099
   26      H       4.1827471029    -5.8534689658    -2.7398215213
   27      C       5.2744447856    -4.5926173013    -1.4486843289
   28      H       4.4993815604    -4.6671763636    -0.6920701979
   29      C       5.7003977670     1.6500517670    -3.4099984196
   30      C       3.4439003581     0.6543873549    -3.3764898786
   31      C       1.7550063001     3.9611678900    -0.6645952728
   32      C       7.5630873927     2.4763298854     1.2828358870
   33      C       1.9742908264     2.0064151019     2.2375060063
   34      C       4.8800779156     0.5048217177    -3.3984020572
   35      C       5.3483118647     3.0958208600     2.9744307833
   36      C       3.2678216134     4.0736937341    -2.4892699731
   37      C       2.9685534612    -1.3096980514     0.1693528766
   38      C       7.0155769071     1.4660956030     2.0662386972
   39      C       5.3414339200    -1.7836490852     0.1049343557
   40      C       3.5023692496    -0.9879497675     1.4228917655
   41      C       5.1551213743     0.6620382262     2.9413169480
   42      C       3.8979576754     3.2321952410     2.9810454501
   43      C       4.0184312752    -1.1178881957    -2.0177965364
   44      C       2.5966153316     4.2023165233     1.3189799274
   45      C       6.5428692261    -1.2262947294    -0.5518070905
   46      C       7.2743103848    -0.1703564916     0.1951428874
   47      C       1.7059328057     3.1021254790     1.3819823408
   48      C       5.9880637412     5.1297116514    -0.4858771199
   49      C       3.7850421280     5.3633232668    -0.4547743090
   50      C       4.0875231839     4.9752373613    -1.7617726030
   51      C       3.7597023539     3.1275683703    -3.3773640747
   52      C       7.6759179252     0.8569289192    -0.5698591180
   53      C       4.0391412345    -1.6807636288    -0.6434922235
   54      C       2.9631338024     1.9497095814    -3.3132297155
   55      C       5.9704886158     1.7826194919     2.9904075622
   56      C       2.9537846367    -0.3156855208    -2.4697626894
   57      C       2.9100364282    -0.0194108583     2.1711859656
   58      C       7.5113263725     3.2784567618    -0.8623014678
   59      C       2.1186903489     3.5800412370    -1.9446907329
   60      C       4.8809671793    -1.2708378429     1.4532740794
   61      C       5.9631418398     3.7827325591    -2.6656005481
   62      C       3.7210999771     0.8293001681     2.9415913870
   63      C       1.9211396006    -0.4355669504    -0.2961533243
   64      C       4.8840142460     4.9126240918     1.6854145933
   65      C       5.8919251280     4.1040822832     2.1155434086
   66      C       1.2792070523     0.5186274264     0.5112602591
   67      C       7.8241322378     2.1660519440    -0.0887453858
   68      C       6.8574378283     0.1737071506     1.5363555781
   69      C       7.0072619841     4.3116259036    -0.0023487848
   70      C       6.3810672225    -0.5522855585    -1.8658260209
   71      C       1.3458275623     1.2572853732    -1.6098873418
   72      C       5.6855535199    -0.2968323903     2.0981711245
   73      C       1.7434855223     0.7191906773     1.8145057788
   74      C       6.9855263665     2.9975885202    -2.1991804393
   75      C       1.1507789502     2.9365466198     0.1085991156
   76      C       5.1581466314     2.9595715328    -3.4083586778
   77      C       2.6269124555     4.7771281425     0.0458971780
   78      C       1.9277212433     0.0175314163    -1.6038981587
   79      C       1.0004055098     1.6346931980    -0.3002339757
   80      C       5.1676700696    -0.5953495198    -2.6256258922
   81      C       7.1649799143     0.6379306311    -1.8231843347
   82      C       4.9193872017     5.3999368634     0.3579610097
   83      C       1.8808977017     2.2378851143    -2.4187662535
   84      C       3.1226341034     2.0547814260     2.9807868528
   85      C       7.0038686875     3.7756106795     1.2762133627
   86      C       3.6686053772     4.3690040932     2.1759149285
   87      C       6.8368565961     1.6761985032    -2.6669407651
   88      C       5.4740058365     4.8333066196    -1.8331835170
   89      O      -8.5365340649     7.0696616712     2.4843769926
   90      C      -8.8483116222     8.3658609557     3.1129405691
   91      H      -7.9553902470     8.8427469868     3.5337055048
   92      H      -9.5385893817     8.2166309168     3.9525768059
   93      H      -9.2757085700     9.0684105603     2.3871713895
   94      O      -7.2752017687     8.0564012681     0.7809772138
   95      C      -7.7488290595     7.1224811881     1.3370819464
   96      C      -7.6370886566     5.7329381170     0.8043623804
   97      H      -8.0108122920     5.8847908064    -0.2154103418
   98      H      -8.4372542119     5.0901890821     1.1903283923
   99      C      -6.2716256623     4.9619449972     0.9718210929
  100      H      -5.5341866698     5.6788597651     0.5882680354
  101      H      -6.0572407496     4.7947450028     2.0348908324
  102      C      -6.3465066495     3.7081058136     0.0923495815
  103      H      -7.1705673349     3.0727120941     0.4404484296
  104      H      -6.6563571566     4.0145950861    -0.9142416906
  105      C      -4.9807381631     2.9322580629     0.1981451831
  106      C      -3.8002541105     3.8800613089    -0.0715720918
  107      C      -3.5147026788     4.4186122313    -1.3440222024
  108      H      -4.1940972549     4.3369508716    -2.1876402630
  109      C      -2.2964366292     5.0618228305    -1.5738416047
  110      H      -2.0217155565     5.3737467190    -2.5762456250
  111      C      -1.3459725095     5.3107209569    -0.5619554057
  112      H      -0.4070574973     5.8328922325    -0.7228801054
  113      C      -1.7125879132     4.8387069790     0.7193528907
  114      H      -0.9141553423     5.0119505811     1.4347381603
  115      C      -2.8781426308     4.0845203582     1.0047136120
  116      H      -3.0289794405     3.6132623712     1.9714618556
  117      C      -2.2966071764    -1.0772299735    -2.2358292482
  118      C      -1.4010479375    -1.2597946734    -0.0122490764
  119      C      -3.6065800526    -5.1758053679     0.8196585689
  120      C      -7.2742810766    -1.2383564246    -2.4236957160
  121      C      -6.2242528615    -3.5595868052     2.5844442849
  122      C      -1.9195072223    -0.4378575392    -1.0270792679
  123      C      -8.2730928165    -2.8306087663    -0.4275805918
  124      C      -2.3887020514    -4.5311057703    -1.1282925607
  125      C      -4.2311671358    -0.0541023954     2.5569244199
  126      C      -7.6952708498    -0.6207975471    -1.2483516626
  127      C      -4.9249081490     1.5553117107     1.0076343755
  128      C      -5.6880952553    -0.1246365926     2.4898395364
  129      C      -7.8393061338    -0.8000626244     0.9872842355
  130      C      -7.8320935786    -3.6408763957     0.7139491016
  131      C      -2.6539237529     0.4690062244     0.9084564393
  132      C      -5.8906576237    -5.2066216790     0.7915515547
  133      C      -4.8665834936     1.6192153349    -0.5294663243
  134      C      -6.0253165906     1.0420370365    -1.3423671927
  135      C      -5.4618715587    -4.5402625740     1.9425324641
  136      C      -5.3310899538    -4.0628939629    -2.9510172068
  137      C      -4.6838456063    -5.4266353121    -1.2993945842
  138      C      -3.5551616337    -4.8642179924    -1.8570622708
  139      C      -1.7152763734    -3.2457151504    -1.4201586436
  140      C      -5.5743164907     0.4333871470    -2.4801212179
  141      C      -3.7540440678     0.8358985130     1.6438198470
  142      C      -1.3088646805    -2.6716988416    -0.2031989840
  143      C      -8.1869180587    -1.4328854162    -0.2616970549
  144      C      -1.9457445399    -0.7429939229     1.1585761008
  145      C      -6.3283198267    -1.3203063293     2.8079706082
  146      C      -5.4083172206    -1.7400220436    -3.5982320053
  147      C      -2.4231127911    -4.6158761704     0.2495168892
  148      C      -6.1032665091     0.8112126762     1.5664019499
  149      C      -3.2719920844    -2.8235733391    -3.2307534316
  150      C      -7.4357287180    -1.7234756211     2.0203024866
  151      C      -3.4954195760    -1.1835791113     2.8819965296
  152      C      -7.0298314680    -4.5867376035    -1.2878978160
  153      C      -7.8102976545    -3.4323052232    -1.6042258279
  154      C      -4.1570240100    -2.3945459214     3.2090102260
  155      C      -6.1456060024    -0.7353630696    -3.0374507660
  156      C      -7.0996275333     0.5206758125    -0.6791534469
  157      C      -6.0751801616    -2.9200213469    -3.2693848342
  158      C      -3.6884688270     1.1086851418    -1.2439722755
  159      C      -2.2952566532    -2.9904119307     2.0208843874
  160      C      -7.1530028406     0.4282904577     0.7281578274
  161      C      -5.5692784074    -2.4677505713     3.1482599488
  162      C      -3.9627109047    -1.6796480452    -3.6014506574
  163      C      -4.1174483900    -4.5692975681     1.9936921420
  164      C      -2.1746105700    -2.4445220462    -2.4920932058
  165      C      -4.7398680350    -5.6160417267     0.0820534595
  166      C      -2.3796698515    -1.5854938728     2.1934000754
  167      C      -3.3973759220    -3.4743061119     2.6347431161
  168      C      -2.6102397463     0.6114431052    -0.4851828406
  169      C      -4.1527563493     0.4457161321    -2.4236786749
  170      C      -5.7982798253    -4.9356879481    -1.9455316110
  171      C      -1.7883106145    -3.5336902941     0.8230253248
  172      C      -7.4246377403    -3.0966987841     1.8842872864
  173      C      -7.2571829309    -2.6097562112    -2.5727335591
  174      C      -7.0528987631    -4.7270666615     0.1467232683
  175      C      -3.4109399701    -0.5891723503    -2.9446770324
  176      C      -3.9464100875    -4.0150583033    -2.9019313869
 ----------------------------------------------------------------

    9   -5804.2198478277      8.96E-06 Convergence criterion met
 Total energy in the final basis set = -5804.2198478277

                    Orbital Energies (a.u.)
 --------------------------------------------------------------

 Alpha MOs
 -- Occupied --
-19.198 -19.191 -19.142 -19.132 -10.315 -10.313 -10.251 -10.248
-10.245 -10.244 -10.240 -10.235 -10.233 -10.233 -10.232 -10.230
-10.228 -10.227 -10.226 -10.225 -10.224 -10.224 -10.224 -10.223
-10.223 -10.223 -10.222 -10.222 -10.222 -10.222 -10.221 -10.220
-10.220 -10.220 -10.220 -10.219 -10.219 -10.219 -10.219 -10.219
-10.219 -10.219 -10.219 -10.219 -10.219 -10.218 -10.218 -10.218
-10.218 -10.218 -10.218 -10.218 -10.218 -10.217 -10.217 -10.217
-10.217 -10.217 -10.217 -10.216 -10.216 -10.216 -10.216 -10.216
-10.216 -10.216 -10.216 -10.216 -10.216 -10.216 -10.216 -10.216
-10.216 -10.215 -10.215 -10.215 -10.215 -10.215 -10.215 -10.215
-10.215 -10.215 -10.215 -10.215 -10.215 -10.214 -10.214 -10.214
-10.214 -10.214 -10.214 -10.214 -10.214 -10.214 -10.213 -10.213
-10.213 -10.213 -10.213 -10.213 -10.212 -10.212 -10.212 -10.212
-10.212 -10.211 -10.211 -10.211 -10.210 -10.210 -10.210 -10.210
-10.210 -10.210 -10.210 -10.210 -10.209 -10.209 -10.209 -10.209
-10.209 -10.208 -10.208 -10.208 -10.207 -10.207 -10.207 -10.207
-10.206 -10.205 -10.204 -10.204 -10.203 -10.203 -10.202 -10.202
-10.201 -10.201 -10.201 -10.200 -10.200 -10.199 -10.199 -10.199
-10.198 -10.197 -10.197 -10.193  -1.090  -1.081  -1.021  -0.999
 -0.986  -0.984  -0.971  -0.966  -0.966  -0.965  -0.962  -0.960
 -0.942  -0.933  -0.930  -0.928  -0.926  -0.925  -0.925  -0.922
 -0.922  -0.922  -0.900  -0.895  -0.894  -0.891  -0.889  -0.889
 -0.881  -0.869  -0.853  -0.849  -0.843  -0.843  -0.840  -0.839
 -0.839  -0.836  -0.826  -0.822  -0.805  -0.803  -0.799  -0.798
 -0.797  -0.797  -0.796  -0.794  -0.793  -0.793  -0.784  -0.784
 -0.773  -0.771  -0.771  -0.769  -0.768  -0.765  -0.765  -0.761
 -0.753  -0.746  -0.742  -0.741  -0.737  -0.735  -0.719  -0.718
 -0.716  -0.715  -0.714  -0.713  -0.711  -0.711  -0.710  -0.709
 -0.708  -0.707  -0.707  -0.704  -0.702  -0.697  -0.677  -0.672
 -0.661  -0.660  -0.660  -0.657  -0.649  -0.647  -0.636  -0.633
 -0.630  -0.628  -0.626  -0.624  -0.623  -0.619  -0.619  -0.617
 -0.616  -0.615  -0.615  -0.613  -0.613  -0.612  -0.608  -0.607
 -0.606  -0.604  -0.603  -0.601  -0.566  -0.565  -0.564  -0.562
 -0.561  -0.560  -0.559  -0.559  -0.558  -0.556  -0.555  -0.554
 -0.539  -0.537  -0.534  -0.533  -0.532  -0.530  -0.529  -0.527
 -0.525  -0.522  -0.521  -0.519  -0.517  -0.514  -0.513  -0.512
 -0.508  -0.507  -0.499  -0.498  -0.494  -0.490  -0.487  -0.486
 -0.484  -0.484  -0.482  -0.481  -0.479  -0.479  -0.477  -0.473
 -0.473  -0.473  -0.471  -0.470  -0.470  -0.469  -0.468  -0.467
 -0.466  -0.465  -0.464  -0.463  -0.462  -0.461  -0.460  -0.459
 -0.457  -0.456  -0.455  -0.453  -0.451  -0.449  -0.446  -0.446
 -0.443  -0.442  -0.440  -0.439  -0.438  -0.437  -0.433  -0.433
 -0.432  -0.431  -0.429  -0.428  -0.427  -0.426  -0.426  -0.425
 -0.423  -0.423  -0.422  -0.421  -0.420  -0.420  -0.420  -0.418
 -0.418  -0.418  -0.418  -0.417  -0.416  -0.414  -0.414  -0.413
 -0.412  -0.411  -0.411  -0.408  -0.401  -0.400  -0.398  -0.397
 -0.395  -0.393  -0.393  -0.391  -0.389  -0.388  -0.387  -0.386
 -0.381  -0.379  -0.377  -0.373  -0.370  -0.369  -0.368  -0.366
 -0.365  -0.364  -0.363  -0.363  -0.362  -0.359  -0.358  -0.357
 -0.357  -0.356  -0.354  -0.354  -0.354  -0.352  -0.352  -0.351
 -0.349  -0.349  -0.348  -0.348  -0.346  -0.345  -0.344  -0.344
 -0.343  -0.341  -0.340  -0.339  -0.339  -0.338  -0.335  -0.335
 -0.333  -0.332  -0.332  -0.331  -0.330  -0.328  -0.326  -0.323
 -0.308  -0.308  -0.303  -0.298  -0.291  -0.288  -0.275  -0.273
 -0.271  -0.270  -0.269  -0.268  -0.267  -0.266  -0.263  -0.263
 -0.262  -0.262  -0.261  -0.258  -0.257  -0.256  -0.256  -0.254
 -0.248  -0.247  -0.245  -0.244  -0.227  -0.223  -0.212  -0.212
 -0.210  -0.209  -0.207  -0.206  -0.201  -0.196

          Ground-State Mulliken Net Atomic Charges

     Atom                 Charge (a.u.)
  ----------------------------------------
      1 O                    -0.470187
      2 C                    -0.092404
      3 H                     0.146693
      4 H                     0.130138
      5 H                     0.123454
      6 O                    -0.483394
      7 C                     0.595563
      8 C                    -0.245510
      9 H                     0.128985
     10 H                     0.121088
     11 C                    -0.208263
     12 H                     0.114945
     13 H                     0.116162
     14 C                    -0.178123
     15 H                     0.109280
     16 H                     0.121604
     17 C                     0.043113
     18 C                     0.058158
     19 C                    -0.095915
     20 H                     0.096866
     21 C                    -0.091034
     22 H                     0.090439
     23 C                    -0.083400
     24 H                     0.093439
     25 C                    -0.095181
     26 H                     0.095344
     27 C                    -0.094460
     28 H                     0.097275
     29 C                     0.029461
     30 C                    -0.025879
     31 C                    -0.027696
     32 C                    -0.028272
     33 C                     0.005780
     34 C                    -0.012554
     35 C                    -0.020895
     36 C                     0.045098
     37 C                    -0.020605
     38 C                    -0.014044
     39 C                    -0.068762
     40 C                     0.006474
     41 C                    -0.000872
     42 C                    -0.012021
     43 C                     0.004351
     44 C                     0.011710
     45 C                    -0.096517
     46 C                     0.018173
     47 C                     0.007963
     48 C                    -0.020787
     49 C                    -0.018528
     50 C                     0.008366
     51 C                    -0.033346
     52 C                     0.049170
     53 C                     0.025210
     54 C                     0.017560
     55 C                    -0.017387
     56 C                     0.000788
     57 C                     0.019374
     58 C                    -0.000053
     59 C                    -0.014951
     60 C                     0.009477
     61 C                     0.026508
     62 C                    -0.008263
     63 C                     0.015939
     64 C                     0.009082
     65 C                     0.016907
     66 C                     0.000581
     67 C                    -0.005189
     68 C                     0.005505
     69 C                    -0.002561
     70 C                     0.028013
     71 C                    -0.016920
     72 C                     0.008112
     73 C                    -0.053551
     74 C                    -0.028784
     75 C                     0.014096
     76 C                    -0.014838
     77 C                     0.015844
     78 C                     0.022495
     79 C                     0.020568
     80 C                    -0.001255
     81 C                    -0.007457
     82 C                     0.019560
     83 C                    -0.006457
     84 C                     0.020530
     85 C                     0.011443
     86 C                    -0.033385
     87 C                    -0.011331
     88 C                    -0.012407
     89 O                    -0.478198
     90 C                    -0.095914
     91 H                     0.126871
     92 H                     0.124465
     93 H                     0.131155
     94 O                    -0.443433
     95 C                     0.586809
     96 C                    -0.257799
     97 H                     0.123292
     98 H                     0.116851
     99 C                    -0.185273
    100 H                     0.136739
    101 H                     0.114635
    102 C                    -0.180399
    103 H                     0.111852
    104 H                     0.114888
    105 C                     0.006593
    106 C                     0.052505
    107 C                    -0.091473
    108 H                     0.092266
    109 C                    -0.095137
    110 H                     0.087862
    111 C                    -0.071734
    112 H                     0.100482
    113 C                    -0.104584
    114 H                     0.084577
    115 C                    -0.095572
    116 H                     0.099563
    117 C                     0.004416
    118 C                    -0.014032
    119 C                    -0.002048
    120 C                    -0.012105
    121 C                    -0.015297
    122 C                    -0.000466
    123 C                     0.002256
    124 C                    -0.037988
    125 C                     0.012908
    126 C                     0.009824
    127 C                    -0.091957
    128 C                     0.024625
    129 C                    -0.032123
    130 C                    -0.006967
    131 C                     0.023237
    132 C                     0.012180
    133 C                    -0.094577
    134 C                     0.042983
    135 C                     0.041432
    136 C                    -0.026801
    137 C                     0.011969
    138 C                     0.023076
    139 C                    -0.020795
    140 C                     0.009219
    141 C                     0.014168
    142 C                    -0.001962
    143 C                     0.002626
    144 C                    -0.009900
    145 C                    -0.012354
    146 C                    -0.004740
    147 C                     0.013872
    148 C                     0.036538
    149 C                     0.020412
    150 C                    -0.005132
    151 C                     0.002032
    152 C                    -0.002391
    153 C                    -0.014034
    154 C                    -0.022157
    155 C                     0.002494
    156 C                     0.001540
    157 C                     0.006048
    158 C                     0.039841
    159 C                     0.017182
    160 C                    -0.009157
    161 C                     0.005896
    162 C                    -0.034835
    163 C                    -0.016190
    164 C                    -0.007658
    165 C                    -0.031758
    166 C                    -0.010175
    167 C                    -0.021521
    168 C                     0.015204
    169 C                    -0.008417
    170 C                     0.006253
    171 C                     0.014461
    172 C                     0.012545
    173 C                     0.016542
    174 C                    -0.022498
    175 C                     0.008702
    176 C                     0.020422
  ----------------------------------------
  Sum of atomic charges =     0.000000

                    Cartesian Multipole Moments
 -----------------------------------------------------------------
    Charge (ESU x 10^10)
                 0.0000
    Dipole Moment (Debye)
         X      -0.7336      Y       0.8044      Z       0.6082
       Tot       1.2471
    Quadrupole Moments (Debye-Ang)
        XX    -794.2257     XY     -10.2678     YY    -823.1674
        XZ     -11.3475     YZ       9.1704     ZZ    -788.3961

 Total job time:  856.26s(wall), 8150.00s(cpu)
        *  Thank you very much for using Q-Chem.  Have a nice day.  *
