 Q-Chem 4.4, Q-Chem, Inc., Pleasanton, CA (2016)
 Q-Chem 4.4.2 for Intel X86 Linux

User input:
--------------------------------------------------------------
$comment
SP
$end

$rem
MEM_STATIC 5000
MEM_TOTAL 20000
JOBTYPE SP
EXCHANGE B3LYP
BASIS 6-31g(d,p)
$end

$molecule
0 1
O          -8.301000    -29.745000      1.943000
C          -7.651000    -29.304000      0.773000
H          -6.923000    -30.074000      0.489000
H          -7.136000    -28.355000      0.964000
H          -8.337000    -29.035000     -0.040000
O          -9.650000    -27.870000      2.237000
C          -9.199000    -28.955000      2.598000
C          -9.654000    -29.603000      3.986000
H          -8.760000    -29.807000      4.589000
H         -10.048000    -30.605000      3.774000
C         -10.720000    -28.742000      4.761000
H         -10.857000    -29.053000      5.803000
H         -10.427000    -27.688000      4.843000
C         -12.087000    -28.785000      4.083000
H         -11.856000    -28.523000      3.044000
H         -12.390000    -29.839000      4.088000
C         -13.331000    -28.096000      4.764000
C         -13.798000    -28.952000      6.026000
C         -14.736000    -29.962000      5.769000
H         -14.917000    -30.154000      4.715000
C         -15.095000    -30.771000      6.838000
H         -15.786000    -31.597000      6.696000
C         -14.698000    -30.504000      8.146000
H         -15.126000    -30.993000      9.016000
C         -13.858000    -29.406000      8.400000
H         -13.449000    -29.314000      9.402000
C         -13.335000    -28.674000      7.323000
H         -12.624000    -27.868000      7.474000
C         -18.352000    -26.034000      3.639000
C         -17.662000    -24.706000      5.532000
C         -16.944000    -20.854000      3.306000
C         -14.769000    -25.825000      0.031000
C         -13.445000    -21.203000      3.135000
C         -17.668000    -25.900000      4.864000
C         -13.523000    -23.291000      0.208000
C         -18.631000    -22.503000      3.035000
C         -13.690000    -24.355000      5.649000
C         -13.511000    -25.686000      0.631000
C         -13.544000    -26.546000      4.786000
C         -12.699000    -24.249000      4.682000
C         -12.351000    -24.301000      2.027000
C         -13.441000    -22.064000      0.838000
C         -15.655000    -25.695000      5.888000
C         -15.375000    -20.775000      1.742000
C         -14.388000    -27.449000      3.899000
C         -14.212000    -27.341000      2.431000
C         -14.729000    -20.682000      2.965000
C         -17.470000    -23.685000     -0.009000
C         -17.491000    -21.671000      1.093000
C         -18.466000    -22.526000      1.654000
C         -18.852000    -23.642000      3.757000
C         -15.497000    -27.295000      1.828000
C         -14.260000    -25.622000      5.671000
C         -18.335000    -23.539000      5.020000
C         -12.957000    -24.435000      0.760000
C         -16.412000    -24.564000      6.141000
C         -12.500000    -23.081000      4.025000
C         -16.990000    -25.995000      0.410000
C         -17.948000    -21.620000      3.866000
C         -12.681000    -25.539000      4.053000
C         -18.719000    -24.933000      1.705000
C         -12.207000    -23.028000      2.707000
C         -14.422000    -23.240000      6.016000
C         -15.535000    -22.259000     -0.157000
C         -14.785000    -23.422000     -0.454000
C         -14.197000    -21.963000      5.403000
C         -15.716000    -26.619000      0.629000
C         -13.309000    -26.409000      1.842000
C         -16.757000    -24.873000     -0.296000
C         -15.854000    -27.276000      4.001000
C         -16.415000    -22.217000      5.694000
C         -12.553000    -25.541000      2.661000
C         -13.283000    -21.945000      4.319000
C         -18.028000    -26.034000      1.349000
C         -15.724000    -20.753000      3.961000
C         -18.924000    -24.888000      3.123000
C         -16.686000    -20.880000      1.903000
C         -15.783000    -23.323000      6.226000
C         -15.468000    -21.468000      5.146000
C         -16.408000    -26.482000      4.996000
C         -16.519000    -27.310000      2.770000
C         -16.919000    -22.374000      0.024000
C         -17.711000    -22.342000      5.100000
C         -12.818000    -21.913000      2.127000
C         -15.389000    -24.683000     -0.527000
C         -14.715000    -21.441000      0.679000
C         -17.790000    -26.737000      2.549000
C         -18.500000    -23.738000      0.954000
O          -8.559000    -29.159000     -5.065000
C          -7.681000    -30.132000     -5.496000
H          -8.009000    -31.170000     -5.360000
H          -6.750000    -29.991000     -4.934000
H          -7.584000    -30.032000     -6.584000
O          -8.290000    -29.479000     -2.857000
C          -8.846000    -28.934000     -3.783000
C         -10.030000    -27.961000     -3.598000
H         -10.470000    -28.082000     -2.601000
H         -10.782000    -28.184000     -4.365000
C          -9.637000    -26.481000     -3.635000
H          -8.722000    -26.330000     -3.050000
H          -9.348000    -26.347000     -4.685000
C         -10.743000    -25.510000     -3.118000
H         -11.598000    -25.820000     -3.731000
H         -11.019000    -25.754000     -2.085000
C         -10.383000    -24.079000     -3.265000
C          -9.259000    -23.757000     -2.290000
C          -9.524000    -23.532000     -0.917000
H         -10.520000    -23.698000     -0.519000
C          -8.529000    -23.051000     -0.025000
H          -8.778000    -22.823000      1.007000
C          -7.284000    -22.788000     -0.484000
H          -6.528000    -22.372000      0.176000
C          -7.034000    -22.816000     -1.875000
H          -6.073000    -22.567000     -2.315000
C          -7.950000    -23.344000     -2.747000
H          -7.695000    -23.520000     -3.788000
C         -12.092000    -18.923000     -2.889000
C         -10.128000    -18.768000     -4.155000
C         -12.015000    -17.663000     -8.178000
C         -15.235000    -22.174000     -5.076000
C         -11.799000    -20.975000     -9.357000
C         -10.811000    -19.351000     -3.123000
C         -14.856000    -22.086000     -7.822000
C         -12.520000    -16.890000     -5.870000
C          -9.410000    -22.062000     -6.271000
C         -14.479000    -23.205000     -5.679000
C         -10.455000    -23.246000     -4.509000
C         -10.258000    -22.971000     -6.930000
C         -12.998000    -23.618000     -7.343000
C         -14.091000    -21.481000     -8.819000
C          -9.566000    -20.955000     -4.119000
C         -13.384000    -19.145000     -9.098000
C         -11.465000    -23.042000     -3.388000
C         -12.875000    -23.208000     -3.798000
C         -12.126000    -19.618000     -9.347000
C         -15.459000    -18.727000     -5.678000
C         -14.289000    -17.777000     -7.318000
C         -13.868000    -17.186000     -6.086000
C         -11.976000    -17.257000     -4.642000
C         -13.645000    -22.161000     -3.242000
C          -9.550000    -22.166000     -4.860000
C         -10.692000    -17.727000     -4.932000
C         -14.297000    -23.125000     -7.065000
C          -9.397000    -19.705000     -4.787000
C         -10.923000    -22.672000     -8.119000
C         -15.188000    -20.297000     -3.758000
C         -11.611000    -17.202000     -6.899000
C         -10.957000    -23.675000     -5.917000
C         -13.987000    -18.155000     -3.827000
C         -12.258000    -22.935000     -8.321000
C          -9.190000    -20.843000     -6.869000
C         -15.377000    -19.870000     -7.793000
C         -15.667000    -21.086000     -7.174000
C          -9.771000    -20.573000     -8.100000
C         -14.835000    -21.681000     -3.819000
C         -13.290000    -23.603000     -5.107000
C         -15.751000    -19.958000     -5.017000
C         -11.478000    -21.689000     -2.741000
C          -9.791000    -18.642000     -6.868000
C         -12.326000    -23.876000     -6.132000
C         -10.621000    -21.488000     -8.737000
C         -14.262000    -19.376000     -3.224000
C         -11.199000    -18.710000     -8.761000
C         -12.672000    -17.891000     -3.632000
C         -13.388000    -17.914000     -8.390000
C          -9.143000    -19.637000     -6.125000
C         -10.106000    -19.230000     -8.125000
C         -10.457000    -20.729000     -3.058000
C         -12.798000    -21.226000     -2.571000
C         -15.242000    -18.691000     -7.065000
C         -10.486000    -17.637000     -6.303000
C         -12.814000    -21.901000     -9.059000
C         -15.814000    -21.136000     -5.781000
C         -14.383000    -20.118000     -8.796000
C         -13.097000    -19.836000     -2.576000
C         -14.621000    -17.802000     -5.068000
$end

--------------------------------------------------------------

             Standard Nuclear Orientation (Angstroms)
    I     Atom           X                Y                Z
 ----------------------------------------------------------------
    1      O       4.4156237542    -7.2649340422    -0.6870445029
    2      C       3.0660290566    -7.6512750080    -0.8103968864
    3      H       3.0194983485    -8.7386600068    -0.6726697738
    4      H       2.6877615081    -7.3838658703    -1.8042344058
    5      H       2.3856633849    -7.1009030022    -0.1484911469
    6      O       4.0960975568    -4.9962665209    -1.1028722161
    7      C       4.8093034465    -5.9777488023    -0.9054465583
    8      C       6.4007402425    -5.8349820281    -0.8849630847
    9      H       6.8260595959    -6.5316051287    -1.6186392416
   10      H       6.7595779881    -6.2300171278     0.0738730548
   11      C       6.9010337384    -4.3573982886    -1.0965161770
   12      H       7.9722215149    -4.2876143060    -1.3177421775
   13      H       6.4274545547    -3.8749500463    -1.9604927104
   14      C       6.6239216971    -3.4832920636     0.1238809813
   15      H       5.5579023145    -3.6541544381     0.3134455476
   16      H       7.1747468839    -3.9440753545     0.9527479022
   17      C       7.1593717765    -2.0011560855     0.1747155635
   18      C       8.7397486453    -2.0055503908     0.3888618748
   19      C       9.1782865725    -2.0099703829     1.7206493766
   20      H       8.3941692163    -2.1734924898     2.4547893444
   21      C      10.5476600154    -2.0954321973     1.9295408611
   22      H      10.9491099136    -2.1442923540     2.9376934608
   23      C      11.4711774119    -2.0015628979     0.8912412064
   24      H      12.5367742474    -1.8601595561     1.0452330210
   25      C      11.0104621813    -1.8677100077    -0.4299494990
   26      H      11.7472941130    -1.9467956443    -1.2240358713
   27      C       9.6347905807    -1.9552391140    -0.6929101479
   28      H       9.2460446553    -1.9327482782    -1.7059890036
   29      C       6.3043562526     2.8783474238     2.6621447499
   30      C       7.1854845984     3.5416289320     0.5157982078
   31      C       3.3480400111     5.1525171453    -1.2126583880
   32      C       2.3360034946    -0.2322967956     1.9727225798
   33      C       2.6210949002     2.3039471143    -3.1494708683
   34      C       7.1564618139     2.6593175843     1.5610638983
   35      C       1.0656529916     0.5228933776    -0.4399312291
   36      C       4.2252134986     5.2849360835     0.9899861357
   37      C       6.2869022715     0.8453843738    -2.2835747726
   38      C       2.5248286972    -0.9758963971     0.8008481516
   39      C       6.5137869754    -0.8305998406    -0.6385318417
   40      C       5.1939553362     0.0214704253    -2.5181782729
   41      C       2.8513796643    -0.7052796950    -1.4425359142
   42      C       1.0306994178     1.3641340598    -1.5354883304
   43      C       7.5217763112     1.4685673785    -0.3340427650
   44      C       1.6297981195     3.7848233361    -1.5145796461
   45      C       6.3394145893    -0.9382436964     0.8689564903
   46      C       4.9850237473    -1.2388824399     1.3913603503
   47      C       2.5069719252     3.5669383629    -2.5656677743
   48      C       1.8922791308     3.1562317408     2.4172268503
   49      C       1.9264235758     4.6634946417     0.6857437563
   50      C       3.0082502088     4.9214196639     1.5572349031
   51      C       5.4168379120     4.8255067386     1.4761979561
   52      C       4.7146195578    -0.3553238326     2.4698573423
   53      C       7.0063118473     0.4466106441    -1.1637076489
   54      C       6.3512246945     4.7162959398     0.4821852086
   55      C       1.9465279178    -0.5509418850    -0.3711330220
   56      C       7.3823986126     2.8073862183    -0.6570860612
   57      C       4.0498362450     0.5267340882    -3.0389221024
   58      C       3.2102403760     1.3652566052     3.3102258534
   59      C       4.3943850267     5.4897131227    -0.3760981803
   60      C       5.2374918502    -0.9347376197    -1.4486757032
   61      C       4.2076289419     3.5502822806     3.1515159106
   62      C       2.8254529427     0.1281470552    -2.6292931164
   63      C       6.2480201268     2.1739343540    -2.6672167004
   64      C       0.7029599588     2.6261802155     0.3913516598
   65      C       0.8204666579     1.2645083234     0.7592101027
   66      C       5.0865092368     2.7380975113    -3.2915046022
   67      C       3.4159445114     0.0506495449     2.7717956482
   68      C       3.8589737419    -1.3979019457     0.5324784130
   69      C       2.0376815315     1.8073458558     2.8190315428
   70      C       6.6579442897     0.2776467264     1.6497498751
   71      C       5.9225692638     4.2643245165    -1.8630943811
   72      C       4.0092302153    -1.2589614941    -0.8653196923
   73      C       3.9490690709     1.8947954721    -3.3679738103
   74      C       4.2582614863     2.2630366444     3.5475626468
   75      C       3.6097857284     4.4213538211    -2.3635343035
   76      C       5.4549229064     3.9638296433     2.5787940366
   77      C       2.0938078515     4.7145147180    -0.6923656211
   78      C       6.7548359618     3.1630343318    -1.8498251520
   79      C       4.9064091272     3.9602737480    -2.6587612127
   80      C       7.2707619429     1.3681765128     1.0476067784
   81      C       5.7508651413     0.5467135150     2.6810366838
   82      C       1.2042383274     3.6067432966     1.2566019363
   83      C       5.7405427818     5.0461858033    -0.6783428088
   84      C       1.9431774912     1.2118680226    -2.6385068342
   85      C       1.4622680363     0.8792765387     1.9424063936
   86      C       0.8772695310     2.6879199377    -1.0250608436
   87      C       5.5661473796     1.8255673199     3.2493880664
   88      C       2.9657461595     4.0429000689     2.6464992085
   89      O      -1.8503098840    -7.8403392621     2.4639884191
   90      C      -1.9625418328    -9.1951399725     2.6991331080
   91      H      -1.3006283224    -9.6055158945     3.4717818688
   92      H      -1.7383824413    -9.7013010003     1.7525394353
   93      H      -2.9684135751    -9.3801789290     3.0955364663
   94      O       0.1462117928    -7.8863023396     1.4335450245
   95      C      -0.7855490318    -7.2711132099     1.8993787937
   96      C      -0.8211331967    -5.7298172820     1.9765191194
   97      H       0.1882100894    -5.3191375714     1.8547886547
   98      H      -1.2226007160    -5.4432944471     2.9564428389
   99      C      -1.6136210936    -5.0636466435     0.8476269129
  100      H      -1.3707971960    -5.5476706571    -0.1057923595
  101      H      -2.6427935820    -5.3626296594     1.0829780233
  102      C      -1.3780465999    -3.5270721245     0.7179758216
  103      H      -1.5849359074    -3.1956178721     1.7427825804
  104      H      -0.3159444486    -3.3121217678     0.5490487242
  105      C      -2.2361296376    -2.8863643433    -0.3077712425
  106      C      -1.7789242889    -3.3500739676    -1.6838605032
  107      C      -0.6402218392    -2.7822450330    -2.3058782136
  108      H      -0.0101442670    -2.0869061627    -1.7604590091
  109      C      -0.3002377905    -3.0604294726    -3.6564611485
  110      H       0.5392216613    -2.5583724216    -4.1279010134
  111      C      -1.0799931403    -3.8871638958    -4.3901959699
  112      H      -0.8601297381    -4.0685341649    -5.4385074264
  113      C      -2.3212567213    -4.3185730501    -3.8693160758
  114      H      -3.0182098104    -4.9408171390    -4.4226610725
  115      C      -2.6391384190    -4.1262623112    -2.5501527781
  116      H      -3.5114426403    -4.6003877391    -2.1097297724
  117      C      -3.9108082223     1.7985589755    -2.5198603310
  118      C      -5.4899163653     0.2364027693    -3.2615897020
  119      C      -9.0715065193     1.6952755855    -0.8100136630
  120      C      -3.6474022775     1.6532835144     2.4941132777
  121      C      -8.6191255224    -0.8141558347     1.6198312664
  122      C      -4.1875234628     0.5321486346    -2.9654324622
  123      C      -6.1392043044     0.9797915698     3.5086241250
  124      C      -7.3255079067     2.9509263116    -2.0567085329
  125      C      -5.9610051913    -2.7868861672    -0.7157665886
  126      C      -3.8558549297     0.3229672498     2.9241273798
  127      C      -3.6765882778    -2.4945047618    -0.1731087965
  128      C      -5.9348834426    -2.8581180889     0.6891923672
  129      C      -5.4166386878    -1.3161892985     3.0238563644
  130      C      -7.4387618106     0.6433264307     3.1302057081
  131      C      -4.5763443982    -1.5980196963    -2.3127011528
  132      C      -8.8984310738     1.5943974166     1.3983236041
  133      C      -2.5885472380    -1.4294620755    -0.1875230946
  134      C      -2.5688222142    -0.5596546165     1.0069650416
  135      C      -9.1626420188     0.3132805308     1.0018061375
  136      C      -5.6979803050     3.9647497757     0.8368135233
  137      C      -7.7963162033     3.4473706542     0.2980136508
  138      C      -7.0918256946     3.7219316958    -0.9155164714
  139      C      -6.2118894143     2.5099898593    -2.7666647982
  140      C      -2.4053267526     0.7837543079     0.5985942592
  141      C      -4.6652748321    -2.5196637510    -1.2363547335
  142      C      -6.5183731944     1.2048386001    -3.1620176572
  143      C      -5.1278791381     0.0130870111     3.4205633282
  144      C      -5.7611654481    -1.0189393657    -2.8587323335
  145      C      -6.9581347467    -2.3653803056     1.4988300921
  146      C      -3.3783640357     3.0563444544     0.6992594054
  147      C      -8.2633232718     1.9055037572    -1.9564088628
  148      C      -4.5901272202    -2.6323998927     1.0778670361
  149      C      -4.6722041924     3.5493845030    -1.3300791960
  150      C      -6.7302148357    -1.5802327783     2.6050822670
  151      C      -7.0819541465    -2.2543189457    -1.3089028244
  152      C      -7.0185774082     2.8133547385     2.4850582744
  153      C      -5.8660811042     2.3380628189     3.1109710961
  154      C      -8.1459430418    -1.8495998217    -0.5152076301
  155      C      -2.8720227864     1.8837047688     1.3413814398
  156      C      -3.4308044039    -0.7236774457     2.1347124496
  157      C      -4.5019232196     3.4880557602     1.4530571958
  158      C      -2.6464355780    -0.4329965765    -1.3069392145
  159      C      -7.9617443420    -0.3758148763    -2.2590579029
  160      C      -4.3946358522    -1.7838191119     2.1744438841
  161      C      -8.0976527644    -1.9196512601     0.8841689615
  162      C      -3.5344048714     3.0570986589    -0.7030685479
  163      C      -9.2680352150     0.3133494831    -0.4180816290
  164      C      -4.9024028733     2.7785645522    -2.4208546866
  165      C      -8.8496900327     2.5147614649     0.3179554587
  166      C      -7.0014504043    -1.3821321205    -2.4237975681
  167      C      -8.7115870538    -0.7310824799    -1.1029701738
  168      C      -3.5753255945    -0.6166834295    -2.3876577150
  169      C      -2.4327765050     0.8746199208    -0.8271914720
  170      C      -6.9581178901     3.6001198701     1.3380642576
  171      C      -7.7870903033     0.8861379909    -2.6940819572
  172      C      -7.7234761532    -0.6158940494     2.6851994995
  173      C      -4.6091377840     2.6426796154     2.5707303193
  174      C      -7.9811906175     1.7508578256     2.4800463439
  175      C      -3.0102681292     2.0003298132    -1.4758875968
  176      C      -5.7716313140     4.0457820219    -0.5480974139
 ----------------------------------------------------------------

    9   -5804.2399762638      9.46E-06 Convergence criterion met
 Total energy in the final basis set = -5804.2399762638

                    Orbital Energies (a.u.)
 --------------------------------------------------------------

 Alpha MOs
 -- Occupied --
-19.200 -19.199 -19.144 -19.140 -10.328 -10.323 -10.252 -10.250
-10.240 -10.240 -10.238 -10.238 -10.237 -10.236 -10.227 -10.226
-10.226 -10.224 -10.223 -10.223 -10.222 -10.220 -10.220 -10.220
-10.219 -10.218 -10.217 -10.217 -10.217 -10.217 -10.217 -10.216
-10.216 -10.216 -10.216 -10.215 -10.215 -10.215 -10.215 -10.214
-10.214 -10.214 -10.214 -10.214 -10.214 -10.214 -10.214 -10.213
-10.213 -10.213 -10.213 -10.213 -10.213 -10.212 -10.212 -10.212
-10.212 -10.212 -10.212 -10.212 -10.212 -10.211 -10.211 -10.211
-10.211 -10.211 -10.210 -10.210 -10.210 -10.210 -10.210 -10.210
-10.210 -10.209 -10.209 -10.209 -10.208 -10.208 -10.208 -10.208
-10.208 -10.208 -10.208 -10.208 -10.208 -10.208 -10.208 -10.208
-10.207 -10.207 -10.207 -10.207 -10.207 -10.207 -10.206 -10.206
-10.206 -10.206 -10.206 -10.206 -10.206 -10.206 -10.206 -10.205
-10.205 -10.205 -10.205 -10.205 -10.205 -10.205 -10.205 -10.204
-10.204 -10.204 -10.204 -10.204 -10.204 -10.204 -10.203 -10.203
-10.203 -10.203 -10.203 -10.202 -10.202 -10.202 -10.202 -10.202
-10.201 -10.201 -10.201 -10.201 -10.201 -10.201 -10.200 -10.200
-10.200 -10.199 -10.199 -10.199 -10.197 -10.197 -10.196 -10.195
-10.194 -10.192 -10.191 -10.190  -1.120  -1.097  -1.025  -1.017
 -0.984  -0.983  -0.965  -0.965  -0.963  -0.963  -0.963  -0.960
 -0.935  -0.934  -0.928  -0.927  -0.926  -0.925  -0.922  -0.922
 -0.921  -0.919  -0.897  -0.895  -0.893  -0.888  -0.886  -0.882
 -0.872  -0.872  -0.856  -0.850  -0.842  -0.841  -0.839  -0.838
 -0.837  -0.835  -0.822  -0.819  -0.809  -0.800  -0.797  -0.796
 -0.795  -0.795  -0.793  -0.792  -0.791  -0.791  -0.783  -0.782
 -0.770  -0.769  -0.769  -0.766  -0.766  -0.765  -0.765  -0.761
 -0.754  -0.751  -0.746  -0.743  -0.734  -0.734  -0.718  -0.715
 -0.713  -0.712  -0.711  -0.710  -0.710  -0.709  -0.708  -0.707
 -0.706  -0.705  -0.704  -0.703  -0.703  -0.699  -0.673  -0.672
 -0.659  -0.658  -0.657  -0.656  -0.646  -0.645  -0.633  -0.630
 -0.625  -0.623  -0.622  -0.621  -0.620  -0.617  -0.615  -0.615
 -0.614  -0.612  -0.612  -0.611  -0.611  -0.610  -0.608  -0.606
 -0.603  -0.603  -0.601  -0.600  -0.578  -0.567  -0.564  -0.563
 -0.560  -0.560  -0.557  -0.556  -0.555  -0.555  -0.554  -0.553
 -0.537  -0.535  -0.533  -0.533  -0.527  -0.524  -0.522  -0.522
 -0.520  -0.519  -0.516  -0.516  -0.514  -0.514  -0.513  -0.512
 -0.510  -0.505  -0.502  -0.501  -0.497  -0.491  -0.488  -0.486
 -0.485  -0.484  -0.483  -0.482  -0.479  -0.478  -0.476  -0.474
 -0.473  -0.471  -0.470  -0.468  -0.468  -0.467  -0.466  -0.465
 -0.464  -0.463  -0.463  -0.461  -0.461  -0.461  -0.459  -0.458
 -0.456  -0.455  -0.455  -0.452  -0.450  -0.447  -0.442  -0.440
 -0.439  -0.438  -0.438  -0.437  -0.437  -0.436  -0.432  -0.431
 -0.430  -0.429  -0.428  -0.426  -0.425  -0.425  -0.423  -0.422
 -0.421  -0.421  -0.419  -0.419  -0.418  -0.418  -0.416  -0.416
 -0.415  -0.415  -0.414  -0.414  -0.413  -0.412  -0.412  -0.411
 -0.409  -0.408  -0.408  -0.406  -0.403  -0.400  -0.400  -0.396
 -0.394  -0.389  -0.389  -0.388  -0.387  -0.386  -0.384  -0.383
 -0.381  -0.381  -0.373  -0.370  -0.369  -0.368  -0.366  -0.363
 -0.362  -0.361  -0.360  -0.359  -0.358  -0.356  -0.356  -0.355
 -0.354  -0.353  -0.352  -0.352  -0.351  -0.350  -0.349  -0.348
 -0.347  -0.347  -0.346  -0.346  -0.344  -0.344  -0.343  -0.342
 -0.340  -0.339  -0.339  -0.338  -0.336  -0.334  -0.333  -0.332
 -0.331  -0.330  -0.329  -0.328  -0.327  -0.326  -0.322  -0.322
 -0.314  -0.313  -0.304  -0.299  -0.285  -0.283  -0.273  -0.273
 -0.269  -0.267  -0.267  -0.265  -0.264  -0.263  -0.262  -0.261
 -0.261  -0.260  -0.258  -0.257  -0.256  -0.255  -0.254  -0.252
 -0.252  -0.245  -0.244  -0.241  -0.221  -0.220  -0.210  -0.207
 -0.205  -0.204  -0.204  -0.201  -0.198  -0.197

          Ground-State Mulliken Net Atomic Charges

     Atom                 Charge (a.u.)
  ----------------------------------------
      1 O                    -0.452664
      2 C                    -0.094706
      3 H                     0.128569
      4 H                     0.118843
      5 H                     0.147786
      6 O                    -0.467941
      7 C                     0.603277
      8 C                    -0.272644
      9 H                     0.132071
     10 H                     0.131151
     11 C                    -0.175965
     12 H                     0.097027
     13 H                     0.119048
     14 C                    -0.184401
     15 H                     0.133539
     16 H                     0.101877
     17 C                    -0.006927
     18 C                     0.068483
     19 C                    -0.085540
     20 H                     0.098698
     21 C                    -0.099060
     22 H                     0.088544
     23 C                    -0.079128
     24 H                     0.094717
     25 C                    -0.096818
     26 H                     0.092602
     27 C                    -0.101556
     28 H                     0.094795
     29 C                    -0.023688
     30 C                     0.007794
     31 C                    -0.021057
     32 C                    -0.016196
     33 C                    -0.002743
     34 C                     0.007624
     35 C                     0.002641
     36 C                     0.037211
     37 C                     0.030008
     38 C                    -0.036050
     39 C                    -0.074275
     40 C                     0.015806
     41 C                    -0.001866
     42 C                     0.006591
     43 C                    -0.025911
     44 C                     0.027423
     45 C                    -0.082574
     46 C                     0.022870
     47 C                    -0.014465
     48 C                     0.008768
     49 C                    -0.013485
     50 C                    -0.002322
     51 C                     0.013760
     52 C                    -0.021110
     53 C                     0.025852
     54 C                    -0.012673
     55 C                     0.002235
     56 C                    -0.005997
     57 C                     0.036113
     58 C                     0.015107
     59 C                    -0.035983
     60 C                    -0.001721
     61 C                    -0.003921
     62 C                    -0.032529
     63 C                    -0.009882
     64 C                    -0.003772
     65 C                     0.013368
     66 C                    -0.055577
     67 C                     0.010629
     68 C                     0.015628
     69 C                    -0.006854
     70 C                     0.042447
     71 C                     0.022121
     72 C                     0.018036
     73 C                     0.007013
     74 C                     0.003896
     75 C                     0.005683
     76 C                     0.007560
     77 C                     0.033563
     78 C                    -0.007399
     79 C                     0.029448
     80 C                    -0.008293
     81 C                     0.032295
     82 C                    -0.007310
     83 C                    -0.012532
     84 C                    -0.006835
     85 C                    -0.013853
     86 C                    -0.017619
     87 C                    -0.027696
     88 C                    -0.024237
     89 O                    -0.429528
     90 C                    -0.084907
     91 H                     0.120602
     92 H                     0.125768
     93 H                     0.123585
     94 O                    -0.471658
     95 C                     0.575227
     96 C                    -0.242768
     97 H                     0.128927
     98 H                     0.120555
     99 C                    -0.197654
    100 H                     0.118550
    101 H                     0.112186
    102 C                    -0.190338
    103 H                     0.103705
    104 H                     0.122867
    105 C                     0.045701
    106 C                     0.059169
    107 C                    -0.113077
    108 H                     0.091279
    109 C                    -0.077409
    110 H                     0.097042
    111 C                    -0.084670
    112 H                     0.087741
    113 C                    -0.087474
    114 H                     0.086408
    115 C                    -0.104965
    116 H                     0.092069
    117 C                     0.012858
    118 C                     0.028754
    119 C                    -0.006585
    120 C                    -0.001461
    121 C                    -0.011846
    122 C                    -0.016126
    123 C                     0.003367
    124 C                    -0.018984
    125 C                     0.000762
    126 C                    -0.003732
    127 C                    -0.073552
    128 C                     0.001173
    129 C                    -0.043880
    130 C                     0.012736
    131 C                     0.023334
    132 C                     0.009432
    133 C                    -0.087722
    134 C                     0.033123
    135 C                     0.020336
    136 C                    -0.003060
    137 C                     0.033591
    138 C                    -0.024147
    139 C                     0.004390
    140 C                    -0.001425
    141 C                     0.012353
    142 C                    -0.024439
    143 C                    -0.002498
    144 C                     0.004025
    145 C                     0.026366
    146 C                    -0.024536
    147 C                     0.021157
    148 C                    -0.006048
    149 C                     0.011901
    150 C                     0.009913
    151 C                    -0.013540
    152 C                    -0.011934
    153 C                    -0.020050
    154 C                     0.014949
    155 C                    -0.003856
    156 C                     0.007363
    157 C                    -0.005723
    158 C                     0.039121
    159 C                    -0.006731
    160 C                     0.017661
    161 C                    -0.029468
    162 C                     0.004840
    163 C                    -0.035526
    164 C                     0.015147
    165 C                    -0.030486
    166 C                    -0.023599
    167 C                     0.024882
    168 C                    -0.010862
    169 C                     0.008683
    170 C                     0.026410
    171 C                     0.014254
    172 C                     0.003863
    173 C                     0.019212
    174 C                    -0.018634
    175 C                    -0.023338
    176 C                    -0.013842
  ----------------------------------------
  Sum of atomic charges =     0.000000

                    Cartesian Multipole Moments
 -----------------------------------------------------------------
    Charge (ESU x 10^10)
                 0.0000
    Dipole Moment (Debye)
         X       2.7480      Y      -5.8940      Z       0.0746
       Tot       6.5035
    Quadrupole Moments (Debye-Ang)
        XX    -784.3590     XY      -5.8506     YY    -778.3964
        XZ      -1.7194     YZ      -6.6466     ZZ    -798.9440

 Total job time:  873.25s(wall), 8369.72s(cpu)
        *  Thank you very much for using Q-Chem.  Have a nice day.  *
