 Q-Chem 4.4, Q-Chem, Inc., Pleasanton, CA (2016)
 Q-Chem 4.4.2 for Intel X86 Linux

User input:
--------------------------------------------------------------
$comment
SP
$end

$rem
MEM_STATIC 5000
MEM_TOTAL 20000
JOBTYPE SP
EXCHANGE B3LYP
BASIS 6-31g(d,p)
$end

$molecule
0 1
O          -3.027000    -29.201000     -8.014000
C          -2.329000    -30.447000     -7.751000
H          -1.243000    -30.292000     -7.791000
H          -2.639000    -31.215000     -8.470000
H          -2.507000    -30.880000     -6.759000
O          -4.953000    -30.203000     -7.759000
C          -4.321000    -29.182000     -7.883000
C          -4.884000    -27.755000     -7.931000
H          -4.114000    -26.974000     -7.944000
H          -5.373000    -27.730000     -6.949000
C          -5.858000    -27.512000     -9.116000
H          -5.528000    -27.750000    -10.135000
H          -6.698000    -28.208000     -8.998000
C          -6.571000    -26.150000     -9.153000
H          -7.297000    -26.065000     -8.336000
H          -5.803000    -25.375000     -9.038000
C          -7.332000    -25.892000    -10.493000
C          -8.321000    -26.980000    -10.829000
C          -9.620000    -26.830000    -10.354000
H          -9.785000    -25.950000     -9.738000
C         -10.666000    -27.706000    -10.634000
H         -11.638000    -27.438000    -10.231000
C         -10.471000    -28.756000    -11.567000
H         -11.272000    -29.425000    -11.868000
C          -9.119000    -29.022000    -11.914000
H          -8.799000    -29.801000    -12.600000
C          -8.077000    -28.147000    -11.607000
H          -7.096000    -28.239000    -12.064000
C          -6.429000    -24.778000    -15.805000
C          -8.754000    -24.013000    -15.407000
C          -7.898000    -19.577000    -15.735000
C          -3.304000    -22.549000    -12.573000
C          -7.767000    -19.041000    -12.324000
C          -7.737000    -24.921000    -15.158000
C          -4.302000    -19.947000    -11.958000
C          -7.063000    -21.432000    -17.095000
C          -9.245000    -22.858000    -11.648000
C          -4.047000    -22.351000    -11.389000
C          -7.651000    -24.498000    -10.944000
C          -8.352000    -22.185000    -10.771000
C          -5.752000    -21.208000    -10.450000
C          -5.330000    -19.057000    -12.275000
C          -8.902000    -24.596000    -13.198000
C          -6.483000    -18.513000    -14.358000
C          -6.510000    -25.177000    -11.592000
C          -5.203000    -24.526000    -11.547000
C          -7.767000    -18.689000    -13.668000
C          -3.876000    -21.271000    -15.737000
C          -5.510000    -19.761000    -16.201000
C          -5.735000    -20.926000    -16.938000
C          -7.316000    -22.832000    -16.997000
C          -4.511000    -24.662000    -12.786000
C          -8.856000    -24.148000    -11.845000
C          -8.524000    -22.968000    -16.326000
C          -4.493000    -21.051000    -11.056000
C          -9.452000    -23.844000    -14.214000
C          -8.049000    -20.835000    -10.959000
C          -3.524000    -23.373000    -14.639000
C          -8.061000    -20.796000    -16.391000
C          -7.356000    -23.135000    -10.332000
C          -4.984000    -23.240000    -16.606000
C          -6.780000    -20.311000    -10.730000
C          -9.890000    -22.051000    -12.659000
C          -4.195000    -19.449000    -14.173000
C          -3.602000    -20.229000    -13.130000
C          -9.511000    -20.714000    -12.767000
C          -3.571000    -23.719000    -13.270000
C          -4.957000    -23.311000    -10.898000
C          -3.275000    -21.998000    -14.730000
C          -6.562000    -25.531000    -13.040000
C          -9.719000    -21.488000    -14.881000
C          -6.068000    -22.579000    -10.391000
C          -8.708000    -20.042000    -11.858000
C          -4.382000    -23.995000    -15.596000
C          -8.617000    -19.342000    -14.578000
C          -6.288000    -23.723000    -16.763000
C          -6.575000    -19.078000    -15.638000
C          -9.936000    -22.580000    -13.954000
C          -9.452000    -20.361000    -14.087000
C          -7.755000    -25.269000    -13.785000
C          -5.309000    -25.319000    -13.686000
C          -4.338000    -19.994000    -15.433000
C          -9.010000    -21.726000    -16.039000
C          -6.550000    -19.218000    -11.617000
C          -3.100000    -21.483000    -13.451000
C          -5.265000    -18.706000    -13.630000
C          -5.285000    -24.910000    -15.060000
C          -4.705000    -21.829000    -16.699000
O           5.429000    -29.646000     -8.323000
C           6.324000    -30.357000     -7.351000
H           7.077000    -30.986000     -7.841000
H           5.753000    -30.963000     -6.637000
H           6.848000    -29.644000     -6.703000
O           7.320000    -28.637000     -9.210000
C           6.110000    -28.761000     -9.144000
C           5.115000    -28.028000     -9.984000
H           4.640000    -27.297000     -9.317000
H           4.278000    -28.649000    -10.326000
C           5.745000    -27.325000    -11.240000
H           6.533000    -26.648000    -10.885000
H           6.222000    -28.079000    -11.878000
C           4.723000    -26.451000    -12.064000
H           4.199000    -27.061000    -12.810000
H           3.878000    -26.109000    -11.454000
C           5.349000    -25.325000    -12.882000
C           6.519000    -25.868000    -13.703000
C           7.793000    -25.620000    -13.323000
H           7.945000    -25.089000    -12.388000
C           8.939000    -26.073000    -14.002000
H           9.939000    -25.802000    -13.679000
C           8.617000    -26.878000    -15.106000
H           9.412000    -27.260000    -15.739000
C           7.323000    -27.270000    -15.392000
H           7.276000    -28.053000    -16.143000
C           6.268000    -26.750000    -14.707000
H           5.245000    -26.894000    -15.044000
C           7.274000    -20.290000    -12.659000
C           6.411000    -20.428000    -14.967000
C           2.906000    -17.676000    -14.292000
C           3.650000    -21.426000     -9.239000
C           0.581000    -20.354000    -13.813000
C           7.027000    -21.053000    -13.882000
C           1.211000    -20.720000    -10.283000
C           5.204000    -17.561000    -13.452000
C           3.333000    -22.967000    -15.008000
C           2.855000    -22.359000     -9.939000
C           4.435000    -24.218000    -13.288000
C           2.292000    -23.341000    -14.142000
C           1.382000    -22.803000    -11.544000
C           0.574000    -20.167000    -11.390000
C           5.718000    -22.639000    -14.850000
C           1.363000    -18.256000    -12.740000
C           5.393000    -23.939000    -12.264000
C           4.829000    -23.525000    -10.980000
C           1.091000    -18.987000    -13.913000
C           4.373000    -18.119000    -10.158000
C           3.355000    -17.274000    -11.935000
C           4.726000    -17.252000    -12.178000
C           6.256000    -18.387000    -13.667000
C           5.553000    -22.487000    -10.468000
C           4.567000    -23.402000    -14.583000
C           6.014000    -19.121000    -14.788000
C           1.621000    -22.015000    -10.390000
C           5.591000    -21.411000    -15.561000
C           1.202000    -22.495000    -13.968000
C           5.538000    -20.150000     -9.667000
C           4.334000    -17.748000    -14.508000
C           2.902000    -23.992000    -13.044000
C           6.490000    -18.649000    -11.292000
C           0.776000    -22.245000    -12.630000
C           3.217000    -21.776000    -15.722000
C           1.914000    -18.552000    -10.410000
C           2.007000    -19.708000     -9.704000
C           2.116000    -20.922000    -15.543000
C           5.056000    -21.482000     -9.560000
C           3.426000    -23.431000    -10.739000
C           4.442000    -19.309000     -9.388000
C           6.435000    -22.957000    -12.548000
C           3.976000    -19.651000    -15.966000
C           2.476000    -23.622000    -11.744000
C           1.079000    -21.261000    -14.688000
C           6.538000    -19.868000    -10.584000
C           2.034000    -18.616000    -14.824000
C           6.880000    -18.959000    -12.579000
C           2.474000    -17.462000    -12.970000
C           4.326000    -21.002000    -16.060000
C           2.583000    -19.605000    -15.674000
C           6.603000    -22.394000    -13.820000
C           6.577000    -22.199000    -11.352000
C           3.121000    -17.799000    -10.629000
C           4.823000    -18.745000    -15.328000
C           0.373000    -20.898000    -12.582000
C           3.300000    -20.104000     -9.173000
C           1.006000    -18.810000    -11.483000
C           7.053000    -20.862000    -11.437000
C           5.402000    -17.819000    -11.090000
$end

--------------------------------------------------------------

             Standard Nuclear Orientation (Angstroms)
    I     Atom           X                Y                Z
 ----------------------------------------------------------------
    1      O       2.2576474634    -7.6537751132    -1.6592375905
    2      C       1.6444777683    -8.9318708633    -1.3439866132
    3      H       0.5522452795    -8.8309645824    -1.3007765117
    4      H       2.0372353461    -9.3178022867    -0.3954701813
    5      H       1.8167502695    -9.7254532088    -2.0814052502
    6      O       4.2416518867    -8.5699653281    -1.6060686278
    7      C       3.5408648871    -7.6231064001    -1.8698805907
    8      C       3.9980370617    -6.2760620396    -2.4461332207
    9      H       3.1733403431    -5.6004503848    -2.7039203698
   10      H       4.4466915292    -6.6327481349    -3.3818437519
   11      C       4.9950945308    -5.5157125709    -1.5297844396
   12      H       4.7220530364    -5.3292230580    -0.4835650534
   13      H       5.8793190332    -6.1536596659    -1.4068595309
   14      C       5.6061507074    -4.2245113815    -2.0991629055
   15      H       6.2927281072    -4.4462474700    -2.9245322660
   16      H       4.7790938525    -3.6070294535    -2.4711400919
   17      C       6.3956418906    -3.3977040658    -1.0340909200
   18      C       7.4744003454    -4.1972418223    -0.3472280719
   19      C       8.7400050696    -4.1889987180    -0.9248981622
   20      H       8.8161741503    -3.6339875972    -1.8561564115
   21      C       9.8577670865    -4.8158326377    -0.3793898574
   22      H      10.7914597645    -4.6876082872    -0.9186425802
   23      C       9.7761733364    -5.3963253490     0.9118826437
   24      H      10.6352374256    -5.8389850877     1.4076893059
   25      C       8.4615449091    -5.5656134906     1.4239008302
   26      H       8.2260543006    -6.0079713569     2.3875920107
   27      C       7.3468311561    -4.9506133364     0.8539656942
   28      H       6.3931589026    -4.8969605184     1.3709807888
   29      C       5.6123550501    -0.2412710202     3.4040552193
   30      C       7.8577581578     0.4115352928     2.5786687634
   31      C       6.6884742675     4.5369531334     1.1184910947
   32      C       2.2119191240     0.2907346478    -0.2475054718
   33      C       6.3903815310     3.6112346544    -2.1971632929
   34      C       6.9021816248    -0.5699758794     2.7890572333
   35      C       2.9907192351     2.4557920520    -1.9358863007
   36      C       6.0447121099     3.3669962021     3.1690083620
   37      C       8.1206321832    -0.0622598038    -1.3470926218
   38      C       2.8933134320     0.0213427988    -1.4542526817
   39      C       6.6272049952    -1.9272203047    -1.2142409599
   40      C       7.1480001448     0.1417514136    -2.3629042879
   41      C       4.4725839122     0.7626014135    -2.8866057865
   42      C       3.9611396182     3.4495418496    -2.0777264215
   43      C       7.9656285847    -1.0218322093     0.7967328569
   44      C       5.1479453648     4.8632503528    -0.4786159226
   45      C       5.5647172077    -2.3370547857    -0.2729751102
   46      C       4.2123275240    -1.8315698625    -0.4956904798
   47      C       6.4146870581     4.4855506074    -1.1177093311
   48      C       2.8058867264     2.7875051852     2.0729908913
   49      C       4.3398082306     4.4373515293     1.7722520354
   50      C       4.6779357456     3.6933229987     2.9049966356
   51      C       6.3968503580     2.0663969757     3.6359701447
   52      C       3.5792269495    -1.4804520130     0.7324711212
   53      C       7.8358961960    -1.1746149139    -0.6150943112
   54      C       7.5856040451     1.7289546368     3.0027258479
   55      C       3.2290146714     1.0896872418    -2.3178207618
   56      C       8.4961181726     0.1097117118     1.3784966851
   57      C       6.7531107659     1.4313773209    -2.7242633856
   58      C       2.5696218656     0.4045718248     1.9558605545
   59      C       6.9657790137     3.7071817975     2.2035936741
   60      C       6.2093402456    -0.9552072999    -2.3096485414
   61      C       4.0884591800     1.4126171904     3.5976144195
   62      C       5.4410990676     1.7474623260    -3.0649884554
   63      C       8.7415332165     1.1221960714    -0.7985115551
   64      C       2.9302273397     3.8164572696    -0.1163784288
   65      C       2.3579478344     2.6460736317    -0.7084901647
   66      C       8.2688703879     2.3630538259    -1.2224642452
   67      C       2.5907727563    -0.4721466595     0.8481587268
   68      C       3.8528678077    -1.0068737428    -1.5674213334
   69      C       2.2230589540     1.6797544261     1.4924919304
   70      C       5.6970279360    -2.0592917117     1.1864992972
   71      C       8.6127106217     2.5415346889     1.0049231201
   72      C       4.8868187752    -0.4922589960    -2.4000743579
   73      C       7.3848024349     2.5576491893    -2.2728120443
   74      C       3.5065961043     0.2781099886     3.0258996566
   75      C       7.3442231564     4.3110971114    -0.0772586500
   76      C       5.4296149769     1.1059599548     3.8537715363
   77      C       5.3294479448     4.8819125462     0.9116349670
   78      C       8.8750905814     1.1773908174     0.5936443163
   79      C       8.2334059051     3.2253105728    -0.1614526652
   80      C       6.8944307856    -1.4516732611     1.6804064083
   81      C       4.4568639207    -1.6653754149     1.7688155052
   82      C       3.1603230955     3.8477205683     1.2441922417
   83      C       7.9671868866     2.7655952496     2.2021636860
   84      C       5.1641906595     3.0953459268    -2.6896891984
   85      C       1.9625832921     1.6117038068     0.1289624871
   86      C       3.9211558039     4.3240980747    -0.9836497772
   87      C       4.4541552656    -0.7280956805     2.8538188981
   88      C       3.7094085840     2.7198056157     3.1232832416
   89      O      -6.1246336688    -8.3715681179    -0.6494959292
   90      C      -7.0003200162    -9.4656486043    -1.1856780908
   91      H      -7.6857717806    -9.8749418679    -0.4337572817
   92      H      -6.4131714773   -10.2814886834    -1.6246935331
   93      H      -7.5996046283    -9.1116145750    -2.0332433447
   94      O      -8.0505891601    -7.1866035368    -0.1324994233
   95      C      -6.8380549580    -7.2635751998    -0.2200675211
   96      C      -5.8692905439    -6.1987017613     0.1804996641
   97      H      -5.4750677765    -5.7840947621    -0.7562844338
   98      H      -4.9763688509    -6.5789229499     0.6916715509
   99      C      -6.5021045122    -5.0742325452     1.0770265537
  100      H      -7.3508299312    -4.6458844002     0.5279536716
  101      H      -6.8977039457    -5.5218205705     1.9969477720
  102      C      -5.5174754778    -3.8863032578     1.4036236645
  103      H      -4.9221459203    -4.1062465379     2.2982742508
  104      H      -4.7235836213    -3.7827369270     0.6538912221
  105      C      -6.1940475481    -2.5574809122     1.7282117227
  106      C      -7.2890232150    -2.7737962283     2.7732121882
  107      C      -8.5912366711    -2.7712673939     2.4082276407
  108      H      -8.8170831266    -2.6817300925     1.3498012379
  109      C      -9.6742829224    -2.9630221458     3.2856140623
  110      H     -10.7030088671    -2.9017996907     2.9454012734
  111      C      -9.2523962509    -3.2232397602     4.5989393950
  112      H      -9.9926361679    -3.3511004422     5.3827343370
  113      C      -7.9231103583    -3.3944598872     4.9359537625
  114      H      -7.7901349048    -3.7945393413     5.9367299408
  115      C      -6.9359370103    -3.1489791124     4.0315877026
  116      H      -5.8931713605    -3.0877182537     4.3311221863
  117      C      -8.4936567845     1.8298894953    -0.4093937758
  118      C      -7.5369078688     2.7009508870     1.6921676827
  119      C      -4.2731169424     5.1082843440    -0.2741914949
  120      C      -4.9262158811    -0.4247203107    -3.2921653629
  121      C      -1.7757600753     2.5961118261     0.2346777606
  122      C      -8.1451615683     1.6530321939     0.9999250594
  123      C      -2.5087886839     0.7749218702    -2.7881838313
  124      C      -6.6031880747     4.7468398288    -0.9373320385
  125      C      -4.2799536358     0.5688324249     2.5688694495
  126      C      -4.0386241494    -0.9432992513    -2.3248128933
  127      C      -5.3499690330    -1.3356004426     1.5860126425
  128      C      -3.2473061368    -0.0741832590     1.8662436793
  129      C      -2.4776670850    -0.6086460070    -0.7774570037
  130      C      -1.8734505209     1.7675177621    -2.0478286368
  131      C      -6.6869372015     0.6777908286     2.4450503050
  132      C      -2.7506574567     4.0211995035    -1.5494627069
  133      C      -6.3637067341    -1.5539482748     0.6017153817
  134      C      -5.8804398804    -1.6774326176    -0.7728219096
  135      C      -2.3814925035     3.8541341267    -0.2003591537
  136      C      -5.8571932099     2.9244224740    -3.7612739017
  137      C      -4.8386830155     4.4787047404    -2.5550725834
  138      C      -6.1974733011     4.5274963954    -2.2542697670
  139      C      -7.5823254878     4.0294038929    -0.3358500319
  140      C      -6.6980064870    -0.9821370906    -1.6165712645
  141      C      -5.4934085708    -0.0663322739     2.4396451249
  142      C      -7.2447838520     3.8366067563     0.9690851804
  143      C      -2.8174552119    -0.3801833685    -2.1347078470
  144      C      -6.6246724011     2.0944909967     2.5818630537
  145      C      -2.2302443323     0.6803279973     1.2914480202
  146      C      -6.8861597168     0.8139968297    -3.3023637496
  147      C      -5.6827608513     5.0574767522     0.0441583732
  148      C      -3.8481422285    -1.1507978562     1.1724122877
  149      C      -7.8851320906     2.7996600296    -2.3754733285
  150      C      -1.8743793533     0.3782242720    -0.0562587194
  151      C      -4.2257982000     1.9525432303     2.7242547628
  152      C      -3.3651654360     2.7625735726    -3.5137329809
  153      C      -3.3986925032     1.4151935648    -3.6776355442
  154      C      -3.1985542435     2.7128422609     2.1409253207
  155      C      -6.3111851454    -0.4165358773    -2.8862021232
  156      C      -4.4982760584    -1.6182250319    -1.1213095435
  157      C      -5.8666838442     1.5209795535    -3.9710807102
  158      C      -7.4641935395    -0.5979467962     0.5259924378
  159      C      -5.1304118072     3.9464085057     2.1264107319
  160      C      -3.4997402035    -1.3280875113    -0.1897772759
  161      C      -2.1720727595     2.1059879723     1.4342580473
  162      C      -7.8692236069     1.3964976516    -2.5183413135
  163      C      -3.3145693489     4.5180799775     0.5381220632
  164      C      -8.2025892221     3.0280377083    -1.0519803722
  165      C      -3.9080067968     4.7803464117    -1.5929997805
  166      C      -5.3756252629     2.7381335665     2.7870763299
  167      C      -3.7565701231     3.9404086360     1.7517748706
  168      C      -7.6256336500     0.4298467526     1.4644776596
  169      C      -7.7066687994    -0.4090355274    -0.8634903008
  170      C      -4.6155593150     3.4748930664    -3.5443121587
  171      C      -6.0655006301     4.4632847248     1.2298970022
  172      C      -1.5743284147     1.6045882220    -0.6768414266
  173      C      -4.6778052014     0.7687225557    -3.9154841086
  174      C      -2.4009738799     3.0176211410    -2.4901889510
  175      C      -8.2768589644     0.8172864752    -1.3021103204
  176      C      -6.8699278933     3.5279694281    -2.9690841926
 ----------------------------------------------------------------

    9   -5804.2458749510      8.23E-06 Convergence criterion met
 Total energy in the final basis set = -5804.2458749510

                    Orbital Energies (a.u.)
 --------------------------------------------------------------

 Alpha MOs
 -- Occupied --
-19.198 -19.197 -19.144 -19.127 -10.321 -10.313 -10.249 -10.248
-10.246 -10.244 -10.239 -10.238 -10.236 -10.229 -10.229 -10.228
-10.228 -10.227 -10.226 -10.226 -10.222 -10.221 -10.221 -10.221
-10.221 -10.221 -10.220 -10.220 -10.219 -10.219 -10.219 -10.217
-10.217 -10.217 -10.217 -10.217 -10.217 -10.216 -10.216 -10.216
-10.216 -10.216 -10.216 -10.215 -10.215 -10.215 -10.215 -10.215
-10.215 -10.215 -10.215 -10.214 -10.214 -10.214 -10.214 -10.214
-10.214 -10.214 -10.214 -10.213 -10.213 -10.213 -10.213 -10.213
-10.213 -10.213 -10.213 -10.213 -10.213 -10.212 -10.212 -10.212
-10.212 -10.212 -10.212 -10.212 -10.212 -10.212 -10.212 -10.211
-10.211 -10.211 -10.211 -10.211 -10.211 -10.211 -10.211 -10.211
-10.211 -10.210 -10.210 -10.210 -10.210 -10.210 -10.210 -10.210
-10.210 -10.210 -10.210 -10.209 -10.209 -10.209 -10.209 -10.209
-10.209 -10.209 -10.209 -10.209 -10.209 -10.209 -10.208 -10.208
-10.208 -10.208 -10.208 -10.207 -10.207 -10.207 -10.207 -10.207
-10.207 -10.206 -10.206 -10.206 -10.206 -10.206 -10.206 -10.206
-10.205 -10.205 -10.205 -10.205 -10.203 -10.202 -10.202 -10.201
-10.201 -10.201 -10.200 -10.200 -10.199 -10.199 -10.198 -10.195
-10.195 -10.193 -10.192 -10.191  -1.118  -1.085  -1.010  -1.010
 -0.986  -0.982  -0.971  -0.967  -0.965  -0.963  -0.962  -0.959
 -0.939  -0.935  -0.931  -0.927  -0.926  -0.924  -0.923  -0.922
 -0.920  -0.919  -0.902  -0.898  -0.892  -0.887  -0.886  -0.885
 -0.880  -0.874  -0.865  -0.854  -0.845  -0.840  -0.839  -0.838
 -0.836  -0.835  -0.823  -0.821  -0.805  -0.801  -0.800  -0.798
 -0.796  -0.795  -0.794  -0.794  -0.792  -0.789  -0.786  -0.782
 -0.772  -0.770  -0.770  -0.768  -0.766  -0.764  -0.764  -0.764
 -0.756  -0.751  -0.748  -0.744  -0.737  -0.734  -0.721  -0.716
 -0.713  -0.712  -0.712  -0.712  -0.711  -0.711  -0.709  -0.707
 -0.707  -0.705  -0.704  -0.704  -0.702  -0.700  -0.675  -0.672
 -0.660  -0.658  -0.657  -0.657  -0.649  -0.647  -0.631  -0.631
 -0.630  -0.626  -0.626  -0.625  -0.624  -0.621  -0.618  -0.617
 -0.615  -0.614  -0.612  -0.612  -0.609  -0.609  -0.608  -0.607
 -0.606  -0.605  -0.602  -0.602  -0.571  -0.569  -0.567  -0.563
 -0.561  -0.560  -0.557  -0.557  -0.556  -0.555  -0.553  -0.553
 -0.540  -0.539  -0.532  -0.531  -0.527  -0.526  -0.525  -0.522
 -0.522  -0.520  -0.520  -0.520  -0.518  -0.514  -0.513  -0.512
 -0.508  -0.507  -0.503  -0.499  -0.493  -0.488  -0.488  -0.487
 -0.485  -0.484  -0.483  -0.480  -0.480  -0.480  -0.480  -0.475
 -0.474  -0.472  -0.472  -0.470  -0.469  -0.468  -0.467  -0.465
 -0.464  -0.464  -0.462  -0.462  -0.461  -0.460  -0.458  -0.458
 -0.455  -0.455  -0.453  -0.453  -0.451  -0.449  -0.447  -0.444
 -0.443  -0.440  -0.439  -0.438  -0.437  -0.435  -0.433  -0.433
 -0.432  -0.429  -0.428  -0.427  -0.427  -0.425  -0.424  -0.423
 -0.421  -0.421  -0.420  -0.420  -0.419  -0.419  -0.418  -0.418
 -0.418  -0.416  -0.416  -0.415  -0.415  -0.414  -0.413  -0.412
 -0.411  -0.411  -0.409  -0.407  -0.405  -0.401  -0.401  -0.395
 -0.394  -0.393  -0.390  -0.389  -0.388  -0.385  -0.385  -0.382
 -0.381  -0.379  -0.375  -0.374  -0.369  -0.368  -0.366  -0.365
 -0.365  -0.365  -0.363  -0.362  -0.362  -0.360  -0.360  -0.358
 -0.357  -0.355  -0.355  -0.354  -0.353  -0.352  -0.351  -0.350
 -0.350  -0.348  -0.347  -0.347  -0.346  -0.346  -0.345  -0.344
 -0.343  -0.341  -0.340  -0.339  -0.336  -0.335  -0.335  -0.333
 -0.331  -0.330  -0.330  -0.329  -0.328  -0.326  -0.325  -0.325
 -0.311  -0.306  -0.305  -0.302  -0.291  -0.290  -0.278  -0.272
 -0.269  -0.269  -0.268  -0.266  -0.266  -0.266  -0.265  -0.263
 -0.262  -0.261  -0.260  -0.258  -0.258  -0.257  -0.254  -0.253
 -0.252  -0.250  -0.246  -0.239  -0.225  -0.221  -0.215  -0.211
 -0.207  -0.207  -0.203  -0.202  -0.198  -0.196

          Ground-State Mulliken Net Atomic Charges

     Atom                 Charge (a.u.)
  ----------------------------------------
      1 O                    -0.424429
      2 C                    -0.094956
      3 H                     0.122368
      4 H                     0.136182
      5 H                     0.130644
      6 O                    -0.480904
      7 C                     0.571293
      8 C                    -0.251711
      9 H                     0.122156
     10 H                     0.135966
     11 C                    -0.190816
     12 H                     0.107864
     13 H                     0.135160
     14 C                    -0.170346
     15 H                     0.110348
     16 H                     0.102050
     17 C                    -0.013438
     18 C                     0.098135
     19 C                    -0.102778
     20 H                     0.086794
     21 C                    -0.090801
     22 H                     0.093521
     23 C                    -0.087534
     24 H                     0.099520
     25 C                    -0.093699
     26 H                     0.092124
     27 C                    -0.107250
     28 H                     0.093069
     29 C                    -0.024961
     30 C                     0.014937
     31 C                     0.018251
     32 C                    -0.024908
     33 C                    -0.010711
     34 C                    -0.033009
     35 C                     0.000747
     36 C                    -0.020137
     37 C                    -0.001217
     38 C                     0.006365
     39 C                    -0.077083
     40 C                     0.002525
     41 C                    -0.010132
     42 C                     0.017068
     43 C                     0.005096
     44 C                    -0.016990
     45 C                    -0.059896
     46 C                     0.026743
     47 C                    -0.009512
     48 C                     0.017760
     49 C                     0.013205
     50 C                    -0.020968
     51 C                     0.001822
     52 C                     0.015787
     53 C                     0.041735
     54 C                     0.018944
     55 C                    -0.011792
     56 C                     0.018924
     57 C                     0.044207
     58 C                    -0.025024
     59 C                     0.030438
     60 C                    -0.010243
     61 C                    -0.005143
     62 C                    -0.015577
     63 C                    -0.024156
     64 C                    -0.012455
     65 C                     0.000199
     66 C                     0.030229
     67 C                     0.009249
     68 C                    -0.020081
     69 C                     0.010938
     70 C                     0.003042
     71 C                    -0.030666
     72 C                     0.023741
     73 C                    -0.037574
     74 C                    -0.012220
     75 C                    -0.016441
     76 C                    -0.008416
     77 C                    -0.000380
     78 C                    -0.017340
     79 C                     0.032288
     80 C                    -0.002812
     81 C                    -0.007703
     82 C                    -0.001396
     83 C                    -0.005102
     84 C                     0.000132
     85 C                     0.010514
     86 C                    -0.001573
     87 C                     0.033251
     88 C                    -0.000543
     89 O                    -0.484677
     90 C                    -0.095904
     91 H                     0.137488
     92 H                     0.122491
     93 H                     0.131155
     94 O                    -0.472572
     95 C                     0.624547
     96 C                    -0.278986
     97 H                     0.140111
     98 H                     0.133039
     99 C                    -0.176827
    100 H                     0.123312
    101 H                     0.123751
    102 C                    -0.189667
    103 H                     0.104277
    104 H                     0.102181
    105 C                    -0.005801
    106 C                     0.133466
    107 C                    -0.126808
    108 H                     0.090005
    109 C                    -0.077419
    110 H                     0.103698
    111 C                    -0.094350
    112 H                     0.082779
    113 C                    -0.081727
    114 H                     0.090189
    115 C                    -0.115776
    116 H                     0.093109
    117 C                     0.011843
    118 C                     0.000761
    119 C                    -0.024796
    120 C                    -0.026144
    121 C                     0.012839
    122 C                    -0.027600
    123 C                     0.007896
    124 C                     0.014637
    125 C                     0.025169
    126 C                    -0.000725
    127 C                    -0.088840
    128 C                     0.001574
    129 C                    -0.005083
    130 C                    -0.008877
    131 C                    -0.010373
    132 C                     0.000167
    133 C                    -0.082118
    134 C                     0.037948
    135 C                     0.000089
    136 C                    -0.016055
    137 C                    -0.005547
    138 C                    -0.008167
    139 C                     0.018657
    140 C                     0.040591
    141 C                     0.044798
    142 C                     0.021396
    143 C                     0.014779
    144 C                    -0.024406
    145 C                    -0.021847
    146 C                     0.012802
    147 C                    -0.024577
    148 C                     0.003502
    149 C                    -0.007832
    150 C                    -0.008411
    151 C                     0.010825
    152 C                    -0.013097
    153 C                     0.001367
    154 C                     0.018953
    155 C                    -0.027075
    156 C                    -0.019485
    157 C                    -0.016121
    158 C                     0.031937
    159 C                     0.000449
    160 C                    -0.000983
    161 C                    -0.011071
    162 C                     0.002648
    163 C                     0.007962
    164 C                    -0.008054
    165 C                     0.012764
    166 C                    -0.024508
    167 C                    -0.018546
    168 C                     0.024703
    169 C                    -0.027707
    170 C                     0.028270
    171 C                     0.011231
    172 C                     0.019094
    173 C                     0.012874
    174 C                    -0.024266
    175 C                    -0.018627
    176 C                     0.012818
  ----------------------------------------
  Sum of atomic charges =     0.000000

                    Cartesian Multipole Moments
 -----------------------------------------------------------------
    Charge (ESU x 10^10)
                 0.0000
    Dipole Moment (Debye)
         X      -0.5303      Y      -4.4088      Z       0.4773
       Tot       4.4662
    Quadrupole Moments (Debye-Ang)
        XX    -803.1609     XY      12.3536     YY    -789.8630
        XZ      -8.8955     YZ       0.9084     ZZ    -796.8284

 Total job time:  835.78s(wall), 7948.43s(cpu)
        *  Thank you very much for using Q-Chem.  Have a nice day.  *
