 Q-Chem 4.4, Q-Chem, Inc., Pleasanton, CA (2016)
 Q-Chem 4.4.2 for Intel X86 Linux

User input:
--------------------------------------------------------------
$comment
SP
$end

$rem
MEM_STATIC 5000
MEM_TOTAL 20000
JOBTYPE SP
EXCHANGE B3LYP
BASIS 6-31g(d,p)
$end

$molecule
0 1
O         -11.195000      6.469000     -1.826000
C         -11.843000      7.426000     -2.781000
H         -12.268000      6.847000     -3.610000
H         -11.241000      8.268000     -3.143000
H         -12.673000      7.977000     -2.322000
O         -13.046000      5.203000     -1.483000
C         -11.884000      5.415000     -1.254000
C         -10.943000      4.403000     -0.593000
H         -10.455000      4.917000      0.244000
H         -10.293000      4.098000     -1.423000
C         -11.583000      3.169000     -0.073000
H         -12.008000      2.617000     -0.920000
H         -10.773000      2.496000      0.231000
C         -12.544000      3.205000      1.099000
H         -12.236000      3.948000      1.846000
H         -13.434000      3.676000      0.665000
C         -12.884000      1.883000      1.904000
C         -14.041000      1.064000      1.238000
C         -13.723000      0.155000      0.210000
H         -12.681000      0.137000     -0.094000
C         -14.700000     -0.688000     -0.294000
H         -14.437000     -1.470000     -1.000000
C         -16.019000     -0.528000      0.147000
H         -16.804000     -1.145000     -0.281000
C         -16.361000      0.377000      1.188000
H         -17.368000      0.531000      1.563000
C         -15.366000      1.210000      1.676000
H         -15.604000      1.903000      2.478000
C         -14.296000     -0.193000      6.833000
C         -13.004000     -2.021000      5.821000
C          -9.283000     -1.799000      8.395000
C         -11.413000      4.021000      6.824000
C          -7.439000     -0.044000      5.879000
C         -13.960000     -0.958000      5.680000
C          -8.640000      3.305000      6.922000
C         -11.619000     -1.634000      8.971000
C         -10.339000     -0.645000      3.146000
C         -10.639000      4.015000      5.595000
C         -11.818000      1.181000      2.734000
C          -9.607000      0.512000      3.158000
C          -8.996000      2.841000      4.590000
C          -7.817000      2.136000      6.996000
C         -12.657000     -0.974000      3.800000
C          -8.051000      0.145000      8.265000
C         -12.915000      1.904000      3.448000
C         -12.475000      3.058000      4.288000
C          -7.761000     -0.605000      7.113000
C         -11.384000      1.806000      9.397000
C          -9.987000      0.106000      9.751000
C         -11.333000     -0.431000      9.698000
C         -12.798000     -1.654000      8.213000
C         -13.263000      3.016000      5.493000
C         -11.648000     -0.305000      3.056000
C         -12.495000     -2.354000      7.057000
C          -9.252000      3.699000      5.711000
C         -12.302000     -2.081000      4.603000
C          -8.412000      0.615000      3.952000
C         -12.916000      2.903000      7.911000
C         -10.587000     -2.290000      8.306000
C         -10.428000      1.630000      3.033000
C         -13.356000      0.609000      8.753000
C          -8.057000      1.778000      4.654000
C          -9.950000     -1.723000      3.938000
C          -9.097000      2.208000      8.879000
C          -9.439000      3.282000      8.090000
C          -8.825000     -1.632000      4.738000
C         -12.708000      3.518000      6.678000
C         -11.165000      3.508000      4.451000
C         -11.799000      2.952000      8.710000
C         -13.764000      1.127000      4.392000
C         -10.366000     -2.720000      5.966000
C         -10.128000      2.805000      3.794000
C          -8.074000     -0.512000      4.739000
C         -13.715000      1.708000      7.892000
C          -8.517000     -1.760000      7.206000
C         -13.637000     -0.551000      8.044000
C          -8.953000     -0.587000      9.063000
C         -10.903000     -2.396000      4.692000
C          -9.056000     -2.299000      6.014000
C         -13.686000     -0.304000      4.486000
C         -14.042000      1.838000      5.492000
C         -10.060000      1.502000      9.584000
C         -11.144000     -2.785000      7.135000
C          -7.470000      1.392000      5.826000
C         -10.819000      3.673000      8.031000
C          -8.046000      1.516000      8.192000
C         -14.306000      1.208000      6.729000
C         -12.177000      0.647000      9.513000
O           1.350000     -8.223000      0.763000
C           1.343000     -7.481000     -0.460000
H           1.911000     -6.560000     -0.281000
H           0.312000     -7.288000     -0.784000
H           1.841000     -7.958000     -1.312000
O          -0.181000     -9.723000      0.110000
C           0.610000     -9.326000      0.945000
C           0.635000     -9.735000      2.400000
H           1.631000    -10.147000      2.604000
H          -0.103000    -10.523000      2.596000
C           0.353000     -8.545000      3.393000
H           1.149000     -7.804000      3.250000
H          -0.557000     -8.096000      2.976000
C           0.099000     -8.957000      4.868000
H          -0.535000     -9.852000      4.867000
H           1.003000     -9.301000      5.385000
C          -0.649000     -7.867000      5.687000
C           0.292000     -6.707000      6.005000
C           1.145000     -6.808000      7.142000
H           1.091000     -7.640000      7.838000
C           2.105000     -5.796000      7.387000
H           2.756000     -5.852000      8.255000
C           2.116000     -4.630000      6.618000
H           2.816000     -3.859000      6.924000
C           1.224000     -4.564000      5.541000
H           1.220000     -3.667000      4.928000
C           0.337000     -5.586000      5.206000
H          -0.310000     -5.471000      4.341000
C          -3.569000     -6.687000     10.080000
C          -4.207000     -4.903000      8.558000
C          -8.411000     -6.252000      7.661000
C          -4.372000    -11.182000      7.842000
C          -7.563000     -7.792000      4.595000
C          -3.261000     -5.801000      9.068000
C          -6.576000    -10.902000      6.051000
C          -7.167000     -6.203000      9.764000
C          -3.891000     -6.062000      4.789000
C          -4.123000    -10.958000      6.495000
C          -2.117000     -7.562000      5.463000
C          -4.076000     -7.345000      4.221000
C          -4.825000     -9.957000      4.607000
C          -7.480000     -9.954000      5.571000
C          -2.848000     -5.582000      6.843000
C          -8.804000     -8.254000      6.681000
C          -1.619000     -8.198000      6.727000
C          -2.130000     -9.593000      7.040000
C          -8.335000     -7.354000      5.673000
C          -6.787000     -9.666000      9.880000
C          -8.332000     -8.218000      9.086000
C          -7.518000     -7.587000     10.019000
C          -5.879000     -5.811000     10.101000
C          -2.512000     -9.690000      8.402000
C          -2.826000     -6.218000      5.627000
C          -5.494000     -4.904000      9.060000
C          -5.232000    -10.888000      5.591000
C          -3.937000     -4.770000      7.175000
C          -5.412000     -7.760000      3.887000
C          -4.399000    -10.054000      9.825000
C          -7.567000     -5.537000      8.601000
C          -3.083000     -8.263000      4.585000
C          -5.287000     -8.031000     10.803000
C          -5.785000     -9.117000      4.064000
C          -4.956000     -5.212000      5.095000
C          -7.848000    -10.220000      7.795000
C          -6.810000    -11.094000      7.457000
C          -6.296000     -5.703000      4.809000
C          -3.586000    -10.488000      8.766000
C          -3.014000    -10.188000      6.108000
C          -5.715000    -10.528000      9.549000
C          -1.772000     -7.483000      8.035000
C          -6.280000     -4.578000      6.802000
C          -3.486000     -9.572000      4.953000
C          -6.539000     -6.927000      4.218000
C          -4.212000     -8.848000     10.401000
C          -8.139000     -6.106000      6.278000
C          -4.914000     -6.728000     10.618000
C          -8.824000     -7.540000      7.901000
C          -4.963000     -4.550000      6.295000
C          -7.104000     -5.285000      5.859000
C          -2.361000     -6.208000      8.085000
C          -2.166000     -8.447000      9.016000
C          -7.799000     -9.494000      8.963000
C          -6.506000     -4.763000      8.147000
C          -7.114000     -9.107000      4.571000
C          -5.711000    -11.206000      8.367000
C          -8.233000     -9.530000      6.673000
C          -3.091000     -8.005000      9.996000
C          -6.587000     -8.468000     10.519000
$end

--------------------------------------------------------------

             Standard Nuclear Orientation (Angstroms)
    I     Atom           X                Y                Z
 ----------------------------------------------------------------
    1      O     -10.8449396899     6.8774753846     0.7397802880
    2      C     -12.1403307515     7.6013485438     0.5258932923
    3      H     -12.1339732841     8.0221052951    -0.4870382645
    4      H     -12.4334338103     8.3492383992     1.2723270544
    5      H     -13.0077096914     6.9325109511     0.5849868547
    6      O     -11.0552247879     5.5023965450    -1.0522979364
    7      C     -10.4152632680     5.8667228692    -0.1008019656
    8      C      -8.9397434208     5.5207162282     0.1220580465
    9      H      -8.8556719005     5.1089362930     1.1351119762
   10      H      -8.4359851153     6.4790329854    -0.0576126591
   11      C      -8.3542738445     4.5429674391    -0.8287251469
   12      H      -8.3709994870     4.9845838968    -1.8324348445
   13      H      -7.2767220282     4.5140887330    -0.6299964287
   14      C      -8.8021859808     3.0948638685    -0.8565058399
   15      H      -9.0201669193     2.7242649070     0.1534757046
   16      H      -9.8052947107     3.1624444562    -1.2941161003
   17      C      -7.9066669182     1.9869050393    -1.5506109050
   18      C      -8.1712309854     1.8898542017    -3.0912448619
   19      C      -7.4720367853     2.7557776391    -3.9546642682
   20      H      -6.8332850859     3.4868699779    -3.4688615730
   21      C      -7.5734140944     2.5939561648    -5.3267905202
   22      H      -6.9476787638     3.1785836383    -5.9944693452
   23      C      -8.4735226426     1.6457535396    -5.8273485918
   24      H      -8.6035625060     1.5473671431    -6.9013633734
   25      C      -9.1831219640     0.7569163446    -4.9752293256
   26      H      -9.8871571893     0.0056805907    -5.3192776414
   27      C      -9.0654284396     0.9388877361    -3.6058891024
   28      H      -9.5924014442     0.2647878193    -2.9365717228
   29      C      -6.4329222538    -3.3445285889    -1.5010818027
   30      C      -4.4179142956    -2.2294865704    -2.3563105589
   31      C      -1.7100876260    -2.7553684857     1.2369781768
   32      C      -7.6699613614    -1.2321009415     2.9796491289
   33      C      -2.2445688283     0.6050357801     2.3472168966
   34      C      -5.8501756964    -2.3339546312    -2.3175845436
   35      C      -5.3184069398    -0.2052112237     4.2553757100
   36      C      -3.2525435364    -4.2785091187     0.1802050807
   37      C      -4.1655999121     1.5669724226    -1.0623002937
   38      C      -7.3759120625     0.1872011504     2.8865385398
   39      C      -6.5492614442     1.6091100384    -0.9737388945
   40      C      -4.5414995292     2.1075111359     0.1381722704
   41      C      -5.6142147046     1.5793193104     2.6716445020
   42      C      -3.9061347628    -0.1225014061     4.0362584260
   43      C      -5.3178367720    -0.1105378201    -2.3917327306
   44      C      -2.3665081349    -1.7152605641     3.1866313836
   45      C      -7.6730643191     0.6305010304    -0.8499426596
   46      C      -8.0924612536     0.3168558327     0.5488600075
   47      C      -1.8246189756    -0.7234138562     2.3521853116
   48      C      -5.5661897979    -3.8863682424     2.7421511204
   49      C      -3.3391073633    -3.8907756554     2.6584289337
   50      C      -3.8281177074    -4.5536209085     1.4649470302
   51      C      -4.1376619347    -4.1524641294    -0.8994629617
   52      C      -8.3643570827    -1.0970021845     0.5914177942
   53      C      -5.2847698051     1.1207543996    -1.6832102925
   54      C      -3.6249383477    -3.1417120272    -1.6954778556
   55      C      -6.2191467609     0.6504744224     3.5824932168
   56      C      -4.1289406352    -0.8625390751    -2.5232739347
   57      C      -3.7009921653     1.9731508202     1.2977259246
   58      C      -7.6332073413    -3.0709130314     1.8360052857
   59      C      -2.2120074648    -3.3591026837     0.0824222043
   60      C      -5.9236934324     2.0604253844     0.3022239267
   61      C      -6.0783780312    -4.4420461721     0.4694403486
   62      C      -4.2064526176     1.7432770103     2.5873249951
   63      C      -2.9779048145     0.8454261781    -1.1593588958
   64      C      -4.4643389447    -2.3274648637     4.1620250420
   65      C      -5.6179530205    -1.5881257582     4.2865772444
   66      C      -2.1730663028     0.6720034372    -0.0475740592
   67      C      -8.1670989446    -1.7843679408     1.7967690061
   68      C      -7.5434430530     0.8509213041     1.7144165646
   69      C      -6.8027289027    -3.2550986584     2.9152977473
   70      C      -7.4872925312    -0.7237718502    -1.4390944294
   71      C      -2.1586220792    -1.3011514392    -1.1305607619
   72      C      -6.4635393386     1.7566168998     1.5929651100
   73      C      -2.5111828805     1.2236195907     1.1355568715
   74      C      -7.2740856425    -3.6427974204     0.5668453859
   75      C      -1.4475100580    -1.3659481654     1.1863600563
   76      C      -5.5281707491    -4.1721567522    -0.7762215829
   77      C      -2.2739504816    -2.9574857490     2.5274336359
   78      C      -2.9698096628    -0.3701229978    -1.8316896698
   79      C      -1.6082408833    -0.6723447147    -0.0363360855
   80      C      -6.3630978307    -1.0442289375    -2.2734651686
   81      C      -8.0016303486    -1.6723228204    -0.6463065218
   82      C      -4.4469259990    -3.5110983748     3.4398488164
   83      C      -2.4132965971    -2.6835082407    -1.1132239950
   84      C      -3.3347025429     0.9118685216     3.2322751732
   85      C      -6.8156175686    -2.0836117848     3.6694425526
   86      C      -3.3886770694    -1.3871971666     4.0425169346
   87      C      -7.4924246385    -2.9904527483    -0.6491416664
   88      C      -5.2062065393    -4.5663934674     1.5616581103
   89      O       8.6273432486     7.4620681038     0.0891970778
   90      C       7.8613937905     8.6673172787     0.0053051595
   91      H       7.5821581754     8.9432135345     1.0294217189
   92      H       6.9910067201     8.5222933773    -0.6478260797
   93      H       8.3893911771     9.5434536929    -0.3884469750
   94      O       8.6245457089     7.0549756247    -2.1141272032
   95      C       8.9919834345     6.7590719735    -0.9925454866
   96      C       9.5641467395     5.4232884544    -0.5763213372
   97      H      10.5525790513     5.6153159460    -0.1410019055
   98      H       9.6998555768     4.7692161484    -1.4468249443
   99      C       8.6747274065     4.6578356440     0.4747201677
  100      H       8.6207449123     5.2828315334     1.3745046022
  101      H       7.6778114862     4.6973744790     0.0184468633
  102      C       9.0709294181     3.1783456664     0.7277386892
  103      H       9.3190315914     2.7224615026    -0.2384895141
  104      H      10.0038217386     3.0689754284     1.2939463096
  105      C       7.9215996985     2.3355726775     1.3499443503
  106      C       7.7329420351     2.7039921986     2.8199376641
  107      C       8.5612725267     2.0774360079     3.7955784466
  108      H       9.2620640922     1.2870700763     3.5430534458
  109      C       8.4815744630     2.4897759471     5.1481289976
  110      H       9.0982190302     2.0154045967     5.9064708068
  111      C       7.4933420050     3.3882946913     5.5569060461
  112      H       7.4330044478     3.5842252379     6.6227613834
  113      C       6.6759352277     3.9382653437     4.5622566396
  114      H       5.9038422485     4.6425499478     4.8593250289
  115      C       6.7948548840     3.6353853656     3.2066756445
  116      H       6.1377576112     4.1202240529     2.4902863499
  117      C       5.9148997070    -2.5852209049     2.3379699897
  118      C       3.9162603238    -1.2042553805     2.4054891450
  119      C       2.0188951346    -2.5739011112    -1.4444591548
  120      C       8.3219385338    -1.8548137201    -2.0814357883
  121      C       3.1738171695     0.1873862721    -3.3239556513
  122      C       5.2844925560    -1.3945310027     2.6360444450
  123      C       6.3676426370    -1.2323426126    -4.0656117553
  124      C       3.1595065821    -3.8380326106     0.3086874671
  125      C       4.3207391817     2.0032683385     0.1258649555
  126      C       8.0836728166    -0.5251471270    -2.4005003572
  127      C       6.7013809482     1.9278869321     0.5480194571
  128      C       5.0489020253     2.1699276938    -1.0761922530
  129      C       6.5578892110     0.9964396920    -3.0455638744
  130      C       4.9950578024    -1.0397467531    -4.2244755542
  131      C       5.0035677555     0.7737275697     2.0124331722
  132      C       3.0708539654    -2.2791415222    -3.4267185735
  133      C       7.7158897389     0.9283512848     1.0190782681
  134      C       8.4681739815     0.1584484767    -0.0516378869
  135      C       2.5356354613    -1.0167311050    -3.0194274106
  136      C       5.9851213285    -4.4301630523    -1.6446450302
  137      C       3.7710685021    -4.1569116595    -2.0154128255
  138      C       3.9977304627    -4.4831716043    -0.6837128578
  139      C       3.7673902288    -3.4767062322     1.5028808016
  140      C       8.5286466795    -1.2199326589     0.2751426171
  141      C       5.2755847544     1.7224478007     1.0587179759
  142      C       3.1665503942    -2.2220221702     1.8482999642
  143      C       7.1521900628    -0.2230374538    -3.4459986235
  144      C       3.7526067101     0.1488656417     2.0239672005
  145      C       4.4272763354     1.7799629061    -2.3131991107
  146      C       7.8170265914    -3.3805770639    -0.4620185631
  147      C       2.2042651606    -2.8766884502    -0.0369369416
  148      C       6.4370456286     2.1243218209    -0.8966193120
  149      C       5.9151082605    -4.2466777692     0.7504719443
  150      C       5.2176272204     1.1980957747    -3.3372514140
  151      C       3.0528016657     1.4191580767     0.1647321349
  152      C       5.3398257403    -3.1958473479    -3.6042165001
  153      C       6.6023290350    -2.6005840973    -3.6897214333
  154      C       2.4930810196     0.9710005279    -1.1018951227
  155      C       8.4822639839    -2.1737930704    -0.7302304286
  156      C       8.1695157795     0.4591844202    -1.4023659019
  157      C       7.2621201717    -3.8233923838    -1.6984252348
  158      C       7.3162673735    -0.1445088932     1.9859138299
  159      C       2.0201278391    -0.5446851639     0.5464198268
  160      C       7.2057208607     1.3715549960    -1.8206293201
  161      C       3.1358861943     1.1428691711    -2.3117582047
  162      C       7.1484375633    -3.5680351238     0.6951457239
  163      C       1.8469413045    -1.2173933252    -1.8163563272
  164      C       5.1632492610    -3.6681596085     1.7359605452
  165      C       2.7432220236    -3.2155344715    -2.4195336078
  166      C       2.7685560095     0.4961198488     1.1370992655
  167      C       1.8413479679    -0.2287418085    -0.8450871095
  168      C       5.9996904147    -0.2096663300     2.4731772291
  169      C       7.9428852025    -1.3618232450     1.5707164489
  170      C       5.0391883521    -4.0535138266    -2.5709080408
  171      C       2.2442133029    -1.8547887195     0.9038276869
  172      C       4.4333166927     0.1591506993    -3.9106972498
  173      C       7.5593703702    -2.9204620610    -2.6747362260
  174      C       4.3837747168    -2.2589107710    -3.9064172469
  175      C       7.1850329885    -2.5486420513     1.7395659165
  176      C       5.3418944737    -4.6682336970    -0.4559034345
 ----------------------------------------------------------------

    9   -5804.2847737854      8.33E-06 Convergence criterion met
 Total energy in the final basis set = -5804.2847737854

                    Orbital Energies (a.u.)
 --------------------------------------------------------------

 Alpha MOs
 -- Occupied --
-19.193 -19.189 -19.140 -19.132 -10.320 -10.315 -10.253 -10.248
-10.248 -10.239 -10.237 -10.236 -10.236 -10.233 -10.229 -10.227
-10.224 -10.224 -10.224 -10.224 -10.223 -10.222 -10.221 -10.220
-10.220 -10.220 -10.220 -10.220 -10.220 -10.219 -10.219 -10.218
-10.218 -10.217 -10.217 -10.217 -10.217 -10.217 -10.216 -10.216
-10.216 -10.216 -10.216 -10.216 -10.216 -10.216 -10.215 -10.215
-10.215 -10.215 -10.214 -10.214 -10.214 -10.214 -10.214 -10.214
-10.214 -10.214 -10.213 -10.213 -10.213 -10.213 -10.213 -10.213
-10.213 -10.213 -10.213 -10.213 -10.213 -10.212 -10.212 -10.212
-10.212 -10.212 -10.212 -10.212 -10.212 -10.212 -10.212 -10.212
-10.212 -10.212 -10.212 -10.211 -10.211 -10.211 -10.211 -10.211
-10.211 -10.211 -10.211 -10.211 -10.210 -10.210 -10.210 -10.210
-10.210 -10.210 -10.210 -10.210 -10.210 -10.210 -10.210 -10.210
-10.210 -10.209 -10.209 -10.209 -10.209 -10.209 -10.209 -10.209
-10.209 -10.208 -10.208 -10.208 -10.208 -10.208 -10.208 -10.208
-10.208 -10.207 -10.207 -10.207 -10.206 -10.206 -10.206 -10.206
-10.205 -10.205 -10.205 -10.205 -10.205 -10.204 -10.203 -10.201
-10.201 -10.200 -10.198 -10.198 -10.197 -10.197 -10.197 -10.196
-10.196 -10.195 -10.194 -10.192  -1.102  -1.086  -1.009  -1.007
 -0.982  -0.981  -0.966  -0.963  -0.962  -0.962  -0.960  -0.959
 -0.934  -0.930  -0.926  -0.925  -0.924  -0.923  -0.922  -0.921
 -0.920  -0.919  -0.896  -0.894  -0.888  -0.886  -0.885  -0.885
 -0.873  -0.873  -0.853  -0.852  -0.845  -0.841  -0.839  -0.837
 -0.836  -0.834  -0.820  -0.819  -0.811  -0.804  -0.798  -0.797
 -0.794  -0.793  -0.793  -0.793  -0.791  -0.790  -0.784  -0.781
 -0.770  -0.769  -0.769  -0.768  -0.765  -0.764  -0.764  -0.758
 -0.753  -0.750  -0.744  -0.740  -0.734  -0.731  -0.715  -0.714
 -0.713  -0.713  -0.712  -0.710  -0.710  -0.709  -0.708  -0.708
 -0.707  -0.706  -0.705  -0.705  -0.704  -0.702  -0.675  -0.671
 -0.660  -0.657  -0.656  -0.655  -0.647  -0.644  -0.632  -0.629
 -0.626  -0.624  -0.624  -0.621  -0.621  -0.620  -0.617  -0.616
 -0.615  -0.613  -0.613  -0.611  -0.610  -0.609  -0.609  -0.606
 -0.605  -0.604  -0.602  -0.601  -0.571  -0.566  -0.562  -0.560
 -0.560  -0.559  -0.558  -0.557  -0.556  -0.552  -0.552  -0.550
 -0.533  -0.533  -0.533  -0.532  -0.530  -0.526  -0.524  -0.523
 -0.521  -0.521  -0.518  -0.517  -0.516  -0.514  -0.513  -0.511
 -0.506  -0.505  -0.501  -0.498  -0.491  -0.491  -0.486  -0.485
 -0.484  -0.483  -0.482  -0.481  -0.479  -0.477  -0.476  -0.472
 -0.471  -0.470  -0.470  -0.469  -0.466  -0.465  -0.464  -0.463
 -0.463  -0.463  -0.462  -0.461  -0.460  -0.458  -0.457  -0.455
 -0.455  -0.454  -0.451  -0.450  -0.449  -0.447  -0.444  -0.443
 -0.442  -0.441  -0.439  -0.439  -0.438  -0.437  -0.435  -0.433
 -0.431  -0.430  -0.428  -0.427  -0.426  -0.424  -0.424  -0.422
 -0.421  -0.420  -0.420  -0.420  -0.419  -0.419  -0.417  -0.417
 -0.416  -0.415  -0.415  -0.414  -0.413  -0.413  -0.413  -0.412
 -0.411  -0.409  -0.409  -0.405  -0.398  -0.397  -0.396  -0.395
 -0.395  -0.394  -0.393  -0.391  -0.388  -0.387  -0.386  -0.384
 -0.380  -0.378  -0.374  -0.372  -0.368  -0.368  -0.365  -0.364
 -0.362  -0.361  -0.360  -0.360  -0.359  -0.358  -0.357  -0.356
 -0.356  -0.356  -0.354  -0.354  -0.352  -0.351  -0.350  -0.349
 -0.348  -0.348  -0.348  -0.347  -0.345  -0.344  -0.344  -0.342
 -0.342  -0.339  -0.338  -0.337  -0.335  -0.333  -0.333  -0.333
 -0.332  -0.329  -0.329  -0.327  -0.326  -0.324  -0.322  -0.321
 -0.313  -0.310  -0.300  -0.299  -0.285  -0.285  -0.270  -0.269
 -0.268  -0.267  -0.267  -0.266  -0.266  -0.266  -0.264  -0.263
 -0.262  -0.260  -0.259  -0.259  -0.258  -0.256  -0.255  -0.254
 -0.248  -0.246  -0.244  -0.242  -0.221  -0.219  -0.213  -0.210
 -0.209  -0.207  -0.206  -0.205  -0.200  -0.196

          Ground-State Mulliken Net Atomic Charges

     Atom                 Charge (a.u.)
  ----------------------------------------
      1 O                    -0.493126
      2 C                    -0.088036
      3 H                     0.134063
      4 H                     0.131836
      5 H                     0.129397
      6 O                    -0.453366
      7 C                     0.594198
      8 C                    -0.259092
      9 H                     0.134012
     10 H                     0.145086
     11 C                    -0.176838
     12 H                     0.112634
     13 H                     0.098965
     14 C                    -0.192615
     15 H                     0.096992
     16 H                     0.142103
     17 C                     0.000854
     18 C                     0.088945
     19 C                    -0.098963
     20 H                     0.088310
     21 C                    -0.083748
     22 H                     0.094372
     23 C                    -0.093256
     24 H                     0.087151
     25 C                    -0.082994
     26 H                     0.094568
     27 C                    -0.108818
     28 H                     0.090679
     29 C                    -0.022888
     30 C                     0.037838
     31 C                    -0.003115
     32 C                    -0.023294
     33 C                    -0.028259
     34 C                    -0.034749
     35 C                    -0.014001
     36 C                    -0.012239
     37 C                     0.035297
     38 C                    -0.019235
     39 C                    -0.082105
     40 C                    -0.001046
     41 C                     0.002582
     42 C                     0.027180
     43 C                     0.004722
     44 C                     0.018129
     45 C                    -0.102149
     46 C                     0.025962
     47 C                     0.030533
     48 C                     0.021808
     49 C                    -0.038861
     50 C                    -0.019599
     51 C                     0.013290
     52 C                    -0.018111
     53 C                     0.034888
     54 C                    -0.000981
     55 C                    -0.030775
     56 C                    -0.046305
     57 C                    -0.025303
     58 C                    -0.017021
     59 C                     0.034880
     60 C                     0.027075
     61 C                    -0.030756
     62 C                     0.011670
     63 C                    -0.006566
     64 C                    -0.011663
     65 C                     0.011067
     66 C                    -0.009867
     67 C                     0.020807
     68 C                     0.037784
     69 C                    -0.000382
     70 C                     0.056389
     71 C                     0.024546
     72 C                    -0.015737
     73 C                     0.031963
     74 C                    -0.004825
     75 C                    -0.014723
     76 C                     0.017095
     77 C                    -0.008191
     78 C                    -0.010063
     79 C                    -0.016355
     80 C                     0.013981
     81 C                     0.008772
     82 C                     0.021894
     83 C                    -0.027164
     84 C                    -0.020280
     85 C                    -0.000946
     86 C                    -0.017495
     87 C                     0.007369
     88 C                     0.023118
     89 O                    -0.443427
     90 C                    -0.085214
     91 H                     0.123014
     92 H                     0.132678
     93 H                     0.124973
     94 O                    -0.468955
     95 C                     0.573338
     96 C                    -0.252179
     97 H                     0.122321
     98 H                     0.129648
     99 C                    -0.189723
    100 H                     0.129345
    101 H                     0.112031
    102 C                    -0.178099
    103 H                     0.104054
    104 H                     0.113860
    105 C                     0.010432
    106 C                     0.080404
    107 C                    -0.102951
    108 H                     0.091219
    109 C                    -0.098617
    110 H                     0.087834
    111 C                    -0.071367
    112 H                     0.092979
    113 C                    -0.104587
    114 H                     0.083361
    115 C                    -0.091475
    116 H                     0.095076
    117 C                    -0.011471
    118 C                     0.007966
    119 C                     0.002416
    120 C                    -0.023973
    121 C                     0.002451
    122 C                     0.007081
    123 C                    -0.015620
    124 C                    -0.004953
    125 C                     0.023011
    126 C                    -0.017968
    127 C                    -0.077597
    128 C                     0.008008
    129 C                     0.004533
    130 C                     0.031449
    131 C                    -0.012904
    132 C                    -0.028527
    133 C                    -0.081816
    134 C                     0.003703
    135 C                    -0.002982
    136 C                     0.000238
    137 C                    -0.008171
    138 C                    -0.010679
    139 C                    -0.006207
    140 C                     0.018868
    141 C                     0.030445
    142 C                    -0.014992
    143 C                    -0.004970
    144 C                     0.009529
    145 C                    -0.030626
    146 C                    -0.013950
    147 C                    -0.006569
    148 C                     0.004368
    149 C                     0.014872
    150 C                    -0.010273
    151 C                    -0.021082
    152 C                     0.005434
    153 C                    -0.025494
    154 C                     0.003194
    155 C                     0.016467
    156 C                     0.042209
    157 C                    -0.006324
    158 C                     0.038966
    159 C                     0.000331
    160 C                    -0.007522
    161 C                     0.005019
    162 C                     0.014714
    163 C                     0.014082
    164 C                    -0.017139
    165 C                    -0.016408
    166 C                    -0.009242
    167 C                    -0.006832
    168 C                     0.004214
    169 C                    -0.034464
    170 C                     0.021071
    171 C                     0.036171
    172 C                     0.004463
    173 C                     0.005978
    174 C                     0.020471
    175 C                    -0.003530
    176 C                     0.011686
  ----------------------------------------
  Sum of atomic charges =     0.000000

                    Cartesian Multipole Moments
 -----------------------------------------------------------------
    Charge (ESU x 10^10)
                 0.0000
    Dipole Moment (Debye)
         X      -0.3939      Y       4.2343      Z       2.6776
       Tot       5.0253
    Quadrupole Moments (Debye-Ang)
        XX    -768.7831     XY     -19.4812     YY    -777.2732
        XZ      29.3245     YZ      21.3134     ZZ    -804.8220

 Total job time:  834.65s(wall), 7970.75s(cpu)
        *  Thank you very much for using Q-Chem.  Have a nice day.  *
