 Q-Chem 4.4, Q-Chem, Inc., Pleasanton, CA (2016)
 Q-Chem 4.4.2 for Intel X86 Linux

User input:
--------------------------------------------------------------
$comment
SP
$end

$rem
MEM_STATIC 5000
MEM_TOTAL 20000
JOBTYPE SP
EXCHANGE B3LYP
BASIS 6-31g(d,p)
$end

$molecule
0 1
O           3.305000    -18.859000     -1.235000
C           3.402000    -19.913000     -2.242000
H           4.198000    -19.639000     -2.946000
H           2.508000    -19.978000     -2.874000
H           3.544000    -20.908000     -1.801000
O           3.255000    -17.123000     -2.689000
C           3.323000    -17.522000     -1.597000
C           3.349000    -16.553000     -0.416000
H           4.129000    -15.820000     -0.656000
H           3.663000    -17.054000      0.508000
C           2.057000    -15.749000     -0.277000
H           2.267000    -15.138000      0.610000
H           1.862000    -15.035000     -1.086000
C           0.851000    -16.681000      0.049000
H           0.339000    -16.991000     -0.871000
H           1.298000    -17.550000      0.549000
C          -0.323000    -16.033000      0.791000
C          -1.169000    -15.129000     -0.055000
C          -2.382000    -15.543000     -0.728000
H          -2.741000    -16.568000     -0.752000
C          -3.147000    -14.548000     -1.441000
H          -4.108000    -14.867000     -1.834000
C          -2.697000    -13.258000     -1.580000
H          -3.342000    -12.526000     -2.056000
C          -1.495000    -12.881000     -0.934000
H          -1.177000    -11.847000     -1.033000
C          -0.802000    -13.752000     -0.116000
H           0.024000    -13.350000      0.463000
C          -1.338000    -13.134000      5.440000
C          -3.374000    -14.428000      5.092000
C          -2.860000    -17.442000      8.560000
C           2.634000    -16.308000      5.439000
C          -1.608000    -19.882000      6.465000
C          -2.277000    -13.707000      4.558000
C           1.795000    -18.715000      6.518000
C          -2.369000    -15.044000      8.356000
C          -2.664000    -17.843000      3.170000
C           2.387000    -17.347000      4.567000
C          -0.895000    -16.722000      2.042000
C          -1.535000    -18.734000      3.147000
C           0.956000    -19.051000      4.247000
C           0.684000    -19.462000      7.030000
C          -2.719000    -15.495000      3.202000
C          -1.079000    -18.877000      8.657000
C          -0.001000    -15.522000      2.157000
C           1.311000    -15.755000      2.912000
C          -2.028000    -19.398000      7.750000
C           1.053000    -15.301000      8.485000
C          -0.720000    -16.463000      9.264000
C          -1.106000    -15.166000      9.005000
C          -2.527000    -14.109000      7.311000
C           1.524000    -14.773000      3.905000
C          -2.359000    -16.644000      2.509000
C          -3.502000    -14.639000      6.486000
C           1.916000    -18.545000      5.103000
C          -3.653000    -15.516000      4.287000
C          -1.364000    -19.590000      4.229000
C           1.763000    -14.375000      6.301000
C          -3.280000    -16.133000      8.258000
C          -0.444000    -17.995000      2.622000
C          -0.160000    -13.551000      7.386000
C          -0.097000    -19.843000      4.795000
C          -3.582000    -17.900000      4.203000
C           1.142000    -17.806000      8.467000
C           2.073000    -17.680000      7.397000
C          -3.401000    -18.808000      5.263000
C           2.189000    -15.008000      5.110000
C           1.664000    -17.071000      3.395000
C           1.925000    -15.248000      7.367000
C          -0.545000    -14.367000      3.007000
C          -4.154000    -16.921000      6.165000
C           0.739000    -18.100000      3.213000
C          -2.313000    -19.632000      5.316000
C           0.677000    -13.564000      6.331000
C          -3.175000    -18.536000      7.708000
C          -1.453000    -13.333000      6.816000
C          -1.582000    -17.615000      9.155000
C          -4.115000    -16.753000      4.790000
C          -3.805000    -18.266000      6.485000
C          -1.866000    -14.393000      3.432000
C           0.411000    -13.884000      3.930000
C           0.630000    -16.535000      8.949000
C          -3.943000    -15.860000      7.046000
C          -0.270000    -20.046000      6.110000
C           2.483000    -16.450000      6.862000
C           0.304000    -18.898000      8.244000
C          -0.007000    -13.374000      5.139000
C          -0.009000    -14.424000      8.511000
O           1.350000     -8.223000      0.763000
C           1.343000     -7.481000     -0.460000
H           1.911000     -6.560000     -0.281000
H           0.312000     -7.288000     -0.784000
H           1.841000     -7.958000     -1.312000
O          -0.181000     -9.723000      0.110000
C           0.610000     -9.326000      0.945000
C           0.635000     -9.735000      2.400000
H           1.631000    -10.147000      2.604000
H          -0.103000    -10.523000      2.596000
C           0.353000     -8.545000      3.393000
H           1.149000     -7.804000      3.250000
H          -0.557000     -8.096000      2.976000
C           0.099000     -8.957000      4.868000
H          -0.535000     -9.852000      4.867000
H           1.003000     -9.301000      5.385000
C          -0.649000     -7.867000      5.687000
C           0.292000     -6.707000      6.005000
C           1.145000     -6.808000      7.142000
H           1.091000     -7.640000      7.838000
C           2.105000     -5.796000      7.387000
H           2.756000     -5.852000      8.255000
C           2.116000     -4.630000      6.618000
H           2.816000     -3.859000      6.924000
C           1.224000     -4.564000      5.541000
H           1.220000     -3.667000      4.928000
C           0.337000     -5.586000      5.206000
H          -0.310000     -5.471000      4.341000
C          -3.569000     -6.687000     10.080000
C          -4.207000     -4.903000      8.558000
C          -8.411000     -6.252000      7.661000
C          -4.372000    -11.182000      7.842000
C          -7.563000     -7.792000      4.595000
C          -3.261000     -5.801000      9.068000
C          -6.576000    -10.902000      6.051000
C          -7.167000     -6.203000      9.764000
C          -3.891000     -6.062000      4.789000
C          -4.123000    -10.958000      6.495000
C          -2.117000     -7.562000      5.463000
C          -4.076000     -7.345000      4.221000
C          -4.825000     -9.957000      4.607000
C          -7.480000     -9.954000      5.571000
C          -2.848000     -5.582000      6.843000
C          -8.804000     -8.254000      6.681000
C          -1.619000     -8.198000      6.727000
C          -2.130000     -9.593000      7.040000
C          -8.335000     -7.354000      5.673000
C          -6.787000     -9.666000      9.880000
C          -8.332000     -8.218000      9.086000
C          -7.518000     -7.587000     10.019000
C          -5.879000     -5.811000     10.101000
C          -2.512000     -9.690000      8.402000
C          -2.826000     -6.218000      5.627000
C          -5.494000     -4.904000      9.060000
C          -5.232000    -10.888000      5.591000
C          -3.937000     -4.770000      7.175000
C          -5.412000     -7.760000      3.887000
C          -4.399000    -10.054000      9.825000
C          -7.567000     -5.537000      8.601000
C          -3.083000     -8.263000      4.585000
C          -5.287000     -8.031000     10.803000
C          -5.785000     -9.117000      4.064000
C          -4.956000     -5.212000      5.095000
C          -7.848000    -10.220000      7.795000
C          -6.810000    -11.094000      7.457000
C          -6.296000     -5.703000      4.809000
C          -3.586000    -10.488000      8.766000
C          -3.014000    -10.188000      6.108000
C          -5.715000    -10.528000      9.549000
C          -1.772000     -7.483000      8.035000
C          -6.280000     -4.578000      6.802000
C          -3.486000     -9.572000      4.953000
C          -6.539000     -6.927000      4.218000
C          -4.212000     -8.848000     10.401000
C          -8.139000     -6.106000      6.278000
C          -4.914000     -6.728000     10.618000
C          -8.824000     -7.540000      7.901000
C          -4.963000     -4.550000      6.295000
C          -7.104000     -5.285000      5.859000
C          -2.361000     -6.208000      8.085000
C          -2.166000     -8.447000      9.016000
C          -7.799000     -9.494000      8.963000
C          -6.506000     -4.763000      8.147000
C          -7.114000     -9.107000      4.571000
C          -5.711000    -11.206000      8.367000
C          -8.233000     -9.530000      6.673000
C          -3.091000     -8.005000      9.996000
C          -6.587000     -8.468000     10.519000
$end

--------------------------------------------------------------

             Standard Nuclear Orientation (Angstroms)
    I     Atom           X                Y                Z
 ----------------------------------------------------------------
    1      O     -10.2350787019    -3.8619053301    -0.5985497976
    2      C     -11.4931242780    -4.1293345607    -1.2914978010
    3      H     -11.8436369763    -5.1242612654    -0.9888929424
    4      H     -11.3675548007    -4.2179033155    -2.3774411153
    5      H     -12.2417214371    -3.3434646141    -1.1281554597
    6      O      -9.2418740013    -5.8331897601    -1.1063825641
    7      C      -9.2437279410    -4.8263537363    -0.5210905139
    8      C      -8.0527565012    -4.4326144089     0.3512364728
    9      H      -7.8584024466    -5.3022460163     0.9909679546
   10      H      -8.3027698191    -3.6003467969     1.0207116127
   11      C      -6.7710847207    -4.2180444339    -0.4526778093
   12      H      -6.0572894064    -3.9392626358     0.3327946334
   13      H      -6.3565137639    -5.1192520460    -0.9198584613
   14      C      -6.9179988044    -3.0104255213    -1.4270539246
   15      H      -7.2592615522    -3.3465331303    -2.4145838797
   16      H      -7.6744118468    -2.3664220064    -0.9600755718
   17      C      -5.6185430813    -2.3049977908    -1.8302046913
   18      C      -4.7736873963    -3.0698069893    -2.8048501455
   19      C      -4.8148994796    -2.8834673172    -4.2398669018
   20      H      -5.5244600784    -2.2348112379    -4.7456841093
   21      C      -3.8850920477    -3.6260449619    -5.0569688423
   22      H      -3.8637787663    -3.3763676647    -6.1138217134
   23      C      -3.0473442186    -4.5703838923    -4.5162992950
   24      H      -2.3114259923    -5.0467460470    -5.1565558543
   25      C      -3.0412556578    -4.7539746813    -3.1125520415
   26      H      -2.3470512779    -5.4843183632    -2.7066464056
   27      C      -3.8011341904    -3.9658493385    -2.2702593016
   28      H      -3.6325687264    -4.0621537987    -1.2018810281
   29      C      -1.2099598392     0.1605572291     0.5220408829
   30      C      -1.5216858134     1.3734231372    -1.5690399873
   31      C      -3.1195268895     5.3421343084     0.1835727866
   32      C      -5.5967938309     0.1833466004     3.0922994642
   33      C      -6.4010947672     4.4900848972    -0.4609837003
   34      C      -1.5728172069     0.1589652810    -0.8404223263
   35      C      -6.8887115842     2.5686012716     2.5415548118
   36      C      -1.3937402819     3.7668186332     0.9406342825
   37      C      -5.3260099168     1.3678764833    -2.7469603372
   38      C      -6.6477545197     0.1491091774     2.2005464550
   39      C      -5.5317491143    -0.7722937976    -1.7292528392
   40      C      -6.5710917365     1.3513747613    -2.0268562090
   41      C      -7.5568597544     1.3494016033     0.5312343917
   42      C      -6.8605336497     3.7852063225     1.7842225504
   43      C      -3.3261184949     0.2168533470    -2.3079466243
   44      C      -5.0641420533     5.4325046698     1.3881059171
   45      C      -4.8785533054    -1.6558319539    -0.7069238503
   46      C      -5.3948483094    -1.4895919528     0.7253686237
   47      C      -5.3874005319     5.3893923914     0.0139384282
   48      C      -3.0563821281     2.6217395678     3.7186173683
   49      C      -2.9988279672     4.5189494564     2.4947316885
   50      C      -1.8308994398     3.8154965213     2.2962803771
   51      C      -0.8884764424     2.5585246023     0.4153267656
   52      C      -4.3367092058    -1.3205888768     1.6459779859
   53      C      -4.6742014753     0.1311049664    -2.6325532987
   54      C      -1.1807822113     2.5928193300    -0.9357954380
   55      C      -7.2678412438     1.3569515803     1.8828198675
   56      C      -2.5775307708     1.4279916967    -2.4588847481
   57      C      -7.0036353361     2.5423039684    -1.4547594880
   58      C      -3.3139621699     0.2030358408     3.2549830265
   59      C      -1.9409913442     4.6135067788    -0.0638961844
   60      C      -6.6015623681     0.1369928048    -1.2944799367
   61      C      -1.4273838528     1.3804158776     2.4747724764
   62      C      -7.5796813672     2.5930477387    -0.1681942779
   63      C      -4.6317484488     2.5513936136    -2.9211734720
   64      C      -5.1978559322     3.8498259810     3.2836878242
   65      C      -5.8522804927     2.5977538040     3.4613975823
   66      C      -5.1194600456     3.7480913263    -2.3636100380
   67      C      -4.4238481497    -0.5511893287     2.8078325982
   68      C      -6.4901073603    -0.5928047802     1.0185142842
   69      C      -3.7621159079     1.3940784122     3.8075269797
   70      C      -3.3933099448    -1.3798228908    -0.4417217448
   71      C      -2.9132695281     3.7742783790    -2.0926494533
   72      C      -7.0088655450     0.1650095758    -0.0322936657
   73      C      -6.2654302607     3.7716974211    -1.6208287657
   74      C      -2.1522499081     0.2483925972     2.5575703900
   75      C      -4.1802853562     5.3784685551    -0.7627021723
   76      C      -0.8706359654     1.3549205796     1.1580892269
   77      C      -3.6237947282     5.3697210484     1.5110481795
   78      C      -3.2451124835     2.6270069071    -2.7955138944
   79      C      -4.0850553763     4.5634712427    -1.8994693568
   80      C      -2.6990014645    -0.5127624980    -1.2738779858
   81      C      -3.0996068179    -1.3079714155     0.9394841916
   82      C      -3.7513560473     3.7738960254     3.3922314788
   83      C      -1.8252351700     3.8185997325    -1.2205142268
   84      C      -7.2386537023     3.7663425085     0.3862807125
   85      C      -5.1785125585     1.3988500178     3.7368816696
   86      C      -5.8208162906     4.5736426895     2.2675939484
   87      C      -2.0901964502    -0.4805382798     1.3787450659
   88      C      -1.8512029647     2.6207559934     3.0513908576
   89      O       0.1807810649    -6.9811821327     1.0502384080
   90      C       0.3997753730    -8.2870904508     0.5089557114
   91      H       0.9826120041    -8.8487370746     1.2490641707
   92      H       0.9029877107    -8.2179285320    -0.4642760041
   93      H      -0.4985936051    -8.8919194307     0.3399820911
   94      O      -0.6243301464    -6.0980728741    -0.8450937462
   95      C      -0.3599055996    -5.9830380676     0.3370067793
   96      C      -0.2311570788    -4.6777075873     1.0883170718
   97      H      -0.9421869445    -4.7124073179     1.9229478037
   98      H      -0.5044136653    -3.8303635892     0.4469568089
   99      C       1.2166528085    -4.4159903551     1.6513655783
  100      H       1.4428671737    -5.2223417808     2.3597231428
  101      H       1.8506423683    -4.5967219777     0.7744486389
  102      C       1.4710180404    -2.9818701112     2.1884712055
  103      H       0.9976505235    -2.2715770927     1.4997121607
  104      H       0.9606550218    -2.7762099622     3.1371937636
  105      C       2.9804263091    -2.6143664977     2.2591307591
  106      C       3.6469181541    -3.3419628382     3.4247195313
  107      C       3.5675425439    -2.7681284836     4.7266383637
  108      H       3.1252081472    -1.7927004827     4.9067397142
  109      C       4.0776982356    -3.4834063600     5.8374433555
  110      H       4.0348501869    -3.0560205332     6.8353744151
  111      C       4.7941440074    -4.6674311403     5.6481584492
  112      H       5.2360112089    -5.1089846409     6.5357737276
  113      C       4.8810833749    -5.1621128936     4.3413759465
  114      H       5.4305775126    -6.0842611698     4.1737670287
  115      C       4.3009532159    -4.5395128363     3.2371585009
  116      H       4.3924376482    -4.9963123456     2.2558207370
  117      C       6.6949732402     1.2981722652     2.5929428699
  118      C       7.9618997902    -0.5131771558     1.5829456463
  119      C       8.3664264479     1.1807940569    -2.5721531147
  120      C       2.5408841403     2.2106591384    -0.1944195853
  121      C       5.6924708931    -0.7066162111    -3.9058338003
  122      C       6.9672143732    -0.0471753484     2.4517743041
  123      C       3.1417965640     1.5906149256    -2.9143729734
  124      C       8.5623218330     2.2559188504    -0.3862259255
  125      C       5.6056598112    -2.9159980962    -0.4962567705
  126      C       2.1737363024     0.9717913834    -0.7013664769
  127      C       3.8008220017    -2.3507565938     1.0118594469
  128      C       4.4241663006    -2.6194516717    -1.2167228020
  129      C       2.6919021130    -0.6929425751    -2.1224625467
  130      C       4.1699803322     1.1050668332    -3.7227053238
  131      C       6.2336163050    -2.0172299881     1.5858218855
  132      C       6.5372151055     1.6141558640    -3.8327229895
  133      C       3.4703068766    -1.2649046313     1.9926149046
  134      C       2.6288751471    -0.1101615310     1.4791209739
  135      C       6.7523852186     0.2000536043    -3.8391744542
  136      C       5.5366362678     3.9576394402    -0.7018188520
  137      C       7.1584697940     3.2356697986    -2.1027402809
  138      C       7.6412055240     3.2966768878    -0.8010143688
  139      C       8.4411547657     1.7950914496     0.9172822826
  140      C       3.1652148724     1.1287605846     1.9124668987
  141      C       5.2888771099    -2.6266959288     0.7986401274
  142      C       8.6878340051     0.3860512827     0.8261221986
  143      C       2.4158333982     0.6938139063    -2.0856043605
  144      C       7.4975118746    -1.7414539314     1.0547808741
  145      C       4.5479792030    -2.1253357310    -2.5617866675
  146      C       4.1536926065     3.1546581322     1.1144412749
  147      C       8.9087264367     1.1922388754    -1.2256982368
  148      C       3.3439085476    -2.2731841315    -0.3954975115
  149      C       6.5576859544     3.2235141532     1.3460267478
  150      C       3.6332053779    -1.1488450072    -3.0324900935
  151      C       6.8822978631    -2.6890175916    -1.0149437041
  152      C       4.8443096808     3.0802582740    -2.8303742744
  153      C       3.5487410607     2.8520190094    -2.3560613096
  154      C       6.9601390639    -2.1180236324    -2.3515003419
  155      C       3.0855650566     2.2439356496     1.0922129859
  156      C       2.2070881746    -0.1606555618     0.1286947069
  157      C       4.2386240000     3.7149506721    -0.1938274009
  158      C       4.5686965202    -0.5731359472     2.7412765627
  159      C       8.5550228124    -1.1821566800    -1.0030090085
  160      C       2.5456470165    -1.1638355367    -0.7742299016
  161      C       5.8456698254    -1.8457693276    -3.1198374489
  162      C       5.2725141239     2.9026630329     1.8257203215
  163      C       7.9120488947    -0.0549157669    -3.0961295174
  164      C       7.4246102686     2.2684773863     1.8015594112
  165      C       7.5476964388     2.1860822187    -3.0262344775
  166      C       7.8369672344    -2.1110061756    -0.2194550528
  167      C       8.0097153989    -1.2079954268    -2.3334398350
  168      C       5.9089742075    -0.9487952120     2.5474162062
  169      C       4.2583507332     0.8229473270     2.7803915736
  170      C       5.8175609003     3.5787991932    -1.9949462309
  171      C       8.9441358357     0.0260633847    -0.4709175406
  172      C       4.3882938962    -0.2345558773    -3.8181787828
  173      C       3.2778313162     3.1599960571    -0.9848563473
  174      C       5.2178520914     2.0295023470    -3.6301161386
  175      C       5.3557803990     1.7144755521     2.6698721075
  176      C       6.6639693872     3.7524261134     0.0535171849
 ----------------------------------------------------------------

    9   -5804.2943870786      7.38E-06 Convergence criterion met
 Total energy in the final basis set = -5804.2943870786

                    Orbital Energies (a.u.)
 --------------------------------------------------------------

 Alpha MOs
 -- Occupied --
-19.200 -19.185 -19.141 -19.136 -10.323 -10.311 -10.252 -10.246
-10.238 -10.237 -10.237 -10.236 -10.234 -10.234 -10.230 -10.229
-10.229 -10.227 -10.224 -10.224 -10.224 -10.222 -10.222 -10.222
-10.222 -10.222 -10.221 -10.221 -10.220 -10.220 -10.220 -10.220
-10.219 -10.219 -10.219 -10.219 -10.218 -10.218 -10.218 -10.218
-10.217 -10.217 -10.217 -10.217 -10.217 -10.217 -10.217 -10.217
-10.217 -10.217 -10.217 -10.216 -10.216 -10.216 -10.216 -10.216
-10.216 -10.215 -10.215 -10.215 -10.215 -10.215 -10.215 -10.215
-10.214 -10.214 -10.214 -10.214 -10.214 -10.214 -10.214 -10.214
-10.214 -10.214 -10.214 -10.213 -10.213 -10.213 -10.213 -10.213
-10.213 -10.213 -10.213 -10.213 -10.213 -10.213 -10.213 -10.212
-10.212 -10.212 -10.212 -10.212 -10.212 -10.212 -10.211 -10.211
-10.211 -10.211 -10.211 -10.211 -10.211 -10.211 -10.210 -10.210
-10.210 -10.210 -10.210 -10.210 -10.210 -10.210 -10.209 -10.209
-10.209 -10.209 -10.209 -10.209 -10.209 -10.209 -10.209 -10.208
-10.208 -10.208 -10.208 -10.207 -10.207 -10.207 -10.206 -10.206
-10.206 -10.206 -10.206 -10.206 -10.205 -10.204 -10.203 -10.202
-10.201 -10.200 -10.198 -10.198 -10.198 -10.197 -10.197 -10.196
-10.192 -10.192 -10.189 -10.186  -1.109  -1.097  -1.020  -1.017
 -0.983  -0.982  -0.967  -0.966  -0.963  -0.961  -0.961  -0.960
 -0.935  -0.934  -0.927  -0.926  -0.924  -0.923  -0.923  -0.922
 -0.921  -0.919  -0.897  -0.895  -0.891  -0.886  -0.886  -0.883
 -0.873  -0.871  -0.854  -0.846  -0.844  -0.842  -0.840  -0.839
 -0.838  -0.836  -0.820  -0.819  -0.807  -0.804  -0.799  -0.796
 -0.794  -0.794  -0.794  -0.793  -0.792  -0.790  -0.785  -0.785
 -0.771  -0.771  -0.770  -0.769  -0.769  -0.765  -0.765  -0.758
 -0.752  -0.746  -0.740  -0.735  -0.733  -0.729  -0.716  -0.715
 -0.714  -0.714  -0.713  -0.712  -0.711  -0.709  -0.709  -0.709
 -0.708  -0.707  -0.707  -0.705  -0.704  -0.702  -0.676  -0.671
 -0.660  -0.658  -0.657  -0.655  -0.646  -0.645  -0.633  -0.630
 -0.627  -0.625  -0.623  -0.623  -0.620  -0.620  -0.618  -0.617
 -0.616  -0.615  -0.614  -0.614  -0.612  -0.610  -0.610  -0.607
 -0.606  -0.603  -0.601  -0.597  -0.577  -0.564  -0.563  -0.561
 -0.561  -0.560  -0.558  -0.557  -0.554  -0.553  -0.552  -0.551
 -0.535  -0.534  -0.533  -0.531  -0.530  -0.527  -0.525  -0.523
 -0.522  -0.521  -0.520  -0.519  -0.517  -0.514  -0.513  -0.512
 -0.508  -0.506  -0.502  -0.500  -0.495  -0.491  -0.488  -0.486
 -0.484  -0.484  -0.483  -0.483  -0.480  -0.479  -0.475  -0.473
 -0.473  -0.471  -0.470  -0.468  -0.467  -0.466  -0.465  -0.465
 -0.464  -0.464  -0.463  -0.462  -0.462  -0.461  -0.459  -0.457
 -0.457  -0.453  -0.451  -0.451  -0.450  -0.445  -0.445  -0.443
 -0.442  -0.440  -0.440  -0.438  -0.438  -0.436  -0.434  -0.432
 -0.431  -0.429  -0.428  -0.427  -0.425  -0.424  -0.424  -0.423
 -0.422  -0.421  -0.421  -0.421  -0.420  -0.419  -0.419  -0.418
 -0.417  -0.417  -0.416  -0.415  -0.414  -0.414  -0.413  -0.412
 -0.410  -0.410  -0.409  -0.408  -0.400  -0.398  -0.398  -0.396
 -0.395  -0.393  -0.392  -0.391  -0.389  -0.389  -0.387  -0.385
 -0.383  -0.375  -0.373  -0.370  -0.369  -0.366  -0.366  -0.365
 -0.362  -0.362  -0.361  -0.360  -0.360  -0.359  -0.358  -0.358
 -0.357  -0.355  -0.354  -0.353  -0.352  -0.351  -0.351  -0.350
 -0.349  -0.348  -0.347  -0.346  -0.346  -0.345  -0.344  -0.343
 -0.343  -0.342  -0.339  -0.338  -0.337  -0.337  -0.335  -0.334
 -0.333  -0.332  -0.329  -0.329  -0.328  -0.326  -0.323  -0.322
 -0.314  -0.306  -0.305  -0.298  -0.286  -0.285  -0.274  -0.270
 -0.269  -0.269  -0.268  -0.267  -0.267  -0.266  -0.265  -0.264
 -0.263  -0.262  -0.260  -0.260  -0.258  -0.256  -0.254  -0.250
 -0.248  -0.247  -0.245  -0.241  -0.222  -0.219  -0.214  -0.212
 -0.210  -0.208  -0.207  -0.205  -0.203  -0.200

          Ground-State Mulliken Net Atomic Charges

     Atom                 Charge (a.u.)
  ----------------------------------------
      1 O                    -0.490784
      2 C                    -0.087969
      3 H                     0.128020
      4 H                     0.124697
      5 H                     0.128450
      6 O                    -0.426347
      7 C                     0.590913
      8 C                    -0.264930
      9 H                     0.129737
     10 H                     0.120400
     11 C                    -0.179438
     12 H                     0.105939
     13 H                     0.127700
     14 C                    -0.191217
     15 H                     0.119121
     16 H                     0.118745
     17 C                     0.002075
     18 C                     0.068672
     19 C                    -0.113164
     20 H                     0.092119
     21 C                    -0.089463
     22 H                     0.087232
     23 C                    -0.075917
     24 H                     0.093079
     25 C                    -0.109233
     26 H                     0.123956
     27 C                    -0.099369
     28 H                     0.093064
     29 C                    -0.021007
     30 C                    -0.005326
     31 C                     0.011371
     32 C                    -0.011678
     33 C                     0.030800
     34 C                    -0.018827
     35 C                     0.008527
     36 C                    -0.015627
     37 C                     0.013605
     38 C                    -0.019821
     39 C                    -0.105387
     40 C                    -0.000358
     41 C                    -0.011958
     42 C                    -0.019181
     43 C                     0.032351
     44 C                    -0.031564
     45 C                    -0.056038
     46 C                     0.002579
     47 C                    -0.009912
     48 C                     0.012794
     49 C                     0.021254
     50 C                    -0.025650
     51 C                     0.037406
     52 C                    -0.010324
     53 C                    -0.011763
     54 C                    -0.004243
     55 C                    -0.000381
     56 C                    -0.013011
     57 C                    -0.032146
     58 C                    -0.016164
     59 C                    -0.003458
     60 C                     0.042553
     61 C                     0.001673
     62 C                     0.002694
     63 C                     0.018067
     64 C                    -0.020635
     65 C                    -0.003750
     66 C                    -0.016699
     67 C                     0.014212
     68 C                    -0.002185
     69 C                    -0.003460
     70 C                     0.003957
     71 C                     0.013980
     72 C                     0.035493
     73 C                     0.008375
     74 C                     0.026867
     75 C                    -0.009965
     76 C                    -0.020183
     77 C                     0.001002
     78 C                    -0.017031
     79 C                     0.010909
     80 C                     0.048512
     81 C                    -0.003966
     82 C                     0.003451
     83 C                    -0.009798
     84 C                    -0.009608
     85 C                    -0.002335
     86 C                     0.027029
     87 C                     0.015422
     88 C                    -0.019973
     89 O                    -0.441204
     90 C                    -0.087066
     91 H                     0.125843
     92 H                     0.133359
     93 H                     0.126384
     94 O                    -0.469985
     95 C                     0.575469
     96 C                    -0.255806
     97 H                     0.123843
     98 H                     0.133348
     99 C                    -0.190045
    100 H                     0.129765
    101 H                     0.112108
    102 C                    -0.182128
    103 H                     0.108275
    104 H                     0.115127
    105 C                     0.010523
    106 C                     0.079681
    107 C                    -0.102854
    108 H                     0.092143
    109 C                    -0.098893
    110 H                     0.088385
    111 C                    -0.071379
    112 H                     0.093163
    113 C                    -0.104750
    114 H                     0.083119
    115 C                    -0.091379
    116 H                     0.094332
    117 C                    -0.011530
    118 C                     0.007918
    119 C                     0.002070
    120 C                    -0.016585
    121 C                     0.002099
    122 C                     0.007449
    123 C                    -0.015447
    124 C                    -0.004183
    125 C                     0.022505
    126 C                    -0.020619
    127 C                    -0.077698
    128 C                     0.008114
    129 C                     0.005836
    130 C                     0.031625
    131 C                    -0.013736
    132 C                    -0.028748
    133 C                    -0.082709
    134 C                     0.003655
    135 C                    -0.003141
    136 C                     0.000682
    137 C                    -0.007744
    138 C                    -0.011642
    139 C                    -0.006414
    140 C                     0.019310
    141 C                     0.030510
    142 C                    -0.012084
    143 C                    -0.004100
    144 C                     0.009600
    145 C                    -0.031744
    146 C                    -0.014320
    147 C                    -0.007789
    148 C                     0.002664
    149 C                     0.015446
    150 C                    -0.009865
    151 C                    -0.021121
    152 C                     0.005965
    153 C                    -0.025051
    154 C                     0.006094
    155 C                     0.017873
    156 C                     0.051686
    157 C                    -0.005333
    158 C                     0.039454
    159 C                    -0.004542
    160 C                    -0.009693
    161 C                     0.005166
    162 C                     0.014179
    163 C                     0.011438
    164 C                    -0.016945
    165 C                    -0.016626
    166 C                    -0.007204
    167 C                    -0.011244
    168 C                     0.004065
    169 C                    -0.034288
    170 C                     0.019370
    171 C                     0.034580
    172 C                     0.003709
    173 C                     0.003869
    174 C                     0.019748
    175 C                    -0.003721
    176 C                     0.012251
  ----------------------------------------
  Sum of atomic charges =     0.000000

                    Cartesian Multipole Moments
 -----------------------------------------------------------------
    Charge (ESU x 10^10)
                 0.0000
    Dipole Moment (Debye)
         X      -0.4474      Y      -3.6222      Z       2.2657
       Tot       4.2958
    Quadrupole Moments (Debye-Ang)
        XX    -798.7237     XY     -11.0005     YY    -797.2622
        XZ      11.0207     YZ     -16.9608     ZZ    -795.7300

 Total job time:  851.60s(wall), 8151.92s(cpu)
        *  Thank you very much for using Q-Chem.  Have a nice day.  *
