 Q-Chem 4.4, Q-Chem, Inc., Pleasanton, CA (2016)
 Q-Chem 4.4.2 for Intel X86 Linux

User input:
--------------------------------------------------------------
$comment
SP
$end

$rem
MEM_STATIC 5000
MEM_TOTAL 20000
JOBTYPE SP
EXCHANGE B3LYP
BASIS 6-31g(d,p)
$end

$molecule
0 1
O         -19.233000     -5.232000     11.570000
C         -20.647000     -4.846000     11.346000
H         -20.549000     -3.798000     11.036000
H         -21.268000     -4.886000     12.250000
H         -20.930000     -5.450000     10.476000
O         -19.620000     -7.107000     12.870000
C         -18.865000     -6.323000     12.266000
C         -17.343000     -6.549000     12.247000
H         -17.046000     -7.332000     12.955000
H         -16.871000     -5.566000     12.369000
C         -17.005000     -6.985000     10.822000
H         -17.440000     -6.244000     10.141000
H         -15.918000     -7.038000     10.676000
C         -17.469000     -8.451000     10.572000
H         -16.666000     -9.074000     10.986000
H         -18.364000     -8.658000     11.172000
C         -17.536000     -8.848000      9.135000
C         -18.719000     -8.105000      8.472000
C         -18.427000     -6.967000      7.677000
H         -17.388000     -6.702000      7.505000
C         -19.494000     -6.252000      7.144000
H         -19.235000     -5.323000      6.647000
C         -20.803000     -6.661000      7.393000
H         -21.611000     -6.077000      6.963000
C         -21.120000     -7.801000      8.178000
H         -22.148000     -8.151000      8.166000
C         -20.021000     -8.508000      8.661000
H         -20.270000     -9.374000      9.268000
C         -17.782000    -12.912000      5.490000
C         -16.534000    -11.111000      4.353000
C         -12.412000    -13.189000      4.377000
C         -15.441000    -13.876000      9.877000
C         -11.289000    -11.312000      7.045000
C         -17.474000    -11.525000      5.227000
C         -12.660000    -13.497000      9.644000
C         -14.665000    -14.170000      3.918000
C         -14.461000     -8.819000      6.837000
C         -14.873000    -12.700000     10.427000
C         -16.188000     -9.151000      8.533000
C         -13.853000     -9.100000      8.087000
C         -13.291000    -11.201000      9.949000
C         -11.738000    -13.092000      8.713000
C         -16.629000     -9.529000      5.967000
C         -11.555000    -13.615000      6.326000
C         -17.199000    -10.277000      8.707000
C         -16.842000    -11.387000      9.671000
C         -11.301000    -12.307000      6.049000
C         -14.805000    -15.840000      7.090000
C         -13.195000    -15.185000      5.586000
C         -14.444000    -15.168000      4.900000
C         -15.901000    -13.438000      3.981000
C         -17.332000    -12.618000      9.096000
C         -15.875000     -8.891000      7.056000
C         -15.707000    -12.080000      3.734000
C         -13.494000    -12.511000     10.221000
C         -15.920000     -9.912000      4.825000
C         -12.586000     -9.778000      8.106000
C         -16.691000    -14.863000      8.209000
C         -13.663000    -13.161000      3.685000
C         -14.791000     -9.419000      9.115000
C         -16.642000    -14.783000      5.832000
C         -12.263000    -10.796000      9.072000
C         -13.796000     -9.146000      5.623000
C         -12.681000    -15.063000      7.923000
C         -13.270000    -14.729000      9.184000
C         -12.491000     -9.752000      5.680000
C         -16.640000    -13.839000      9.249000
C         -15.529000    -11.499000     10.212000
C         -15.482000    -15.504000      8.276000
C         -17.869000    -10.953000      7.617000
C         -13.733000    -10.741000      3.976000
C         -14.558000    -10.523000      9.958000
C         -11.895000    -10.051000      6.939000
C         -17.296000    -14.491000      6.995000
C         -11.822000    -12.009000      4.779000
C         -16.931000    -13.816000      4.851000
C         -12.219000    -14.210000      5.304000
C         -14.525000     -9.750000      4.596000
C         -12.480000    -10.775000      4.631000
C         -17.535000    -10.557000      6.263000
C         -17.995000    -12.316000      7.913000
C         -13.416000    -15.662000      6.920000
C         -14.346000    -11.927000      3.614000
C         -11.510000    -11.755000      8.389000
C         -14.706000    -14.913000      9.303000
C         -11.708000    -14.082000      7.644000
C         -17.918000    -13.257000      6.872000
C         -15.389000    -15.448000      5.883000
O           1.350000     -8.223000      0.763000
C           1.343000     -7.481000     -0.460000
H           1.911000     -6.560000     -0.281000
H           0.312000     -7.288000     -0.784000
H           1.841000     -7.958000     -1.312000
O          -0.181000     -9.723000      0.110000
C           0.610000     -9.326000      0.945000
C           0.635000     -9.735000      2.400000
H           1.631000    -10.147000      2.604000
H          -0.103000    -10.523000      2.596000
C           0.353000     -8.545000      3.393000
H           1.149000     -7.804000      3.250000
H          -0.557000     -8.096000      2.976000
C           0.099000     -8.957000      4.868000
H          -0.535000     -9.852000      4.867000
H           1.003000     -9.301000      5.385000
C          -0.649000     -7.867000      5.687000
C           0.292000     -6.707000      6.005000
C           1.145000     -6.808000      7.142000
H           1.091000     -7.640000      7.838000
C           2.105000     -5.796000      7.387000
H           2.756000     -5.852000      8.255000
C           2.116000     -4.630000      6.618000
H           2.816000     -3.859000      6.924000
C           1.224000     -4.564000      5.541000
H           1.220000     -3.667000      4.928000
C           0.337000     -5.586000      5.206000
H          -0.310000     -5.471000      4.341000
C          -3.569000     -6.687000     10.080000
C          -4.207000     -4.903000      8.558000
C          -8.411000     -6.252000      7.661000
C          -4.372000    -11.182000      7.842000
C          -7.563000     -7.792000      4.595000
C          -3.261000     -5.801000      9.068000
C          -6.576000    -10.902000      6.051000
C          -7.167000     -6.203000      9.764000
C          -3.891000     -6.062000      4.789000
C          -4.123000    -10.958000      6.495000
C          -2.117000     -7.562000      5.463000
C          -4.076000     -7.345000      4.221000
C          -4.825000     -9.957000      4.607000
C          -7.480000     -9.954000      5.571000
C          -2.848000     -5.582000      6.843000
C          -8.804000     -8.254000      6.681000
C          -1.619000     -8.198000      6.727000
C          -2.130000     -9.593000      7.040000
C          -8.335000     -7.354000      5.673000
C          -6.787000     -9.666000      9.880000
C          -8.332000     -8.218000      9.086000
C          -7.518000     -7.587000     10.019000
C          -5.879000     -5.811000     10.101000
C          -2.512000     -9.690000      8.402000
C          -2.826000     -6.218000      5.627000
C          -5.494000     -4.904000      9.060000
C          -5.232000    -10.888000      5.591000
C          -3.937000     -4.770000      7.175000
C          -5.412000     -7.760000      3.887000
C          -4.399000    -10.054000      9.825000
C          -7.567000     -5.537000      8.601000
C          -3.083000     -8.263000      4.585000
C          -5.287000     -8.031000     10.803000
C          -5.785000     -9.117000      4.064000
C          -4.956000     -5.212000      5.095000
C          -7.848000    -10.220000      7.795000
C          -6.810000    -11.094000      7.457000
C          -6.296000     -5.703000      4.809000
C          -3.586000    -10.488000      8.766000
C          -3.014000    -10.188000      6.108000
C          -5.715000    -10.528000      9.549000
C          -1.772000     -7.483000      8.035000
C          -6.280000     -4.578000      6.802000
C          -3.486000     -9.572000      4.953000
C          -6.539000     -6.927000      4.218000
C          -4.212000     -8.848000     10.401000
C          -8.139000     -6.106000      6.278000
C          -4.914000     -6.728000     10.618000
C          -8.824000     -7.540000      7.901000
C          -4.963000     -4.550000      6.295000
C          -7.104000     -5.285000      5.859000
C          -2.361000     -6.208000      8.085000
C          -2.166000     -8.447000      9.016000
C          -7.799000     -9.494000      8.963000
C          -6.506000     -4.763000      8.147000
C          -7.114000     -9.107000      4.571000
C          -5.711000    -11.206000      8.367000
C          -8.233000     -9.530000      6.673000
C          -3.091000     -8.005000      9.996000
C          -6.587000     -8.468000     10.519000
$end

--------------------------------------------------------------

             Standard Nuclear Orientation (Angstroms)
    I     Atom           X                Y                Z
 ----------------------------------------------------------------
    1      O       8.9214348644     6.8407905266     0.9054762658
    2      C      10.1746203507     7.1553865290     1.6328850175
    3      H       9.8155836042     7.8288822145     2.4212403792
    4      H      10.9179523311     7.6905919716     1.0283441165
    5      H      10.4442704914     6.1925068849     2.0822808260
    6      O       9.8794692806     6.0774339958    -1.0579011468
    7      C       8.8964576768     6.3096433207    -0.3303958092
    8      C       7.4693638946     5.9786126279    -0.8012917823
    9      H       7.4507078767     5.7127540028    -1.8650272496
   10      H       6.8266810594     6.8107107982    -0.4873994310
   11      C       7.0210427009     4.7832938475     0.0384618248
   12      H       7.1858656729     5.0423406836     1.0909802924
   13      H       5.9595301267     4.5605128027    -0.1325751912
   14      C       7.7374432955     3.4824235979    -0.4321322484
   15      H       7.1525384487     3.1358422274    -1.2935854820
   16      H       8.7351086850     3.7327999143    -0.8140346848
   17      C       7.6707258140     2.3482097661     0.5354289959
   18      C       8.5608967796     2.6855576718     1.7539933325
   19      C       7.9233276584     3.1403939911     2.9367708003
   20      H       6.8381592974     3.1674905279     2.9684789396
   21      C       8.7265600221     3.5182525949     4.0072116653
   22      H       8.2087905034     3.9739401198     4.8447047131
   23      C      10.1141764472     3.4409211510     3.9008937234
   24      H      10.7096475283     3.7469397691     4.7556374259
   25      C      10.7748390216     2.9809959705     2.7311468316
   26      H      11.8396485813     2.7789565675     2.8003471298
   27      C       9.9315577827     2.5784824237     1.6978034245
   28      H      10.4429385042     2.2358839178     0.8025258020
   29      C       8.2112418563    -3.0249112516     1.3721188650
   30      C       6.4605771764    -2.3061741859     2.9571943235
   31      C       2.9119449301    -4.3601196446     0.8363310009
   32      C       6.8025100438    -1.5336788673    -3.2589767566
   33      C       1.8332360648    -1.4097047672    -0.5898251039
   34      C       7.5856502239    -2.0658568336     2.2533973300
   35      C       4.0005572008    -1.6026083100    -3.5350202276
   36      C       5.2256697128    -5.2235139030     1.2239893352
   37      C       4.3497288438     0.7952492205     1.6740960532
   38      C       6.0906287491    -0.3093126638    -3.2115170673
   39      C       6.3409952697     1.6388930829     0.5373058111
   40      C       4.0067125691     1.2202158297     0.3653301397
   41      C       4.1781329622     0.5063010399    -2.4019843928
   42      C       2.8862647458    -1.8810279153    -2.7855505165
   43      C       6.4636459324    -0.0869518069     2.5192586944
   44      C       2.4625507295    -3.6794920675    -1.1759604675
   45      C       7.5785875419     0.9055025925     0.0365296571
   46      C       7.6081296854     0.5117967533    -1.4239387519
   47      C       1.9035159022    -2.7882625672    -0.3126534307
   48      C       6.1811914095    -4.7790980206    -2.2052316858
   49      C       4.2644115766    -5.2389822184    -1.0230292510
   50      C       5.3660536436    -5.5032273867    -0.1584800927
   51      C       6.2775369646    -4.4786474397     1.8613575463
   52      C       8.2523311219    -0.7787111326    -1.4993039004
   53      C       5.7642403590     0.9861465365     1.7976128052
   54      C       5.7705672202    -3.5241329334     2.7415238575
   55      C       4.6875379799    -0.3939330572    -3.2745542171
   56      C       5.6878196067    -1.1113082208     3.0690963519
   57      C       2.9258572390     0.5633212812    -0.3170006506
   58      C       7.9677574557    -3.1768864505    -2.1360518671
   59      C       4.0123370409    -4.6185843566     1.7121061975
   60      C       5.1330263203     1.6254913808    -0.4128459724
   61      C       7.5495718952    -4.4640692366    -0.1797258942
   62      C       2.9694175172     0.2490952175    -1.7216975870
   63      C       3.5940540779    -0.2201896396     2.3227790034
   64      C       4.0903514650    -3.8591198287    -2.9740115326
   65      C       4.7781040264    -2.8180414009    -3.6752605051
   66      C       2.4671417488    -0.7999552788     1.6390755545
   67      C       7.8602971717    -1.7530912495    -2.4427056015
   68      C       6.4427865189     0.6103253593    -2.2372415357
   69      C       6.9424213842    -3.7711070634    -2.8235391787
   70      C       8.2045510060    -0.2067380293     0.7184875302
   71      C       3.6197079789    -2.4659317226     2.7881684897
   72      C       5.2631602346     1.1790783063    -1.7423325392
   73      C       2.1408129046    -0.3835548552     0.3162686250
   74      C       8.2942984784    -3.5071929998    -0.8084700263
   75      C       2.1559123262    -3.2183844707     1.0005244679
   76      C       7.4815235011    -4.2031284544     1.2016684464
   77      C       3.0759880345    -4.6873749422    -0.5071766582
   78      C       4.2714541822    -1.2325027524     3.0063997025
   79      C       2.5131183021    -2.2335450502     1.9386711550
   80      C       7.5975177919    -0.6802301851     1.9469027106
   81      C       8.6541275078    -1.1435927181    -0.2203656325
   82      C       4.7760870343    -4.8531924026    -2.3057141086
   83      C       4.4051830465    -3.5878464307     2.5938869775
   84      C       2.3393253490    -0.9904051656    -1.8624159575
   85      C       6.2222925537    -2.7736131961    -3.5253984610
   86      C       2.9040262465    -3.3006318291    -2.4566580460
   87      C       8.6204286516    -2.5113708663     0.1007859271
   88      C       6.4843125367    -5.0909246234    -0.8776584290
   89      O     -11.9636220241    -3.5668621235     3.1173496981
   90      C     -12.2935063213    -3.6524646358     4.5066626796
   91      H     -13.0075947043    -2.8473248434     4.7181660978
   92      H     -11.3852943802    -3.5866369322     5.1198541534
   93      H     -12.8025886937    -4.5705381539     4.8219611944
   94      O     -10.2687358476    -5.0293738312     3.2111065840
   95      C     -10.9915968993    -4.3009595009     2.5573486292
   96      C     -10.7138501301    -3.8127138296     1.1539941136
   97      H     -11.5605290104    -4.1228063998     0.5292113742
   98      H      -9.8072308846    -4.2811423312     0.7507320614
   99      C     -10.5409546445    -2.2500828212     1.0541718590
  100      H     -11.4859631354    -1.7952244896     1.3754332019
  101      H      -9.8168479723    -2.0381590759     1.8506314332
  102      C      -9.9898977283    -1.7281618816    -0.3000141725
  103      H      -9.1908975108    -2.4051820316    -0.6259349741
  104      H     -10.7151573067    -1.7968601872    -1.1198434760
  105      C      -9.3716392790    -0.3047052621    -0.2005519069
  106      C     -10.4753325911     0.7418235449    -0.0632801725
  107      C     -11.1094860645     1.2283003353    -1.2430126442
  108      H     -10.7804247483     0.9466995246    -2.2389923797
  109      C     -12.2116212118     2.1105581377    -1.1303703468
  110      H     -12.6999497454     2.4992369218    -2.0196537921
  111      C     -12.5795046097     2.6280319939     0.1137842311
  112      H     -13.3710546873     3.3706722114     0.1104703106
  113      C     -11.8914261711     2.1503982745     1.2355520736
  114      H     -12.1655807208     2.5374513247     2.2130096017
  115      C     -10.8711878068     1.2024160008     1.1729318795
  116      H     -10.3985582360     0.8633896247     2.0903965411
  117      C      -6.1399478680     3.4127172463    -2.4263527779
  118      C      -6.1212659896     4.0667028526    -0.0858105727
  119      C      -1.9102059770     2.8268880210     0.9280231185
  120      C      -4.7616461259    -1.4656924334    -2.8262043812
  121      C      -2.8662765824    -0.2484768308     2.3837428806
  122      C      -6.7728697619     3.5367168827    -1.2065011614
  123      C      -2.9561963104    -2.0565639470    -0.6966694982
  124      C      -2.8096205890     3.9493936469    -1.0477249614
  125      C      -6.7470989150     0.9517743608     2.2708929811
  126      C      -5.2496709052    -2.0684868294    -1.6750932959
  127      C      -8.0493947722    -0.0516303118     0.4964757351
  128      C      -6.3858718391    -0.4044342545     2.0888182953
  129      C      -5.0606946311    -2.2575038333     0.5582695363
  130      C      -2.3511295835    -1.4723547788     0.4163955960
  131      C      -7.5492108760     2.4172221350     0.6137133821
  132      C      -1.2596552230     0.6667766860     0.7448408678
  133      C      -8.2101060858     0.1003951282    -0.9871873464
  134      C      -7.3791620100    -0.8188124924    -1.8645152743
  135      C      -2.0505315281     0.7902042936     1.9302966011
  136      C      -2.4389511048     1.1461141017    -3.0859724747
  137      C      -1.3650840939     2.0185305100    -1.2971560354
  138      C      -2.1442777426     2.9920777234    -1.9105964000
  139      C      -4.0860857075     4.3470746589    -1.4201005972
  140      C      -6.7867643320    -0.0917127843    -2.9278910337
  141      C      -7.6192938111     1.2047810018     1.2530183804
  142      C      -4.8021340468     4.4649772409    -0.1840064435
  143      C      -4.3268771171    -2.4254345033    -0.6392183117
  144      C      -6.6160160177     3.3671162065     1.0407234632
  145      C      -5.0577719159    -0.8149803399     2.4579788374
  146      C      -4.6748444293     0.5850892863    -3.8222775731
  147      C      -2.7348395263     3.8705153962     0.3466605714
  148      C      -7.1005011816    -1.0377877255     1.0643978330
  149      C      -4.0917370139     2.8750654673    -3.3187382674
  150      C      -4.3884030809    -1.7924803099     1.6780133437
  151      C      -5.8488871454     1.9159003775     2.7335350035
  152      C      -1.6086566656    -0.3959062206    -1.4389610996
  153      C      -2.4805408743    -1.3954351210    -1.8820456332
  154      C      -4.4939512881     1.4707124270     3.0241094539
  155      C      -5.5282252002    -0.4431817842    -3.3919220627
  156      C      -6.5396436332    -1.7560986983    -1.2158177614
  157      C      -3.3451571699     0.1573602382    -3.5364670529
  158      C      -8.0161209228     1.4413415251    -1.6272893049
  159      C      -4.4466028096     3.5208901320     2.0080093115
  160      C      -6.3836629773    -1.8649797926     0.1626161116
  161      C      -4.0923624943     0.1549161393     2.9061578958
  162      C      -5.0207874916     1.8826146454    -3.6883658851
  163      C      -2.4095949681     2.1377673990     2.0610334468
  164      C      -4.7510592366     3.8038151980    -2.5611888338
  165      C      -1.2071431984     1.9451713362     0.1435542426
  166      C      -5.8010996661     3.1392204664     2.1175014679
  167      C      -3.6434149820     2.4803341853     2.5912816624
  168      C      -7.7046478028     2.5659330172    -0.8441389545
  169      C      -7.2884493098     1.2435355591    -2.8431263925
  170      C      -1.6330914394     0.8566868670    -2.0082716463
  171      C      -3.9892266031     4.1524378193     0.8738662322
  172      C      -3.0302146155    -1.3786321760     1.5917357991
  173      C      -3.3840326694    -1.0685829549    -2.9428543991
  174      C      -1.5472619318    -0.4332103333    -0.0685421528
  175      C      -6.3402353495     2.2434948694    -3.1783288135
  176      C      -2.7864092578     2.4716706664    -3.0104898549
 ----------------------------------------------------------------

    9   -5804.2947650163      8.77E-06 Convergence criterion met
 Total energy in the final basis set = -5804.2947650163

                    Orbital Energies (a.u.)
 --------------------------------------------------------------

 Alpha MOs
 -- Occupied --
-19.195 -19.193 -19.132 -19.127 -10.315 -10.314 -10.254 -10.248
-10.248 -10.237 -10.237 -10.237 -10.236 -10.235 -10.235 -10.234
-10.229 -10.227 -10.227 -10.227 -10.226 -10.225 -10.224 -10.224
-10.223 -10.223 -10.222 -10.222 -10.221 -10.220 -10.220 -10.220
-10.220 -10.220 -10.220 -10.220 -10.219 -10.219 -10.218 -10.218
-10.218 -10.218 -10.218 -10.218 -10.217 -10.217 -10.217 -10.217
-10.217 -10.217 -10.217 -10.217 -10.217 -10.217 -10.217 -10.216
-10.216 -10.216 -10.216 -10.216 -10.216 -10.216 -10.215 -10.215
-10.215 -10.215 -10.215 -10.215 -10.214 -10.214 -10.214 -10.214
-10.214 -10.214 -10.213 -10.213 -10.213 -10.213 -10.213 -10.213
-10.213 -10.213 -10.213 -10.212 -10.212 -10.212 -10.212 -10.212
-10.212 -10.212 -10.212 -10.212 -10.212 -10.212 -10.212 -10.212
-10.212 -10.211 -10.211 -10.211 -10.211 -10.211 -10.211 -10.211
-10.211 -10.211 -10.211 -10.210 -10.210 -10.210 -10.210 -10.210
-10.209 -10.209 -10.209 -10.209 -10.209 -10.209 -10.209 -10.209
-10.209 -10.208 -10.208 -10.208 -10.208 -10.207 -10.207 -10.207
-10.207 -10.207 -10.206 -10.206 -10.205 -10.204 -10.204 -10.201
-10.201 -10.200 -10.200 -10.200 -10.199 -10.198 -10.198 -10.197
-10.197 -10.196 -10.192 -10.191  -1.102  -1.085  -1.009  -0.994
 -0.983  -0.980  -0.967  -0.963  -0.963  -0.961  -0.959  -0.957
 -0.935  -0.934  -0.926  -0.924  -0.923  -0.923  -0.921  -0.921
 -0.920  -0.918  -0.897  -0.895  -0.886  -0.886  -0.885  -0.884
 -0.873  -0.871  -0.856  -0.854  -0.845  -0.840  -0.839  -0.838
 -0.836  -0.831  -0.820  -0.820  -0.806  -0.804  -0.799  -0.797
 -0.794  -0.794  -0.794  -0.792  -0.789  -0.786  -0.785  -0.781
 -0.770  -0.770  -0.769  -0.767  -0.765  -0.764  -0.764  -0.762
 -0.756  -0.750  -0.745  -0.743  -0.735  -0.732  -0.715  -0.714
 -0.714  -0.713  -0.712  -0.711  -0.710  -0.709  -0.708  -0.707
 -0.707  -0.705  -0.705  -0.704  -0.704  -0.702  -0.676  -0.668
 -0.660  -0.657  -0.656  -0.653  -0.645  -0.643  -0.632  -0.631
 -0.627  -0.625  -0.622  -0.622  -0.621  -0.620  -0.618  -0.617
 -0.615  -0.614  -0.614  -0.613  -0.610  -0.609  -0.608  -0.606
 -0.606  -0.605  -0.603  -0.599  -0.571  -0.564  -0.562  -0.561
 -0.561  -0.560  -0.560  -0.559  -0.557  -0.552  -0.550  -0.549
 -0.538  -0.534  -0.534  -0.533  -0.531  -0.526  -0.525  -0.524
 -0.521  -0.520  -0.519  -0.517  -0.516  -0.513  -0.513  -0.513
 -0.506  -0.505  -0.499  -0.499  -0.491  -0.487  -0.486  -0.485
 -0.485  -0.483  -0.482  -0.482  -0.479  -0.477  -0.476  -0.474
 -0.471  -0.471  -0.469  -0.469  -0.467  -0.465  -0.465  -0.464
 -0.464  -0.463  -0.463  -0.462  -0.462  -0.459  -0.458  -0.457
 -0.455  -0.452  -0.451  -0.450  -0.449  -0.449  -0.444  -0.444
 -0.442  -0.441  -0.440  -0.438  -0.438  -0.434  -0.433  -0.432
 -0.432  -0.431  -0.429  -0.427  -0.426  -0.425  -0.423  -0.422
 -0.422  -0.421  -0.421  -0.420  -0.419  -0.418  -0.418  -0.416
 -0.416  -0.415  -0.415  -0.414  -0.414  -0.413  -0.413  -0.412
 -0.411  -0.410  -0.409  -0.406  -0.397  -0.397  -0.396  -0.395
 -0.394  -0.392  -0.392  -0.391  -0.389  -0.388  -0.386  -0.382
 -0.381  -0.375  -0.373  -0.372  -0.370  -0.368  -0.365  -0.364
 -0.363  -0.362  -0.361  -0.360  -0.359  -0.358  -0.358  -0.357
 -0.356  -0.355  -0.355  -0.353  -0.353  -0.351  -0.351  -0.351
 -0.349  -0.349  -0.349  -0.348  -0.346  -0.346  -0.345  -0.342
 -0.342  -0.341  -0.340  -0.339  -0.339  -0.337  -0.334  -0.333
 -0.333  -0.331  -0.330  -0.329  -0.326  -0.323  -0.322  -0.321
 -0.314  -0.304  -0.299  -0.295  -0.286  -0.284  -0.271  -0.269
 -0.268  -0.267  -0.267  -0.266  -0.265  -0.265  -0.264  -0.262
 -0.261  -0.261  -0.259  -0.259  -0.256  -0.256  -0.255  -0.255
 -0.250  -0.248  -0.246  -0.242  -0.222  -0.221  -0.213  -0.211
 -0.210  -0.208  -0.207  -0.204  -0.200  -0.198

          Ground-State Mulliken Net Atomic Charges

     Atom                 Charge (a.u.)
  ----------------------------------------
      1 O                    -0.469136
      2 C                    -0.092034
      3 H                     0.130217
      4 H                     0.145039
      5 H                     0.146790
      6 O                    -0.496032
      7 C                     0.594613
      8 C                    -0.226755
      9 H                     0.129676
     10 H                     0.120377
     11 C                    -0.204026
     12 H                     0.122882
     13 H                     0.101869
     14 C                    -0.189748
     15 H                     0.096623
     16 H                     0.129302
     17 C                     0.010850
     18 C                     0.100995
     19 C                    -0.102284
     20 H                     0.097823
     21 C                    -0.084182
     22 H                     0.091124
     23 C                    -0.100713
     24 H                     0.084291
     25 C                    -0.092556
     26 H                     0.104107
     27 C                    -0.112556
     28 H                     0.095633
     29 C                    -0.044028
     30 C                    -0.015525
     31 C                    -0.008324
     32 C                     0.023757
     33 C                     0.002375
     34 C                     0.016922
     35 C                     0.007173
     36 C                    -0.023766
     37 C                     0.029824
     38 C                    -0.019526
     39 C                    -0.079726
     40 C                     0.005206
     41 C                    -0.004402
     42 C                     0.005253
     43 C                    -0.012984
     44 C                     0.033653
     45 C                    -0.092125
     46 C                     0.015052
     47 C                     0.006638
     48 C                     0.003459
     49 C                    -0.017650
     50 C                    -0.005816
     51 C                     0.001971
     52 C                    -0.013898
     53 C                    -0.007662
     54 C                     0.015827
     55 C                     0.013113
     56 C                     0.007838
     57 C                    -0.002456
     58 C                    -0.022118
     59 C                    -0.013361
     60 C                     0.008637
     61 C                     0.002487
     62 C                    -0.027012
     63 C                    -0.009623
     64 C                     0.015427
     65 C                    -0.031587
     66 C                    -0.023528
     67 C                     0.000937
     68 C                     0.024108
     69 C                     0.000371
     70 C                     0.044130
     71 C                    -0.003675
     72 C                     0.006375
     73 C                     0.006590
     74 C                     0.003611
     75 C                    -0.017754
     76 C                     0.005791
     77 C                     0.019840
     78 C                    -0.001011
     79 C                     0.002126
     80 C                     0.003077
     81 C                     0.008593
     82 C                     0.000128
     83 C                     0.020433
     84 C                     0.000246
     85 C                    -0.009271
     86 C                    -0.025479
     87 C                     0.017566
     88 C                     0.021059
     89 O                    -0.443507
     90 C                    -0.085378
     91 H                     0.122974
     92 H                     0.132819
     93 H                     0.125198
     94 O                    -0.468309
     95 C                     0.572889
     96 C                    -0.252011
     97 H                     0.122373
     98 H                     0.129722
     99 C                    -0.190132
    100 H                     0.129402
    101 H                     0.112071
    102 C                    -0.177863
    103 H                     0.104133
    104 H                     0.113986
    105 C                     0.009780
    106 C                     0.080191
    107 C                    -0.103065
    108 H                     0.091220
    109 C                    -0.098538
    110 H                     0.087912
    111 C                    -0.071400
    112 H                     0.092980
    113 C                    -0.104654
    114 H                     0.083315
    115 C                    -0.091429
    116 H                     0.095167
    117 C                    -0.012185
    118 C                     0.008500
    119 C                     0.000493
    120 C                    -0.023870
    121 C                     0.003018
    122 C                     0.006944
    123 C                    -0.016067
    124 C                    -0.003898
    125 C                     0.022271
    126 C                    -0.017348
    127 C                    -0.078356
    128 C                     0.008171
    129 C                     0.005822
    130 C                     0.032020
    131 C                    -0.012185
    132 C                    -0.023619
    133 C                    -0.080551
    134 C                     0.004124
    135 C                    -0.005246
    136 C                     0.000314
    137 C                    -0.007882
    138 C                    -0.011807
    139 C                    -0.006541
    140 C                     0.019122
    141 C                     0.030204
    142 C                    -0.012919
    143 C                    -0.004330
    144 C                     0.008641
    145 C                    -0.030685
    146 C                    -0.014347
    147 C                    -0.009015
    148 C                     0.005427
    149 C                     0.015645
    150 C                    -0.009408
    151 C                    -0.020320
    152 C                     0.010323
    153 C                    -0.027222
    154 C                     0.005781
    155 C                     0.016301
    156 C                     0.042226
    157 C                    -0.005090
    158 C                     0.038304
    159 C                    -0.004851
    160 C                    -0.007725
    161 C                     0.006332
    162 C                     0.015262
    163 C                     0.010669
    164 C                    -0.016828
    165 C                    -0.017291
    166 C                    -0.006592
    167 C                    -0.011363
    168 C                     0.004493
    169 C                    -0.033856
    170 C                     0.019093
    171 C                     0.035151
    172 C                     0.002890
    173 C                     0.007337
    174 C                     0.019060
    175 C                    -0.003518
    176 C                     0.011661
  ----------------------------------------
  Sum of atomic charges =     0.000000

                    Cartesian Multipole Moments
 -----------------------------------------------------------------
    Charge (ESU x 10^10)
                 0.0000
    Dipole Moment (Debye)
         X      -3.1657      Y       3.6904      Z       2.3830
       Tot       5.4148
    Quadrupole Moments (Debye-Ang)
        XX    -729.7402     XY       6.0304     YY    -810.5212
        XZ      27.1501     YZ      24.5768     ZZ    -800.2743

 Total job time:  839.05s(wall), 8016.24s(cpu)
        *  Thank you very much for using Q-Chem.  Have a nice day.  *
