 Q-Chem 4.4, Q-Chem, Inc., Pleasanton, CA (2016)
 Q-Chem 4.4.2 for Intel X86 Linux

User input:
--------------------------------------------------------------
$comment
SP
$end

$rem
MEM_STATIC 5000
MEM_TOTAL 20000
JOBTYPE SP
EXCHANGE B3LYP
BASIS 6-31g(d,p)
$end

$molecule
0 1
O         -11.195000      6.469000     -1.826000
C         -11.843000      7.426000     -2.781000
H         -12.268000      6.847000     -3.610000
H         -11.241000      8.268000     -3.143000
H         -12.673000      7.977000     -2.322000
O         -13.046000      5.203000     -1.483000
C         -11.884000      5.415000     -1.254000
C         -10.943000      4.403000     -0.593000
H         -10.455000      4.917000      0.244000
H         -10.293000      4.098000     -1.423000
C         -11.583000      3.169000     -0.073000
H         -12.008000      2.617000     -0.920000
H         -10.773000      2.496000      0.231000
C         -12.544000      3.205000      1.099000
H         -12.236000      3.948000      1.846000
H         -13.434000      3.676000      0.665000
C         -12.884000      1.883000      1.904000
C         -14.041000      1.064000      1.238000
C         -13.723000      0.155000      0.210000
H         -12.681000      0.137000     -0.094000
C         -14.700000     -0.688000     -0.294000
H         -14.437000     -1.470000     -1.000000
C         -16.019000     -0.528000      0.147000
H         -16.804000     -1.145000     -0.281000
C         -16.361000      0.377000      1.188000
H         -17.368000      0.531000      1.563000
C         -15.366000      1.210000      1.676000
H         -15.604000      1.903000      2.478000
C         -14.296000     -0.193000      6.833000
C         -13.004000     -2.021000      5.821000
C          -9.283000     -1.799000      8.395000
C         -11.413000      4.021000      6.824000
C          -7.439000     -0.044000      5.879000
C         -13.960000     -0.958000      5.680000
C          -8.640000      3.305000      6.922000
C         -11.619000     -1.634000      8.971000
C         -10.339000     -0.645000      3.146000
C         -10.639000      4.015000      5.595000
C         -11.818000      1.181000      2.734000
C          -9.607000      0.512000      3.158000
C          -8.996000      2.841000      4.590000
C          -7.817000      2.136000      6.996000
C         -12.657000     -0.974000      3.800000
C          -8.051000      0.145000      8.265000
C         -12.915000      1.904000      3.448000
C         -12.475000      3.058000      4.288000
C          -7.761000     -0.605000      7.113000
C         -11.384000      1.806000      9.397000
C          -9.987000      0.106000      9.751000
C         -11.333000     -0.431000      9.698000
C         -12.798000     -1.654000      8.213000
C         -13.263000      3.016000      5.493000
C         -11.648000     -0.305000      3.056000
C         -12.495000     -2.354000      7.057000
C          -9.252000      3.699000      5.711000
C         -12.302000     -2.081000      4.603000
C          -8.412000      0.615000      3.952000
C         -12.916000      2.903000      7.911000
C         -10.587000     -2.290000      8.306000
C         -10.428000      1.630000      3.033000
C         -13.356000      0.609000      8.753000
C          -8.057000      1.778000      4.654000
C          -9.950000     -1.723000      3.938000
C          -9.097000      2.208000      8.879000
C          -9.439000      3.282000      8.090000
C          -8.825000     -1.632000      4.738000
C         -12.708000      3.518000      6.678000
C         -11.165000      3.508000      4.451000
C         -11.799000      2.952000      8.710000
C         -13.764000      1.127000      4.392000
C         -10.366000     -2.720000      5.966000
C         -10.128000      2.805000      3.794000
C          -8.074000     -0.512000      4.739000
C         -13.715000      1.708000      7.892000
C          -8.517000     -1.760000      7.206000
C         -13.637000     -0.551000      8.044000
C          -8.953000     -0.587000      9.063000
C         -10.903000     -2.396000      4.692000
C          -9.056000     -2.299000      6.014000
C         -13.686000     -0.304000      4.486000
C         -14.042000      1.838000      5.492000
C         -10.060000      1.502000      9.584000
C         -11.144000     -2.785000      7.135000
C          -7.470000      1.392000      5.826000
C         -10.819000      3.673000      8.031000
C          -8.046000      1.516000      8.192000
C         -14.306000      1.208000      6.729000
C         -12.177000      0.647000      9.513000
O          -9.332000     13.301000      9.338000
C         -10.638000     13.873000      9.582000
H         -10.998000     14.180000      8.592000
H         -10.553000     14.777000     10.197000
H         -11.240000     13.167000     10.167000
O          -8.651000     14.833000      7.850000
C          -8.465000     13.816000      8.510000
C          -7.209000     12.950000      8.433000
H          -7.595000     11.932000      8.297000
H          -6.755000     13.026000      9.428000
C          -6.321000     13.247000      7.160000
H          -6.459000     14.292000      6.857000
H          -5.300000     13.242000      7.562000
C          -6.416000     12.214000      5.916000
H          -5.463000     12.362000      5.393000
H          -6.635000     11.191000      6.245000
C          -7.483000     12.653000      4.841000
C          -6.962000     13.888000      4.152000
C          -7.399000     15.182000      4.449000
H          -8.209000     15.158000      5.171000
C          -6.878000     16.332000      3.812000
H          -7.182000     17.341000      4.074000
C          -5.729000     16.170000      2.933000
H          -5.245000     17.049000      2.518000
C          -5.393000     14.813000      2.475000
H          -4.583000     14.572000      1.792000
C          -5.914000     13.736000      3.200000
H          -5.713000     12.697000      2.956000
C         -12.656000     13.239000      3.427000
C         -11.593000     12.708000      1.281000
C         -13.322000      8.512000      1.142000
C         -11.730000      9.909000      6.991000
C         -10.514000      6.858000      2.375000
C         -11.550000     13.369000      2.545000
C         -11.455000      7.302000      5.766000
C         -14.306000     10.604000      1.785000
C          -8.434000     10.319000      2.082000
C         -10.415000      9.401000      6.751000
C          -8.032000     11.559000      4.000000
C          -8.179000      9.375000      3.061000
C          -9.245000      8.135000      5.291000
C         -11.432000      6.633000      4.572000
C          -9.450000     12.494000      2.143000
C         -12.933000      6.872000      2.660000
C          -8.912000     12.375000      4.970000
C          -9.601000     11.598000      6.099000
C         -11.818000      7.005000      1.893000
C         -14.651000      9.700000      5.140000
C         -14.639000      8.617000      3.166000
C         -14.852000      9.969000      2.948000
C         -13.795000     11.918000      1.862000
C         -10.832000     12.095000      6.298000
C          -8.427000     11.611000      2.558000
C         -12.718000     11.967000      0.967000
C         -10.330000      8.095000      6.158000
C         -10.304000     12.228000      0.990000
C          -8.705000      8.056000      3.005000
C         -13.204000     11.334000      6.224000
C         -13.539000      9.881000      0.933000
C          -8.065000     10.057000      4.267000
C         -14.317000     11.952000      4.204000
C          -9.191000      7.379000      4.081000
C          -9.293000     10.004000      1.030000
C         -13.495000      7.461000      4.918000
C         -12.672000      7.862000      5.972000
C          -9.755000      8.668000      0.959000
C         -11.922000     11.280000      6.731000
C          -9.401000     10.231000      6.262000
C         -13.794000     10.041000      6.212000
C         -10.062000     13.122000      4.452000
C         -11.305000     10.201000      0.107000
C          -8.689000      9.476000      5.351000
C          -9.473000      7.706000      1.925000
C         -13.522000     12.306000      5.286000
C         -12.072000      7.973000      0.878000
C         -13.761000     12.545000      3.065000
C         -13.845000      7.868000      2.261000
C         -10.193000     10.924000      0.474000
C         -11.017000      8.826000      0.417000
C         -10.273000     13.197000      3.068000
C         -11.136000     13.047000      5.318000
C         -14.470000      8.425000      4.552000
C         -12.590000     10.675000      0.373000
C         -10.306000      6.648000      3.745000
C         -12.819000      9.120000      6.585000
C         -12.727000      6.715000      4.020000
C         -12.448000     13.138000      4.832000
C         -14.863000     10.643000      4.118000
$end

--------------------------------------------------------------

             Standard Nuclear Orientation (Angstroms)
    I     Atom           X                Y                Z
 ----------------------------------------------------------------
    1      O       1.1453772080     5.6650820342    -2.6531846909
    2      C       2.1154858725     6.7715825370    -2.3662634186
    3      H       1.5863349046     7.7265343335    -2.4719673422
    4      H       3.0633707582     6.7716141133    -2.9175584779
    5      H       2.4996810448     6.7349731432    -1.3395035529
    6      O      -0.3772147950     6.2879288446    -1.0910126635
    7      C      -0.0466173054     5.5299017160    -1.9649286618
    8      C      -0.9997253487     4.5467432930    -2.6516094997
    9      H      -0.5274997163     3.5577971396    -2.6080496820
   10      H      -1.1218161777     4.9847000073    -3.6504652179
   11      C      -2.3568152045     4.4418599537    -2.0599486101
   12      H      -2.8572955435     5.4115377334    -2.1694129142
   13      H      -2.9515665750     3.8207262579    -2.7395872929
   14      C      -2.5787303386     3.8603547948    -0.6775570507
   15      H      -1.8934902670     3.0258776761    -0.4800324123
   16      H      -2.1782117317     4.6422003321    -0.0213563182
   17      C      -4.0170787043     3.3667387894    -0.2316801414
   18      C      -4.8947231828     4.5329508851     0.3363476020
   19      C      -5.6313667853     5.3271214139    -0.5641180408
   20      H      -5.4812999399     5.1049116371    -1.6160718217
   21      C      -6.5283583627     6.2668142891    -0.0828931346
   22      H      -7.1839603501     6.7978400473    -0.7665060940
   23      C      -6.5896087100     6.4928257638     1.2973275754
   24      H      -7.2482336740     7.2656223158     1.6834579240
   25      C      -5.8614609083     5.6986737496     2.2240386184
   26      H      -5.8812592252     5.8361261088     3.3006559485
   27      C      -4.9701849824     4.7650199452     1.7180981107
   28      H      -4.4101237203     4.1413695665     2.4091036011
   29      C      -6.8095216533    -0.2239571109     2.9159739577
   30      C      -8.3292108566     0.1359214447     1.0196553793
   31      C      -7.9325048878    -3.8941231861    -1.0106070788
   32      C      -2.2896346802    -1.7510267624     1.0971155164
   33      C      -5.6789625904    -2.6195560698    -3.4819716371
   34      C      -7.3876231829     0.6658255052     1.9664395888
   35      C      -2.6528398994    -3.1134969465    -1.3975880664
   36      C      -8.1339910103    -3.3082240991     1.3200629112
   37      C      -6.3260955163     1.1797797594    -2.3043654919
   38      C      -2.0554390470    -1.0324738036    -0.1432018022
   39      C      -4.6683117747     2.1627722946    -0.8983285999
   40      C      -5.0943676975     0.7758102258    -2.7451286893
   41      C      -2.8869129667    -0.8715665876    -2.2337782750
   42      C      -3.7080929337    -3.5172661419    -2.2766656913
   43      C      -7.0209258405     1.7092218384    -0.0358895927
   44      C      -5.8453971369    -4.4415495264    -1.8218811619
   45      C      -4.1780527743     2.0200230312     0.5070904694
   46      C      -3.0817986308     1.0241629446     0.7004955907
   47      C      -6.4146996151    -3.5316101950    -2.7283077179
   48      C      -4.7641773828    -3.9387547266     1.8831688017
   49      C      -6.3016088338    -4.8373096255     0.5430834957
   50      C      -6.9960871052    -4.1340364827     1.6042153523
   51      C      -8.2167210355    -2.0841455229     1.9981428344
   52      C      -3.3623031884     0.3353672575     1.9340314413
   53      C      -6.1476285971     1.8613908349    -1.1464635529
   54      C      -8.7346490223    -1.1789053061     1.0868603588
   55      C      -2.2033134586    -1.7747429125    -1.3532640850
   56      C      -8.1586559078     0.8809651000    -0.1617628198
   57      C      -4.9319749921    -0.4910110670    -3.4068404251
   58      C      -3.7077033258    -1.9538648541     2.7214430772
   59      C      -8.5721698736    -3.1808457495     0.0050119464
   60      C      -4.0832320736     1.2257160632    -1.8996823648
   61      C      -6.1206152583    -2.3921531969     3.1097204715
   62      C      -3.8218048747    -1.3256173918    -3.2010429686
   63      C      -7.4296568303     0.3439818637    -2.4601323176
   64      C      -4.0170360437    -4.5764917739    -0.2837110468
   65      C      -2.9117701392    -3.7653080880    -0.1682584251
   66      C      -7.2886983885    -0.8946492895    -3.0599902874
   67      C      -2.9334137050    -0.9912613269     2.0767353662
   68      C      -2.4902770151     0.2445790588    -0.2932448901
   69      C      -3.6090254576    -3.1860825422     2.1211154605
   70      C      -5.1603719997     1.6208014490     1.5517612633
   71      C      -8.6982848660    -1.2050845919    -1.3328235654
   72      C      -2.9750411132     0.3645273554    -1.6168170170
   73      C      -6.0897331227    -1.2963223274    -3.5285445126
   74      C      -4.9846004940    -1.5105718318     3.2111490281
   75      C      -7.6596013680    -3.2089363993    -2.2181006548
   76      C      -7.2175924779    -1.5863620529     2.8366204682
   77      C      -6.7733358381    -4.6890537640    -0.7904242219
   78      C      -8.3009080585     0.1567915181    -1.3945174380
   79      C      -8.1220961649    -1.8821226448    -2.3841422876
   80      C      -6.5709896541     1.5613390184     1.2885065338
   81      C      -4.6219755491     0.7526654616     2.4173675071
   82      C      -4.9164317768    -4.7144112353     0.7626615148
   83      C      -8.9960296353    -1.8659046502    -0.1283589944
   84      C      -4.2621477701    -2.6185680889    -3.2401022734
   85      C      -2.6956783554    -3.0797096686     1.0743280500
   86      C      -4.4857262415    -4.4371667042    -1.6314320949
   87      C      -5.4186402764    -0.1864542605     3.1102920772
   88      C      -6.0203828490    -3.6187500104     2.4355552683
   89      O       6.8283765321    -5.3361424809     1.9791437569
   90      C       7.1973364200    -4.9599799161     3.3262615416
   91      H       7.5678378367    -3.9309995014     3.2375090402
   92      H       8.0279546603    -5.5798705478     3.6846955572
   93      H       6.3577642260    -5.1622114416     4.0024907491
   94      O       8.5956794346    -4.4101721998     0.9573079142
   95      C       7.5415310891    -5.0366043271     0.9283414576
   96      C       6.8573449173    -5.5240122569    -0.3474891708
   97      H       5.8209241003    -5.1796028549    -0.2424651068
   98      H       6.8755588135    -6.6177622959    -0.2747148195
   99      C       7.4096333191    -4.8331151992    -1.6570390083
  100      H       8.4563936939    -4.5450257782    -1.5015552367
  101      H       7.4885714284    -5.6680437858    -2.3646639303
  102      C       6.5230535117    -3.6488770015    -2.3167405590
  103      H       6.8505169222    -3.6431729613    -3.3638208704
  104      H       5.4494717654    -3.7926380656    -2.1450257067
  105      C       6.9432653842    -2.2175209642    -1.8053924614
  106      C       8.3056245756    -1.9077180446    -2.3705354385
  107      C       9.4905174803    -2.0179127046    -1.6373915636
  108      H       9.2805336721    -2.2715247273    -0.6032021504
  109      C      10.7631544074    -1.7503575084    -2.1928368522
  110      H      11.6882616093    -1.8803913558    -1.6392947459
  111      C      10.8511796720    -1.5102813987    -3.6259108260
  112      H      11.8265751699    -1.4095222319    -4.0923582646
  113      C       9.6098803667    -1.2080067172    -4.3552358918
  114      H       9.5543123857    -0.9776278242    -5.4156639965
  115      C       8.3990302992    -1.5561657745    -3.7472701160
  116      H       7.4291690154    -1.3922147904    -4.2076473148
  117      C       7.0239749307     1.4404478468     2.1588818918
  118      C       6.8833499023     2.8528998191     0.1582694787
  119      C       2.5453148164     3.9660378113     0.9049644657
  120      C       3.4512640787    -1.9961534557     2.4308757441
  121      C       1.1318702048     1.6264165635    -1.2558723506
  122      C       7.3945267039     1.6911577732     0.8105881863
  123      C       1.0590407630    -0.9368318912     1.1948318812
  124      C       4.4068095358     3.7751208317     2.4071485811
  125      C       4.8402844303     0.7594542540    -2.6294844815
  126      C       3.1460400804    -2.3827678777     1.0883942360
  127      C       5.8923421748    -1.1719564576    -1.8941239134
  128      C       3.8301298648    -0.1836202228    -2.5602003920
  129      C       2.2160155120    -1.5942889989    -0.8133447997
  130      C       0.5403381037     0.1324797259     0.5156807811
  131      C       6.8464543262     1.0929313132    -1.3525046853
  132      C       0.8045419957     2.5141575039     0.9886218611
  133      C       6.4724125469    -1.6463919855    -0.5452038663
  134      C       5.4891932830    -2.2839855700     0.4446674891
  135      C       1.1659600663     2.6591742587    -0.3142787948
  136      C       3.0861145267     1.0194696531     4.0966506599
  137      C       2.2479367609     2.7986179261     3.0003849734
  138      C       3.5777935828     3.0342466289     3.3114427618
  139      C       5.7575556063     3.4113847653     2.2152446288
  140      C       5.7990060616    -1.9003509301     1.6931912195
  141      C       6.0591952522     0.2824829090    -2.2021160875
  142      C       6.0461108027     3.6906113645     0.8728127293
  143      C       1.9385296901    -1.8454541668     0.5247253319
  144      C       6.6082660320     2.5222930945    -1.1802483800
  145      C       2.4701291770     0.1688881082    -2.3464037465
  146      C       4.7555023374    -0.6858792538     3.6029397697
  147      C       3.8903733686     4.1949066578     1.2264726961
  148      C       4.3777197594    -1.3285836635    -1.9929614415
  149      C       5.4549592360     1.5922767374     3.7507853869
  150      C       1.6173981013    -0.5218277685    -1.5413805851
  151      C       4.5415619585     2.1042370248    -2.4146957847
  152      C       1.0532701117     0.7645939824     2.6129650541
  153      C       1.4318962773    -0.5686056416     2.4448371590
  154      C       3.1746975189     2.4405294820    -2.2664730239
  155      C       4.8073493162    -1.7342079295     2.7075025142
  156      C       4.1492327529    -2.4643996148     0.1172311594
  157      C       3.4078938564    -0.3430852865     3.8971109407
  158      C       7.1213602192    -0.6796549218     0.3453686284
  159      C       4.5854278672     3.8569611024    -1.0490764784
  160      C       3.6010526577    -1.9653769925    -1.0478289273
  161      C       2.1517479710     1.4969473885    -2.2297163190
  162      C       5.7804921461     0.2495691518     3.6121143227
  163      C       2.2040290468     3.6324896860    -0.3969520721
  164      C       6.2411113894     2.3090579012     2.8417773809
  165      C       1.7154283749     3.2534765974     1.7675020073
  166      C       5.3971772715     2.9794301877    -1.7309594585
  167      C       3.2318829963     3.5059081725    -1.3872289925
  168      C       7.3276479255     0.6360426107    -0.0927950230
  169      C       6.8109115011    -0.9336503897     1.6675504978
  170      C       1.9208039175     1.5058559444     3.4566431914
  171      C       4.8579881475     4.2079634566     0.2734836302
  172      C       0.7938171507     0.3301378196    -0.8439918452
  173      C       2.5819155286    -1.0923210630     3.0638039425
  174      C       0.5195976014     1.2254059109     1.4064867002
  175      C       6.7892740760     0.1087521162     2.6049670741
  176      C       4.1057137831     1.9802192014     3.9699436685
 ----------------------------------------------------------------

    9   -5804.2174532482      8.18E-06 Convergence criterion met
 Total energy in the final basis set = -5804.2174532482

                    Orbital Energies (a.u.)
 --------------------------------------------------------------

 Alpha MOs
 -- Occupied --
-19.197 -19.184 -19.136 -19.130 -10.315 -10.314 -10.253 -10.248
-10.247 -10.238 -10.238 -10.237 -10.237 -10.236 -10.225 -10.224
-10.224 -10.224 -10.224 -10.223 -10.222 -10.221 -10.221 -10.221
-10.220 -10.220 -10.219 -10.219 -10.219 -10.218 -10.218 -10.218
-10.217 -10.217 -10.217 -10.217 -10.217 -10.217 -10.216 -10.216
-10.216 -10.216 -10.215 -10.215 -10.215 -10.215 -10.215 -10.215
-10.215 -10.215 -10.214 -10.214 -10.214 -10.214 -10.214 -10.214
-10.214 -10.214 -10.214 -10.213 -10.213 -10.213 -10.213 -10.213
-10.213 -10.213 -10.213 -10.213 -10.213 -10.213 -10.213 -10.213
-10.213 -10.212 -10.212 -10.212 -10.212 -10.212 -10.212 -10.212
-10.212 -10.212 -10.212 -10.212 -10.212 -10.212 -10.211 -10.211
-10.211 -10.211 -10.211 -10.211 -10.211 -10.211 -10.210 -10.210
-10.210 -10.210 -10.210 -10.210 -10.210 -10.210 -10.210 -10.210
-10.210 -10.210 -10.210 -10.210 -10.209 -10.209 -10.209 -10.209
-10.209 -10.209 -10.209 -10.209 -10.208 -10.208 -10.208 -10.208
-10.208 -10.208 -10.208 -10.207 -10.207 -10.207 -10.207 -10.206
-10.206 -10.206 -10.204 -10.204 -10.204 -10.204 -10.203 -10.203
-10.203 -10.202 -10.197 -10.197 -10.196 -10.196 -10.196 -10.195
-10.195 -10.193 -10.192 -10.189  -1.111  -1.081  -1.007  -1.003
 -0.987  -0.982  -0.969  -0.968  -0.964  -0.964  -0.962  -0.960
 -0.938  -0.930  -0.929  -0.929  -0.927  -0.926  -0.925  -0.924
 -0.922  -0.920  -0.898  -0.895  -0.894  -0.891  -0.888  -0.887
 -0.878  -0.872  -0.852  -0.845  -0.844  -0.842  -0.841  -0.839
 -0.837  -0.834  -0.818  -0.818  -0.809  -0.801  -0.800  -0.798
 -0.797  -0.794  -0.794  -0.794  -0.793  -0.791  -0.787  -0.782
 -0.775  -0.769  -0.768  -0.768  -0.766  -0.764  -0.762  -0.757
 -0.752  -0.743  -0.742  -0.737  -0.733  -0.731  -0.720  -0.718
 -0.716  -0.715  -0.715  -0.713  -0.710  -0.710  -0.709  -0.709
 -0.708  -0.706  -0.704  -0.704  -0.702  -0.701  -0.674  -0.671
 -0.663  -0.658  -0.657  -0.656  -0.647  -0.646  -0.633  -0.632
 -0.630  -0.626  -0.624  -0.623  -0.622  -0.620  -0.617  -0.614
 -0.614  -0.613  -0.612  -0.611  -0.609  -0.609  -0.606  -0.606
 -0.606  -0.604  -0.603  -0.602  -0.565  -0.565  -0.564  -0.563
 -0.561  -0.560  -0.558  -0.557  -0.557  -0.553  -0.553  -0.549
 -0.536  -0.533  -0.532  -0.532  -0.530  -0.527  -0.526  -0.524
 -0.523  -0.523  -0.521  -0.518  -0.517  -0.514  -0.514  -0.511
 -0.504  -0.503  -0.500  -0.498  -0.495  -0.491  -0.488  -0.486
 -0.484  -0.484  -0.483  -0.482  -0.479  -0.477  -0.475  -0.474
 -0.472  -0.471  -0.471  -0.469  -0.468  -0.467  -0.466  -0.465
 -0.464  -0.463  -0.463  -0.462  -0.460  -0.459  -0.458  -0.456
 -0.455  -0.452  -0.450  -0.450  -0.447  -0.446  -0.445  -0.443
 -0.443  -0.442  -0.440  -0.439  -0.439  -0.436  -0.435  -0.432
 -0.431  -0.430  -0.428  -0.428  -0.427  -0.426  -0.425  -0.425
 -0.423  -0.422  -0.422  -0.421  -0.421  -0.420  -0.419  -0.418
 -0.417  -0.416  -0.415  -0.414  -0.414  -0.413  -0.413  -0.412
 -0.411  -0.409  -0.408  -0.404  -0.400  -0.399  -0.397  -0.396
 -0.396  -0.394  -0.394  -0.392  -0.389  -0.386  -0.384  -0.383
 -0.377  -0.375  -0.373  -0.373  -0.368  -0.368  -0.364  -0.364
 -0.363  -0.362  -0.362  -0.362  -0.360  -0.360  -0.357  -0.356
 -0.355  -0.355  -0.354  -0.354  -0.353  -0.351  -0.350  -0.349
 -0.348  -0.347  -0.347  -0.346  -0.343  -0.343  -0.342  -0.341
 -0.340  -0.339  -0.339  -0.337  -0.336  -0.334  -0.334  -0.332
 -0.331  -0.329  -0.328  -0.327  -0.325  -0.324  -0.322  -0.320
 -0.313  -0.309  -0.302  -0.296  -0.286  -0.284  -0.272  -0.271
 -0.271  -0.269  -0.268  -0.267  -0.267  -0.266  -0.263  -0.263
 -0.261  -0.260  -0.259  -0.257  -0.256  -0.256  -0.253  -0.251
 -0.247  -0.245  -0.242  -0.239  -0.221  -0.219  -0.214  -0.211
 -0.209  -0.207  -0.205  -0.204  -0.196  -0.196

          Ground-State Mulliken Net Atomic Charges

     Atom                 Charge (a.u.)
  ----------------------------------------
      1 O                    -0.496109
      2 C                    -0.088860
      3 H                     0.131145
      4 H                     0.131380
      5 H                     0.129462
      6 O                    -0.459416
      7 C                     0.604383
      8 C                    -0.262710
      9 H                     0.135132
     10 H                     0.141756
     11 C                    -0.176707
     12 H                     0.111237
     13 H                     0.096853
     14 C                    -0.195507
     15 H                     0.100400
     16 H                     0.141782
     17 C                     0.000527
     18 C                     0.089513
     19 C                    -0.098464
     20 H                     0.088588
     21 C                    -0.084004
     22 H                     0.093905
     23 C                    -0.093259
     24 H                     0.086733
     25 C                    -0.083376
     26 H                     0.094389
     27 C                    -0.108601
     28 H                     0.090616
     29 C                    -0.022873
     30 C                     0.036978
     31 C                    -0.003594
     32 C                    -0.018590
     33 C                    -0.028250
     34 C                    -0.034291
     35 C                    -0.015727
     36 C                    -0.012705
     37 C                     0.035020
     38 C                    -0.025748
     39 C                    -0.082406
     40 C                     0.000681
     41 C                     0.000886
     42 C                     0.027122
     43 C                     0.002851
     44 C                     0.018227
     45 C                    -0.102026
     46 C                     0.027023
     47 C                     0.032098
     48 C                     0.021191
     49 C                    -0.039067
     50 C                    -0.019773
     51 C                     0.013427
     52 C                    -0.017679
     53 C                     0.036518
     54 C                    -0.000586
     55 C                    -0.031069
     56 C                    -0.046271
     57 C                    -0.025369
     58 C                    -0.016413
     59 C                     0.034795
     60 C                     0.027286
     61 C                    -0.030597
     62 C                     0.012520
     63 C                    -0.007496
     64 C                    -0.014101
     65 C                     0.011911
     66 C                    -0.007955
     67 C                     0.018658
     68 C                     0.051627
     69 C                    -0.001311
     70 C                     0.057108
     71 C                     0.024530
     72 C                    -0.015100
     73 C                     0.031431
     74 C                    -0.006062
     75 C                    -0.017523
     76 C                     0.016915
     77 C                    -0.007642
     78 C                    -0.009280
     79 C                    -0.020690
     80 C                     0.014173
     81 C                     0.008136
     82 C                     0.021967
     83 C                    -0.028290
     84 C                    -0.019346
     85 C                    -0.002321
     86 C                    -0.017748
     87 C                     0.007249
     88 C                     0.023144
     89 O                    -0.439739
     90 C                    -0.088735
     91 H                     0.140256
     92 H                     0.127994
     93 H                     0.133525
     94 O                    -0.499491
     95 C                     0.590943
     96 C                    -0.270034
     97 H                     0.132255
     98 H                     0.134931
     99 C                    -0.194523
    100 H                     0.141904
    101 H                     0.096086
    102 C                    -0.179385
    103 H                     0.120150
    104 H                     0.104738
    105 C                     0.014362
    106 C                     0.096377
    107 C                    -0.111649
    108 H                     0.118783
    109 C                    -0.102490
    110 H                     0.100899
    111 C                    -0.103619
    112 H                     0.094824
    113 C                    -0.096649
    114 H                     0.093380
    115 C                    -0.104424
    116 H                     0.085328
    117 C                    -0.000489
    118 C                     0.005045
    119 C                     0.008724
    120 C                    -0.048674
    121 C                    -0.013046
    122 C                    -0.018607
    123 C                    -0.000093
    124 C                    -0.018064
    125 C                     0.003062
    126 C                    -0.036782
    127 C                    -0.106816
    128 C                     0.014445
    129 C                    -0.008179
    130 C                     0.022118
    131 C                     0.013323
    132 C                    -0.017779
    133 C                    -0.093732
    134 C                     0.038280
    135 C                     0.014329
    136 C                    -0.023185
    137 C                    -0.009361
    138 C                     0.003536
    139 C                    -0.015051
    140 C                     0.014445
    141 C                     0.029123
    142 C                     0.000736
    143 C                    -0.005837
    144 C                    -0.044868
    145 C                     0.028714
    146 C                     0.023028
    147 C                     0.040010
    148 C                     0.026566
    149 C                    -0.007754
    150 C                    -0.016321
    151 C                    -0.012947
    152 C                    -0.005399
    153 C                     0.015165
    154 C                     0.013317
    155 C                     0.007157
    156 C                     0.013149
    157 C                    -0.030257
    158 C                     0.038230
    159 C                    -0.022525
    160 C                    -0.003813
    161 C                    -0.012137
    162 C                    -0.028667
    163 C                    -0.023661
    164 C                     0.033447
    165 C                    -0.001045
    166 C                     0.030560
    167 C                     0.000659
    168 C                     0.020487
    169 C                     0.002247
    170 C                    -0.006144
    171 C                    -0.013491
    172 C                    -0.000216
    173 C                     0.046328
    174 C                     0.005197
    175 C                    -0.014046
    176 C                     0.025198
  ----------------------------------------
  Sum of atomic charges =     0.000000

                    Cartesian Multipole Moments
 -----------------------------------------------------------------
    Charge (ESU x 10^10)
                 0.0000
    Dipole Moment (Debye)
         X       2.0381      Y      -0.1702      Z      -1.0491
       Tot       2.2985
    Quadrupole Moments (Debye-Ang)
        XX    -807.4001     XY     -19.6705     YY    -788.5246
        XZ      -5.1494     YZ     -10.9472     ZZ    -790.1886

 Total job time:  888.84s(wall), 8448.41s(cpu)
        *  Thank you very much for using Q-Chem.  Have a nice day.  *
