 Q-Chem 4.4, Q-Chem, Inc., Pleasanton, CA (2016)
 Q-Chem 4.4.2 for Intel X86 Linux

User input:
--------------------------------------------------------------
$comment
SP
$end

$rem
MEM_STATIC 5000
MEM_TOTAL 20000
JOBTYPE SP
EXCHANGE B3LYP
BASIS 6-31g(d,p)
$end

$molecule
0 1
O         -23.879000     11.685000      6.441000
C         -24.715000     12.898000      6.596000
H         -24.013000     13.737000      6.675000
H         -25.225000     12.941000      7.567000
H         -25.413000     13.032000      5.761000
O         -23.179000     12.096000      4.398000
C         -23.135000     11.431000      5.326000
C         -22.138000     10.266000      5.488000
H         -22.596000      9.373000      5.929000
H         -21.358000     10.617000      6.175000
C         -21.490000      9.904000      4.193000
H         -22.218000      9.353000      3.584000
H         -21.162000     10.788000      3.634000
C         -20.351000      8.954000      4.425000
H         -19.846000      8.807000      3.463000
H         -19.552000      9.515000      4.926000
C         -20.611000      7.564000      5.160000
C         -21.440000      6.705000      4.356000
C         -22.871000      6.773000      4.514000
H         -23.264000      7.360000      5.339000
C         -23.664000      6.038000      3.606000
H         -24.728000      6.005000      3.818000
C         -23.067000      5.356000      2.512000
H         -23.702000      4.776000      1.848000
C         -21.622000      5.331000      2.373000
H         -21.146000      4.830000      1.535000
C         -20.850000      6.108000      3.218000
H         -19.782000      6.216000      3.055000
C         -21.681000      4.878000      9.819000
C         -20.493000      3.246000      8.474000
C         -16.631000      3.207000     10.959000
C         -18.973000      9.104000     10.233000
C         -14.961000      5.374000      8.792000
C         -21.362000      4.322000      8.577000
C         -16.257000      8.386000     10.191000
C         -18.943000      3.323000     11.666000
C         -17.870000      5.035000      6.018000
C         -18.220000      9.196000      9.029000
C         -19.426000      6.889000      5.906000
C         -17.123000      6.219000      6.083000
C         -16.567000      8.325000      7.751000
C         -15.394000      7.299000     10.105000
C         -20.181000      4.589000      6.737000
C         -15.547000      5.108000     11.097000
C         -20.527000      7.523000      6.687000
C         -20.106000      8.539000      7.686000
C         -15.215000      4.533000      9.891000
C         -18.904000      6.629000     12.756000
C         -17.459000      4.873000     12.562000
C         -18.724000      4.360000     12.527000
C         -20.124000      3.312000     10.896000
C         -20.801000      8.275000      8.930000
C         -19.234000      5.372000      6.025000
C         -19.924000      2.749000      9.667000
C         -16.881000      8.848000      9.014000
C         -19.727000      3.329000      7.340000
C         -15.949000      6.181000      6.861000
C         -20.520000      7.814000     11.268000
C         -17.944000      2.732000     10.849000
C         -18.000000      7.332000      6.087000
C         -20.858000      5.434000     11.882000
C         -15.595000      7.270000      7.703000
C         -17.443000      3.887000      6.701000
C         -16.608000      7.095000     11.982000
C         -16.994000      8.258000     11.374000
C         -16.261000      3.880000      7.426000
C         -20.249000      8.638000     10.143000
C         -18.775000      8.926000      7.789000
C         -19.344000      7.780000     12.026000
C         -21.361000      6.582000      7.539000
C         -17.787000      2.540000      8.453000
C         -17.765000      8.346000      7.003000
C         -15.531000      5.046000      7.538000
C         -21.267000      6.628000     11.194000
C         -15.871000      3.336000      9.783000
C         -21.069000      4.376000     10.971000
C         -16.369000      4.303000     11.819000
C         -18.338000      2.989000      7.299000
C         -16.455000      3.052000      8.573000
C         -21.187000      5.181000      7.491000
C         -21.549000      7.118000      8.826000
C         -17.548000      6.281000     12.698000
C         -18.545000      2.441000      9.634000
C         -14.982000      6.783000      8.879000
C         -18.374000      8.635000     11.360000
C         -15.613000      6.490000     11.207000
C         -21.722000      6.290000      9.919000
C         -19.662000      5.457000     12.627000
O          -9.332000     13.301000      9.338000
C         -10.638000     13.873000      9.582000
H         -10.998000     14.180000      8.592000
H         -10.553000     14.777000     10.197000
H         -11.240000     13.167000     10.167000
O          -8.651000     14.833000      7.850000
C          -8.465000     13.816000      8.510000
C          -7.209000     12.950000      8.433000
H          -7.595000     11.932000      8.297000
H          -6.755000     13.026000      9.428000
C          -6.321000     13.247000      7.160000
H          -6.459000     14.292000      6.857000
H          -5.300000     13.242000      7.562000
C          -6.416000     12.214000      5.916000
H          -5.463000     12.362000      5.393000
H          -6.635000     11.191000      6.245000
C          -7.483000     12.653000      4.841000
C          -6.962000     13.888000      4.152000
C          -7.399000     15.182000      4.449000
H          -8.209000     15.158000      5.171000
C          -6.878000     16.332000      3.812000
H          -7.182000     17.341000      4.074000
C          -5.729000     16.170000      2.933000
H          -5.245000     17.049000      2.518000
C          -5.393000     14.813000      2.475000
H          -4.583000     14.572000      1.792000
C          -5.914000     13.736000      3.200000
H          -5.713000     12.697000      2.956000
C         -12.656000     13.239000      3.427000
C         -11.593000     12.708000      1.281000
C         -13.322000      8.512000      1.142000
C         -11.730000      9.909000      6.991000
C         -10.514000      6.858000      2.375000
C         -11.550000     13.369000      2.545000
C         -11.455000      7.302000      5.766000
C         -14.306000     10.604000      1.785000
C          -8.434000     10.319000      2.082000
C         -10.415000      9.401000      6.751000
C          -8.032000     11.559000      4.000000
C          -8.179000      9.375000      3.061000
C          -9.245000      8.135000      5.291000
C         -11.432000      6.633000      4.572000
C          -9.450000     12.494000      2.143000
C         -12.933000      6.872000      2.660000
C          -8.912000     12.375000      4.970000
C          -9.601000     11.598000      6.099000
C         -11.818000      7.005000      1.893000
C         -14.651000      9.700000      5.140000
C         -14.639000      8.617000      3.166000
C         -14.852000      9.969000      2.948000
C         -13.795000     11.918000      1.862000
C         -10.832000     12.095000      6.298000
C          -8.427000     11.611000      2.558000
C         -12.718000     11.967000      0.967000
C         -10.330000      8.095000      6.158000
C         -10.304000     12.228000      0.990000
C          -8.705000      8.056000      3.005000
C         -13.204000     11.334000      6.224000
C         -13.539000      9.881000      0.933000
C          -8.065000     10.057000      4.267000
C         -14.317000     11.952000      4.204000
C          -9.191000      7.379000      4.081000
C          -9.293000     10.004000      1.030000
C         -13.495000      7.461000      4.918000
C         -12.672000      7.862000      5.972000
C          -9.755000      8.668000      0.959000
C         -11.922000     11.280000      6.731000
C          -9.401000     10.231000      6.262000
C         -13.794000     10.041000      6.212000
C         -10.062000     13.122000      4.452000
C         -11.305000     10.201000      0.107000
C          -8.689000      9.476000      5.351000
C          -9.473000      7.706000      1.925000
C         -13.522000     12.306000      5.286000
C         -12.072000      7.973000      0.878000
C         -13.761000     12.545000      3.065000
C         -13.845000      7.868000      2.261000
C         -10.193000     10.924000      0.474000
C         -11.017000      8.826000      0.417000
C         -10.273000     13.197000      3.068000
C         -11.136000     13.047000      5.318000
C         -14.470000      8.425000      4.552000
C         -12.590000     10.675000      0.373000
C         -10.306000      6.648000      3.745000
C         -12.819000      9.120000      6.585000
C         -12.727000      6.715000      4.020000
C         -12.448000     13.138000      4.832000
C         -14.863000     10.643000      4.118000
$end

--------------------------------------------------------------

             Standard Nuclear Orientation (Angstroms)
    I     Atom           X                Y                Z
 ----------------------------------------------------------------
    1      O      -6.1841941610    -4.9361999274    -5.1467741698
    2      C      -6.3960159971    -5.5294005531    -6.4874958141
    3      H      -5.4725403876    -5.3394456830    -7.0479206048
    4      H      -7.1360993736    -4.9794983959    -7.0830411217
    5      H      -6.6255148247    -6.6004717322    -6.4372781147
    6      O      -4.7151170182    -6.4052332360    -4.4280784853
    7      C      -5.2933292340    -5.4373361555    -4.2431707376
    8      C      -5.0369511028    -4.5138644420    -3.0353014366
    9      H      -5.9624453479    -4.1373619337    -2.5843022532
   10      H      -4.4746219074    -3.6522229100    -3.4159978330
   11      C      -4.2107416144    -5.1837929146    -1.9881401678
   12      H      -4.8451385088    -5.9031122483    -1.4546738835
   13      H      -3.3559541627    -5.7196791354    -2.4167254811
   14      C      -3.7663479148    -4.1886231782    -0.9557659935
   15      H      -3.0793302731    -4.7064415836    -0.2760977958
   16      H      -3.0313025791    -3.5273518910    -1.4317404038
   17      C      -4.8487034567    -3.3414223649    -0.1491172083
   18      C      -5.6347810903    -4.1925218617     0.7048439152
   19      C      -6.8446712943    -4.7756865542     0.1819350935
   20      H      -7.1976479154    -4.4318199248    -0.7859524238
   21      C      -7.5102632160    -5.7281662877     0.9839997736
   22      H      -8.4794358538    -6.0612573933     0.6263914497
   23      C      -6.9369180967    -6.1722349980     2.2056573995
   24      H      -7.4880010383    -6.8845639306     2.8134534864
   25      C      -5.7030835203    -5.5775781638     2.6873279172
   26      H      -5.2389877022    -5.9141834016     3.6098966059
   27      C      -5.0145403954    -4.6987663583     1.8704214502
   28      H      -4.0260129026    -4.3423559450     2.1436283554
   29      C      -8.5332083861     0.7193787632    -0.1393897384
   30      C      -7.8018149827     0.6007794809     2.1703268892
   31      C      -5.4823723093     4.5644498798     2.2062803879
   32      C      -4.5729262897     1.2861799936    -3.1985788601
   33      C      -2.3936217281     3.0084901396     1.7379993464
   34      C      -8.0832738272    -0.0162655955     0.9605408368
   35      C      -2.6253861435     2.7610051651    -1.8108029084
   36      C      -7.5910604425     3.9972866365     1.1620537783
   37      C      -3.9901320315    -0.6336038577     2.4151877735
   38      C      -3.4913611384     0.6253449979    -2.5515835495
   39      C      -4.4233172212    -1.9667348197     0.4388000511
   40      C      -2.8725886435    -0.5230170876     1.5767622597
   41      C      -2.0629518792     0.5914835669    -0.7957833355
   42      C      -2.3596352040     3.3921579076    -0.6005315942
   43      C      -6.3496733093    -1.0442832742     1.8490558321
   44      C      -3.7952730895     4.7138410109     0.8137002243
   45      C      -5.3266546110    -2.0167233226    -0.7467802751
   46      C      -4.8769197221    -1.2426199737    -1.9325292093
   47      C      -3.3554232327     4.0194809859     1.9180920294
   48      C      -6.4806441175     4.0662598510    -2.1366543447
   49      C      -5.9901202016     5.0647258647    -0.1437547218
   50      C      -7.2515103667     4.5524575126    -0.0384219792
   51      C      -8.3069462179     2.7827416782     1.1750960593
   52      C      -6.0000760629    -0.4754951026    -2.4328253878
   53      C      -4.9737060887    -1.3798972244     1.7445594973
   54      C      -7.9631497757     2.0017735555     2.2424773397
   55      C      -2.5305612332     1.3556450977    -1.8749926048
   56      C      -6.7377190724     0.0069782573     2.7985792274
   57      C      -2.1868545976     0.7075159703     1.6004521700
   58      C      -6.7810630790     1.7304561029    -2.9634519608
   59      C      -6.7407717703     3.9563925039     2.2978829220
   60      C      -3.1100504386    -1.2361118336     0.3755038449
   61      C      -8.3220822279     2.6959441970    -1.2756330360
   62      C      -1.7060166652     1.2991141788     0.4008658070
   63      C      -4.3789478055     0.4421071255     3.2266002301
   64      C      -4.1056461032     4.4185796374    -1.5682326702
   65      C      -3.7022752707     3.4214791417    -2.4134022229
   66      C      -3.6545587542     1.6242969140     3.2486412399
   67      C      -5.8036556379     0.7104871085    -3.1130512412
   68      C      -3.6399444479    -0.6087686616    -1.9405095150
   69      C      -6.0849764594     2.9442497432    -2.9340509979
   70      C      -6.7271728006    -1.4682844722    -0.5353455851
   71      C      -5.8645523435     2.0851235942     3.5359948651
   72      C      -2.7864502518    -0.6213147788    -0.8244063603
   73      C      -2.5753176106     1.7704623803     2.4007767399
   74      C      -7.8963667533     1.6128852173    -2.1194402304
   75      C      -4.3884228426     3.9207586808     2.8113863327
   76      C      -8.6469197424     2.1084394014    -0.0334073301
   77      C      -5.0808806052     5.1244115235     0.9674473204
   78      C      -5.7229741967     0.7378846206     3.4933243068
   79      C      -4.5775898516     2.7011642508     3.4135634405
   80      C      -7.1834744859    -1.0595851598     0.7374995131
   81      C      -7.0930335589    -0.6260987981    -1.6011214508
   82      C      -5.4908565912     4.7689921053    -1.4368743569
   83      C      -6.9453663584     2.7261648075     2.9035130645
   84      C      -1.8206149896     2.7047752315     0.4839213854
   85      C      -4.6742009819     2.6394906324    -3.1138159459
   86      C      -3.2793986061     4.4143904499    -0.4395287568
   87      C      -7.9799504802     0.4159784885    -1.4071748002
   88      C      -7.5798210977     3.8938368998    -1.2840880470
   89      O       5.5698876094     4.1471388485    -3.7489929217
   90      C       4.6556707434     3.5656550164    -4.7073457143
   91      H       4.8360174958     2.4850985640    -4.6455249899
   92      H       4.9109698669     3.8849862373    -5.7249487454
   93      H       3.6433564987     3.9434771308    -4.5188375714
   94      O       7.3245148803     2.8403696197    -4.2374254378
   95      C       6.8017903015     3.7454512190    -3.5954976277
   96      C       7.4872108753     4.5181808259    -2.4701049888
   97      H       6.7663517765     4.4811677042    -1.6437829036
   98      H       7.5516587314     5.5492133508    -2.8371682075
   99      C       8.7947858597     3.8123410935    -1.9322203057
  100      H       9.2458101325     3.2210182281    -2.7383173061
  101      H       9.4987203939     4.6462687683    -1.8177178833
  102      C       8.6924833569     2.9972257104    -0.5362363838
  103      H       9.7282156462     2.9870670488    -0.1745771153
  104      H       7.9464906258     3.4305684808     0.1408455081
  105      C       8.3749497771     1.4670374269    -0.7472606544
  106      C       9.5892316908     0.8256212058    -1.3681404055
  107      C       9.6942732780     0.5241762917    -2.7289163712
  108      H       8.7625775794     0.7377118814    -3.2430230500
  109      C      10.8530888569    -0.0518048584    -3.2990936845
  110      H      10.9548854930    -0.2435936705    -4.3630464543
  111      C      12.0380380872    -0.1827479149    -2.4637283526
  112      H      12.9698827772    -0.5212683117    -2.9066633529
  113      C      11.8774317939    -0.0483800832    -1.0076171259
  114      H      12.6788916134    -0.1605603080    -0.2825324723
  115      C      10.7202552203     0.5820068393    -0.5379899275
  116      H      10.5137070763     0.7464110724     0.5154649184
  117      C       4.8393932088    -2.3845558017    -2.0768434286
  118      C       6.2299120765    -3.5178935888    -0.4037478727
  119      C       2.9982326805    -3.3862079256     2.7827996583
  120      C       2.9038721606     1.9031111935    -0.4899779616
  121      C       4.1676396430    -0.5603925898     4.4525673200
  122      C       6.1183779464    -2.6148044641    -1.5030459081
  123      C       2.4081567736     1.6929939671     2.3530514098
  124      C       2.8817793668    -3.8729934026     0.4359618869
  125      C       7.5160659317    -0.6903027013     2.1805781580
  126      C       3.8523426787     2.4756896954     0.4141495380
  127      C       7.7300773602     0.7825612876     0.4021522308
  128      C       6.9720268024     0.4953976917     2.6418134599
  129      C       4.7699002978     2.1573636699     2.4537604217
  130      C       2.5465530527     0.8825022174     3.4474350690
  131      C       7.6114647697    -1.6994773109     0.0036381797
  132      C       2.0717378432    -1.5050313260     3.6476851524
  133      C       7.0243829285     0.9505497653    -0.9598063737
  134      C       5.7201297745     1.7579808515    -0.9681580907
  135      C       3.3196231021    -1.6357941167     4.1719813219
  136      C       1.0346481676    -1.0090580268    -0.3244633206
  137      C       1.2520471893    -2.3676809490     1.4578358745
  138      C       1.7467009495    -3.0044283588     0.3305970384
  139      C       3.8569786304    -3.9011591816    -0.5847433032
  140      C       4.8505935110     1.1950041165    -1.8219349247
  141      C       7.9258523237    -0.6256569677     0.8676482124
  142      C       5.0807803828    -4.1353347229     0.0562138612
  143      C       3.5531457849     2.3619586812     1.8148838008
  144      C       7.1868663900    -3.0077774997     0.4910269689
  145      C       5.9749220995     0.5350623645     3.6536345534
  146      C       2.5767582658     0.1752758333    -1.7935006764
  147      C       3.4939406211    -4.0218167300     1.6359753102
  148      C       6.9486493234     1.3792682746     1.5690682496
  149      C       2.6276270572    -2.2117085125    -1.7650208747
  150      C       4.9011990953     1.3712364611     3.6383770843
  151      C       7.0307261995    -1.9041025152     2.6652897795
  152      C       1.0828238527    -0.0492774584     2.0154600465
  153      C       1.5755342012     1.1263090607     1.4460051768
  154      C       6.0843355774    -1.8413448782     3.7159025862
  155      C       3.4388474688     1.2366429491    -1.6096772510
  156      C       5.2271740347     2.3464351090     0.1920032021
  157      C       1.5228481651     0.2136880525    -0.8406675320
  158      C       6.5806376742    -0.2356954814    -1.6978750453
  159      C       5.7713219659    -3.7051332197     2.3350302181
  160      C       5.8001514368     2.1299359830     1.4296279535
  161      C       5.5592357808    -0.6486519082     4.2056756796
  162      C       3.0667411745    -1.0142105429    -2.3138764157
  163      C       3.8875429124    -2.8572564333     3.7058677112
  164      C       3.7441672945    -3.0444810516    -1.6311037497
  165      C       1.8934935508    -2.5407831205     2.7104508208
  166      C       6.8833835609    -3.0451620164     1.8641597267
  167      C       5.2967490584    -2.9491644803     3.4632858720
  168      C       6.9188083134    -1.5118806130    -1.2260762231
  169      C       5.3579243575    -0.0174826310    -2.3031950408
  170      C       0.8268715013    -1.0798988510     1.0740860831
  171      C       4.8237058589    -4.2325852414     1.4572631201
  172      C       3.7723810539     0.7377276673     4.1019700498
  173      C       1.7953118094     1.2389754396     0.0607448800
  174      C       1.7016329731    -0.2299908366     3.2552833999
  175      C       4.4800057194    -1.0855697681    -2.5361536908
  176      C       1.6287659055    -2.2093984229    -0.7544447702
 ----------------------------------------------------------------

    9   -5804.2230040032      7.35E-06 Convergence criterion met
 Total energy in the final basis set = -5804.2230040032

                    Orbital Energies (a.u.)
 --------------------------------------------------------------

 Alpha MOs
 -- Occupied --
-19.197 -19.176 -19.134 -19.130 -10.314 -10.308 -10.252 -10.248
-10.243 -10.239 -10.237 -10.236 -10.236 -10.235 -10.231 -10.227
-10.226 -10.225 -10.224 -10.223 -10.222 -10.222 -10.221 -10.220
-10.220 -10.219 -10.219 -10.218 -10.218 -10.217 -10.217 -10.217
-10.217 -10.217 -10.217 -10.217 -10.217 -10.216 -10.216 -10.216
-10.216 -10.216 -10.216 -10.216 -10.216 -10.216 -10.215 -10.215
-10.214 -10.214 -10.214 -10.214 -10.214 -10.214 -10.214 -10.213
-10.213 -10.213 -10.213 -10.213 -10.213 -10.213 -10.213 -10.213
-10.213 -10.213 -10.213 -10.212 -10.212 -10.212 -10.212 -10.212
-10.212 -10.212 -10.212 -10.212 -10.212 -10.212 -10.211 -10.211
-10.211 -10.211 -10.211 -10.211 -10.211 -10.211 -10.211 -10.211
-10.211 -10.211 -10.211 -10.211 -10.211 -10.211 -10.210 -10.210
-10.210 -10.210 -10.210 -10.210 -10.210 -10.210 -10.209 -10.209
-10.209 -10.209 -10.209 -10.209 -10.209 -10.209 -10.209 -10.208
-10.208 -10.208 -10.208 -10.208 -10.207 -10.207 -10.207 -10.207
-10.207 -10.207 -10.207 -10.207 -10.207 -10.207 -10.206 -10.206
-10.206 -10.206 -10.205 -10.205 -10.204 -10.204 -10.203 -10.203
-10.203 -10.203 -10.202 -10.202 -10.202 -10.200 -10.200 -10.198
-10.196 -10.194 -10.192 -10.185  -1.110  -1.108  -1.017  -1.007
 -0.986  -0.984  -0.968  -0.967  -0.967  -0.964  -0.963  -0.960
 -0.937  -0.933  -0.928  -0.928  -0.927  -0.927  -0.926  -0.924
 -0.924  -0.920  -0.898  -0.897  -0.894  -0.890  -0.889  -0.886
 -0.877  -0.875  -0.849  -0.844  -0.843  -0.841  -0.841  -0.840
 -0.838  -0.835  -0.822  -0.817  -0.810  -0.800  -0.799  -0.797
 -0.797  -0.796  -0.794  -0.793  -0.792  -0.790  -0.786  -0.786
 -0.774  -0.773  -0.768  -0.767  -0.767  -0.766  -0.761  -0.761
 -0.753  -0.742  -0.742  -0.737  -0.732  -0.730  -0.720  -0.719
 -0.717  -0.715  -0.715  -0.714  -0.712  -0.711  -0.709  -0.709
 -0.708  -0.705  -0.704  -0.703  -0.701  -0.700  -0.673  -0.673
 -0.662  -0.660  -0.658  -0.657  -0.649  -0.646  -0.632  -0.631
 -0.631  -0.626  -0.625  -0.623  -0.621  -0.619  -0.619  -0.616
 -0.613  -0.613  -0.612  -0.611  -0.611  -0.609  -0.608  -0.605
 -0.605  -0.604  -0.603  -0.602  -0.565  -0.564  -0.563  -0.563
 -0.562  -0.560  -0.558  -0.557  -0.556  -0.554  -0.552  -0.548
 -0.536  -0.536  -0.536  -0.531  -0.529  -0.526  -0.526  -0.524
 -0.523  -0.522  -0.522  -0.519  -0.516  -0.515  -0.513  -0.512
 -0.509  -0.503  -0.502  -0.499  -0.494  -0.494  -0.489  -0.488
 -0.485  -0.484  -0.483  -0.482  -0.482  -0.480  -0.474  -0.474
 -0.473  -0.470  -0.470  -0.469  -0.469  -0.467  -0.466  -0.466
 -0.465  -0.465  -0.463  -0.463  -0.463  -0.461  -0.459  -0.458
 -0.456  -0.455  -0.453  -0.449  -0.447  -0.445  -0.445  -0.443
 -0.443  -0.441  -0.439  -0.439  -0.438  -0.437  -0.435  -0.432
 -0.431  -0.429  -0.429  -0.427  -0.427  -0.426  -0.425  -0.425
 -0.424  -0.423  -0.422  -0.421  -0.420  -0.420  -0.419  -0.419
 -0.418  -0.417  -0.416  -0.416  -0.416  -0.415  -0.414  -0.413
 -0.412  -0.410  -0.409  -0.407  -0.405  -0.401  -0.399  -0.398
 -0.395  -0.393  -0.392  -0.389  -0.388  -0.387  -0.384  -0.383
 -0.380  -0.376  -0.375  -0.372  -0.370  -0.367  -0.365  -0.363
 -0.362  -0.362  -0.361  -0.361  -0.360  -0.358  -0.357  -0.357
 -0.356  -0.355  -0.354  -0.354  -0.354  -0.353  -0.352  -0.350
 -0.349  -0.348  -0.346  -0.346  -0.344  -0.343  -0.342  -0.340
 -0.339  -0.339  -0.338  -0.338  -0.336  -0.336  -0.334  -0.334
 -0.333  -0.331  -0.330  -0.329  -0.328  -0.326  -0.324  -0.321
 -0.312  -0.306  -0.301  -0.297  -0.288  -0.283  -0.272  -0.271
 -0.270  -0.269  -0.268  -0.268  -0.267  -0.266  -0.265  -0.264
 -0.262  -0.261  -0.259  -0.259  -0.257  -0.256  -0.253  -0.251
 -0.246  -0.245  -0.242  -0.238  -0.220  -0.218  -0.213  -0.212
 -0.210  -0.208  -0.206  -0.203  -0.198  -0.195

          Ground-State Mulliken Net Atomic Charges

     Atom                 Charge (a.u.)
  ----------------------------------------
      1 O                    -0.500559
      2 C                    -0.085095
      3 H                     0.124369
      4 H                     0.128340
      5 H                     0.134419
      6 O                    -0.413823
      7 C                     0.585131
      8 C                    -0.266864
      9 H                     0.123580
     10 H                     0.132097
     11 C                    -0.171029
     12 H                     0.114919
     13 H                     0.125309
     14 C                    -0.194148
     15 H                     0.106398
     16 H                     0.098174
     17 C                     0.000252
     18 C                     0.089669
     19 C                    -0.101183
     20 H                     0.096414
     21 C                    -0.092104
     22 H                     0.094038
     23 C                    -0.093178
     24 H                     0.094530
     25 C                    -0.095094
     26 H                     0.094358
     27 C                    -0.084629
     28 H                     0.096903
     29 C                    -0.014524
     30 C                     0.023432
     31 C                    -0.032340
     32 C                     0.018394
     33 C                    -0.007398
     34 C                    -0.012439
     35 C                    -0.007950
     36 C                     0.001107
     37 C                     0.008230
     38 C                     0.000654
     39 C                    -0.101843
     40 C                     0.006081
     41 C                    -0.003227
     42 C                     0.007725
     43 C                    -0.030502
     44 C                     0.022265
     45 C                    -0.077224
     46 C                     0.013553
     47 C                     0.027962
     48 C                    -0.005588
     49 C                     0.003199
     50 C                     0.003670
     51 C                     0.008717
     52 C                     0.002327
     53 C                     0.028055
     54 C                    -0.010484
     55 C                    -0.005775
     56 C                    -0.017084
     57 C                     0.020056
     58 C                    -0.010947
     59 C                     0.015962
     60 C                     0.014991
     61 C                    -0.017190
     62 C                    -0.026310
     63 C                     0.015544
     64 C                     0.000901
     65 C                    -0.006645
     66 C                    -0.008469
     67 C                    -0.000236
     68 C                     0.007886
     69 C                    -0.007731
     70 C                     0.009187
     71 C                     0.004393
     72 C                     0.004127
     73 C                    -0.003506
     74 C                    -0.013536
     75 C                    -0.014836
     76 C                    -0.002801
     77 C                    -0.006643
     78 C                    -0.014684
     79 C                    -0.002534
     80 C                     0.034441
     81 C                     0.030526
     82 C                    -0.005781
     83 C                    -0.000098
     84 C                    -0.015960
     85 C                    -0.014466
     86 C                     0.005024
     87 C                     0.015876
     88 C                     0.000342
     89 O                    -0.439473
     90 C                    -0.089186
     91 H                     0.140385
     92 H                     0.127861
     93 H                     0.133904
     94 O                    -0.499916
     95 C                     0.591308
     96 C                    -0.270025
     97 H                     0.132079
     98 H                     0.134711
     99 C                    -0.194258
    100 H                     0.141944
    101 H                     0.095782
    102 C                    -0.179371
    103 H                     0.119938
    104 H                     0.104421
    105 C                     0.013448
    106 C                     0.097184
    107 C                    -0.111826
    108 H                     0.118717
    109 C                    -0.102163
    110 H                     0.100774
    111 C                    -0.104119
    112 H                     0.094753
    113 C                    -0.096066
    114 H                     0.093311
    115 C                    -0.104650
    116 H                     0.085310
    117 C                    -0.000478
    118 C                     0.004973
    119 C                     0.005747
    120 C                    -0.053928
    121 C                    -0.004864
    122 C                    -0.018740
    123 C                    -0.017750
    124 C                    -0.019443
    125 C                     0.003682
    126 C                    -0.036156
    127 C                    -0.107338
    128 C                     0.013534
    129 C                    -0.008257
    130 C                     0.028741
    131 C                     0.012830
    132 C                    -0.020463
    133 C                    -0.092038
    134 C                     0.038582
    135 C                     0.026519
    136 C                    -0.018299
    137 C                    -0.017654
    138 C                     0.003067
    139 C                    -0.014720
    140 C                     0.013843
    141 C                     0.028830
    142 C                     0.001219
    143 C                    -0.003385
    144 C                    -0.044392
    145 C                     0.029058
    146 C                     0.021152
    147 C                     0.041778
    148 C                     0.026949
    149 C                    -0.008000
    150 C                    -0.016424
    151 C                    -0.011823
    152 C                     0.002527
    153 C                     0.022133
    154 C                     0.011372
    155 C                     0.008426
    156 C                     0.012393
    157 C                    -0.025096
    158 C                     0.037242
    159 C                    -0.012974
    160 C                    -0.003797
    161 C                    -0.011444
    162 C                    -0.028248
    163 C                    -0.026760
    164 C                     0.032951
    165 C                     0.001677
    166 C                     0.031433
    167 C                    -0.017764
    168 C                     0.021469
    169 C                     0.001734
    170 C                    -0.000823
    171 C                    -0.011356
    172 C                    -0.013535
    173 C                     0.051997
    174 C                    -0.005362
    175 C                    -0.013447
    176 C                     0.017058
  ----------------------------------------
  Sum of atomic charges =     0.000000

                    Cartesian Multipole Moments
 -----------------------------------------------------------------
    Charge (ESU x 10^10)
                 0.0000
    Dipole Moment (Debye)
         X       0.0645      Y       0.4977      Z      -1.3114
       Tot       1.4041
    Quadrupole Moments (Debye-Ang)
        XX    -781.7934     XY      29.9498     YY    -804.7112
        XZ       9.6820     YZ      -7.2305     ZZ    -792.6664

 Total job time:  876.99s(wall), 8301.27s(cpu)
        *  Thank you very much for using Q-Chem.  Have a nice day.  *
