 Q-Chem 4.4, Q-Chem, Inc., Pleasanton, CA (2016)
 Q-Chem 4.4.2 for Intel X86 Linux

User input:
--------------------------------------------------------------
$comment
SP
$end

$rem
MEM_STATIC 5000
MEM_TOTAL 20000
JOBTYPE SP
EXCHANGE B3LYP
BASIS 6-31g(d,p)
$end

$molecule
0 1
O         -13.233000      2.048000     -3.187000
C         -11.777000      2.213000     -3.427000
H         -11.366000      3.227000     -3.347000
H         -11.454000      1.992000     -4.451000
H         -11.136000      1.676000     -2.717000
O         -14.079000      3.407000     -4.849000
C         -14.259000      2.697000     -3.895000
C         -15.641000      2.522000     -3.267000
H         -15.733000      1.429000     -3.233000
H         -16.234000      3.037000     -4.033000
C         -15.920000      3.164000     -1.920000
H         -15.404000      2.563000     -1.161000
H         -15.438000      4.148000     -1.881000
C         -17.393000      3.435000     -1.627000
H         -17.931000      3.495000     -2.581000
H         -17.815000      2.519000     -1.195000
C         -17.561000      4.677000     -0.742000
C         -17.310000      4.366000      0.692000
C         -18.304000      3.710000      1.449000
H         -19.347000      3.589000      1.170000
C         -18.070000      3.544000      2.801000
H         -18.751000      3.043000      3.484000
C         -16.729000      3.827000      3.311000
H         -16.501000      3.507000      4.323000
C         -15.736000      4.443000      2.508000
H         -14.753000      4.512000      2.964000
C         -16.061000      4.737000      1.207000
H         -15.267000      5.228000      0.652000
C         -20.623000      9.114000      0.589000
C         -18.405000      9.944000      0.875000
C         -18.147000     12.579000     -2.890000
C         -21.151000      7.017000     -4.093000
C         -16.469000     10.114000     -4.787000
C         -19.333000      8.933000      1.041000
C         -19.430000      8.366000     -5.793000
C         -19.940000     12.200000     -1.237000
C         -15.810000      7.898000     -1.497000
C         -19.915000      6.455000     -4.370000
C         -17.250000      6.007000     -1.333000
C         -15.866000      7.320000     -2.769000
C         -17.793000      6.900000     -4.779000
C         -18.461000      9.349000     -5.913000
C         -17.393000      7.917000      0.317000
C         -18.349000     11.567000     -4.932000
C         -18.680000      5.726000     -1.007000
C         -19.645000      5.657000     -2.118000
C         -17.044000     11.332000     -4.474000
C         -21.972000     10.371000     -3.465000
C         -20.428000     12.055000     -3.636000
C         -20.810000     11.931000     -2.298000
C         -20.034000     11.424000     -0.084000
C         -20.883000      6.302000     -1.787000
C         -16.579000      7.183000     -0.632000
C         -18.721000     11.245000      0.372000
C         -19.080000      7.130000     -5.215000
C         -17.146000      9.320000      0.508000
C         -15.846000      8.138000     -3.934000
C         -22.209000      8.183000     -2.500000
C         -18.595000     12.531000     -1.567000
C         -16.780000      6.244000     -2.651000
C         -21.854000     10.153000     -1.015000
C         -16.784000      7.924000     -4.984000
C         -15.663000      9.287000     -1.394000
C         -20.411000     10.320000     -5.285000
C         -20.651000      8.948000     -5.471000
C         -15.531000     10.064000     -2.527000
C         -21.610000      6.959000     -2.778000
C         -19.132000      5.805000     -3.394000
C         -22.159000      8.981000     -3.628000
C         -19.395000      6.599000      0.009000
C         -16.605000     11.275000     -0.896000
C         -17.792000      6.143000     -3.668000
C         -15.707000      9.495000     -3.774000
C         -22.066000      8.749000     -1.167000
C         -16.871000     11.969000     -3.215000
C         -20.979000     10.383000      0.064000
C         -19.024000     12.336000     -3.930000
C         -16.281000      9.984000     -0.375000
C         -16.117000     11.327000     -2.214000
C         -18.712000      7.708000      0.650000
C         -20.668000      6.902000     -0.500000
C         -21.111000     11.077000     -4.349000
C         -17.853000     11.873000     -0.554000
C         -17.106000      9.131000     -5.511000
C         -21.527000      8.231000     -4.680000
C         -19.061000     10.564000     -5.594000
C         -21.285000      8.123000     -0.201000
C         -21.795000     10.920000     -2.204000
O          -9.332000     13.301000      9.338000
C         -10.638000     13.873000      9.582000
H         -10.998000     14.180000      8.592000
H         -10.553000     14.777000     10.197000
H         -11.240000     13.167000     10.167000
O          -8.651000     14.833000      7.850000
C          -8.465000     13.816000      8.510000
C          -7.209000     12.950000      8.433000
H          -7.595000     11.932000      8.297000
H          -6.755000     13.026000      9.428000
C          -6.321000     13.247000      7.160000
H          -6.459000     14.292000      6.857000
H          -5.300000     13.242000      7.562000
C          -6.416000     12.214000      5.916000
H          -5.463000     12.362000      5.393000
H          -6.635000     11.191000      6.245000
C          -7.483000     12.653000      4.841000
C          -6.962000     13.888000      4.152000
C          -7.399000     15.182000      4.449000
H          -8.209000     15.158000      5.171000
C          -6.878000     16.332000      3.812000
H          -7.182000     17.341000      4.074000
C          -5.729000     16.170000      2.933000
H          -5.245000     17.049000      2.518000
C          -5.393000     14.813000      2.475000
H          -4.583000     14.572000      1.792000
C          -5.914000     13.736000      3.200000
H          -5.713000     12.697000      2.956000
C         -12.656000     13.239000      3.427000
C         -11.593000     12.708000      1.281000
C         -13.322000      8.512000      1.142000
C         -11.730000      9.909000      6.991000
C         -10.514000      6.858000      2.375000
C         -11.550000     13.369000      2.545000
C         -11.455000      7.302000      5.766000
C         -14.306000     10.604000      1.785000
C          -8.434000     10.319000      2.082000
C         -10.415000      9.401000      6.751000
C          -8.032000     11.559000      4.000000
C          -8.179000      9.375000      3.061000
C          -9.245000      8.135000      5.291000
C         -11.432000      6.633000      4.572000
C          -9.450000     12.494000      2.143000
C         -12.933000      6.872000      2.660000
C          -8.912000     12.375000      4.970000
C          -9.601000     11.598000      6.099000
C         -11.818000      7.005000      1.893000
C         -14.651000      9.700000      5.140000
C         -14.639000      8.617000      3.166000
C         -14.852000      9.969000      2.948000
C         -13.795000     11.918000      1.862000
C         -10.832000     12.095000      6.298000
C          -8.427000     11.611000      2.558000
C         -12.718000     11.967000      0.967000
C         -10.330000      8.095000      6.158000
C         -10.304000     12.228000      0.990000
C          -8.705000      8.056000      3.005000
C         -13.204000     11.334000      6.224000
C         -13.539000      9.881000      0.933000
C          -8.065000     10.057000      4.267000
C         -14.317000     11.952000      4.204000
C          -9.191000      7.379000      4.081000
C          -9.293000     10.004000      1.030000
C         -13.495000      7.461000      4.918000
C         -12.672000      7.862000      5.972000
C          -9.755000      8.668000      0.959000
C         -11.922000     11.280000      6.731000
C          -9.401000     10.231000      6.262000
C         -13.794000     10.041000      6.212000
C         -10.062000     13.122000      4.452000
C         -11.305000     10.201000      0.107000
C          -8.689000      9.476000      5.351000
C          -9.473000      7.706000      1.925000
C         -13.522000     12.306000      5.286000
C         -12.072000      7.973000      0.878000
C         -13.761000     12.545000      3.065000
C         -13.845000      7.868000      2.261000
C         -10.193000     10.924000      0.474000
C         -11.017000      8.826000      0.417000
C         -10.273000     13.197000      3.068000
C         -11.136000     13.047000      5.318000
C         -14.470000      8.425000      4.552000
C         -12.590000     10.675000      0.373000
C         -10.306000      6.648000      3.745000
C         -12.819000      9.120000      6.585000
C         -12.727000      6.715000      4.020000
C         -12.448000     13.138000      4.832000
C         -14.863000     10.643000      4.118000
$end

--------------------------------------------------------------

             Standard Nuclear Orientation (Angstroms)
    I     Atom           X                Y                Z
 ----------------------------------------------------------------
    1      O      -3.9146959120     6.8364910601     3.2611583041
    2      C      -2.9314090141     7.0979571023     4.3426125959
    3      H      -2.2678674446     6.2726494375     4.6291380640
    4      H      -3.3741033141     7.2934629640     5.3262513582
    5      H      -2.1972736207     7.8790950400     4.1097634034
    6      O      -5.1180158184     5.1110035963     4.2096071510
    7      C      -4.8978070361     5.8322490809     3.2726284729
    8      C      -5.5969975784     5.6452550881     1.9268577523
    9      H      -5.9807069177     6.6550190004     1.7334333892
   10      H      -6.3359653028     4.8934358862     2.2307073696
   11      C      -4.7988072378     5.1001948749     0.7562956890
   12      H      -4.1473984906     5.9091409074     0.4030097418
   13      H      -4.1165679386     4.3204270922     1.1149218786
   14      C      -5.6288482229     4.4268458699    -0.3330399253
   15      H      -6.5796963872     4.1016978573     0.1066492131
   16      H      -5.9636289988     5.2121037942    -1.0222828611
   17      C      -4.8409197721     3.2974109108    -1.0094705790
   18      C      -3.8918246684     3.8250639065    -2.0277430378
   19      C      -4.3747922208     4.2255331881    -3.2917793102
   20      H      -5.3501942278     3.9915463666    -3.7091186112
   21      C      -3.4428101648     4.6018473077    -4.2404695286
   22      H      -3.6910705192     4.9429859727    -5.2420893206
   23      C      -2.0588994472     4.7986803978    -3.8109141068
   24      H      -1.3824117620     5.2816634316    -4.5092118948
   25      C      -1.6165305833     4.4307171557    -2.5150642541
   26      H      -0.5954242874     4.7149781359    -2.2794297327
   27      C      -2.5458714948     3.9111428436    -1.6484443811
   28      H      -2.1404606524     3.6279163040    -0.6815075806
   29      C      -4.9427833091    -1.6881944973    -3.4523656923
   30      C      -2.8765698828    -1.7660518182    -2.2628614619
   31      C      -4.1314143464    -4.5923343683     1.1463182516
   32      C      -8.7830573861    -0.3774597198    -0.2693503991
   33      C      -4.7854471142    -1.9562542622     3.4076985409
   34      C      -3.7739924572    -1.0742631534    -3.0546456282
   35      C      -8.1145655779    -1.3151451236     2.2496785380
   36      C      -4.5830418957    -4.5994570367    -1.2799712662
   37      C      -3.0084709741     0.7011684279     0.9685393736
   38      C      -8.2081072659     0.5007105329     0.6353696496
   39      C      -4.5561648243     2.0692339058    -0.2186495726
   40      C      -3.9896960420     1.0917663477     1.8849642920
   41      C      -6.7476421655     0.6817938215     2.2792797850
   42      C      -7.1678825665    -1.9629117727     3.0267497345
   43      C      -3.0860197544     0.3991280446    -1.4188449259
   44      C      -5.8153520101    -3.9198846475     2.5416237084
   45      C      -5.5043721167     1.9348509550    -1.3645034696
   46      C      -6.9046091318     1.5844090887    -1.0698277157
   47      C      -4.6484811689    -3.2496349122     2.9380978340
   48      C      -7.9824528875    -3.7322335707    -0.9191702555
   49      C      -6.4257181938    -4.8735197781     0.3149593513
   50      C      -5.9445879709    -4.7262490664    -0.9882555374
   51      C      -4.2003219181    -3.7677796238    -2.3298565454
   52      C      -7.4231638011     0.6330113062    -2.0101326207
   53      C      -3.2785411250     1.2378614128    -0.2520480888
   54      C      -3.0115168134    -3.1482917227    -1.9212942326
   55      C      -7.8895627865     0.0241686956     1.8756568309
   56      C      -2.3576030839    -0.8320597143    -1.2792567589
   57      C      -4.4213962708     0.1964822771     2.9042043743
   58      C      -8.2522374629    -1.6288229116    -2.0494878577
   59      C      -3.6846936815    -4.5387273485    -0.1768990151
   60      C      -4.9255136939     1.8440671892     1.1330435739
   61      C      -6.4943558612    -3.2219431529    -2.8136672678
   62      C      -5.8097096984    -0.0018701592     3.1519585625
   63      C      -2.4110082926    -0.5568855859     1.1164496260
   64      C      -7.9346016140    -3.4072807250     1.4565060490
   65      C      -8.6453161370    -2.2027411959     1.3203099047
   66      C      -2.7533464945    -1.3757372249     2.1733926466
   67      C      -8.3523363342    -0.3186201559    -1.5938455033
   68      C      -7.2443715467     1.4611485277     0.2653192184
   69      C      -8.6457414752    -2.4919916523    -1.0436139504
   70      C      -5.1557837043     1.0021186706    -2.5108483585
   71      C      -2.1977508825    -2.6703944039     0.3580870787
   72      C      -6.3140153784     1.5198586859     1.3216858770
   73      C      -3.8055357321    -1.0274984112     2.9988461807
   74      C      -7.1738397781    -1.9748729948    -2.9632721721
   75      C      -3.5704117539    -3.6618100688     2.1082442464
   76      C      -5.1303204925    -3.0547595458    -3.1206251715
   77      C      -5.4775588867    -4.7435610811     1.4198202771
   78      C      -2.0430306801    -1.2932073684     0.0080648962
   79      C      -2.6106759619    -2.7150455398     1.7017652973
   80      C      -3.9258382191     0.2312278973    -2.4962703232
   81      C      -6.3086465003     0.2717084046    -2.8407380623
   82      C      -7.6585227119    -4.2344461933     0.3708160712
   83      C      -2.7315587808    -3.5791701704    -0.6017294318
   84      C      -5.9923740683    -1.2996315706     3.4993935160
   85      C      -9.0394373645    -1.7048696541     0.0939582480
   86      C      -7.0467254395    -3.2604183739     2.5370727283
   87      C      -6.2101945882    -1.0388452435    -3.3241502636
   88      C      -6.9272859107    -4.0597137079    -1.7571621474
   89      O       9.9333609270    -1.2503963849    -3.1853142380
   90      C       9.2899664275    -2.1629764980    -4.1048777513
   91      H       8.5250817251    -2.6714906323    -3.5046163355
   92      H       9.9992307878    -2.9250498504    -4.4496302316
   93      H       8.9783588126    -1.6145284210    -5.0021906294
   94      O      10.0163187189    -2.6550452310    -1.4403189303
   95      C      10.2365509365    -1.5639474578    -1.9555746140
   96      C      10.8526420882    -0.3701826686    -1.2284031617
   97      H      10.1727999793     0.4604028261    -1.4559079815
   98      H      11.8077745291    -0.1948240090    -1.7372138935
   99      C      10.8377093442    -0.5197727022     0.3447089878
  100      H      10.8754636423    -1.5836677497     0.6084890873
  101      H      11.8318004426    -0.1598252152     0.6384617661
  102      C       9.7045287801     0.2924763477     1.1692108314
  103      H      10.1411892125     0.3857316812     2.1713451086
  104      H       9.4252044533     1.2295776608     0.6726727670
  105      C       8.4066541989    -0.5657383754     1.4257728330
  106      C       8.7587257359    -1.6507443070     2.4107574832
  107      C       9.0114899074    -2.9757127240     2.0444475494
  108      H       8.8378979729    -3.1209199558     0.9829671209
  109      C       9.3685814690    -3.9746104323     2.9795405849
  110      H       9.6110658038    -4.9932273100     2.6918567242
  111      C       9.6415237486    -3.5672694507     4.3501834402
  112      H      10.0209468543    -4.2967620996     5.0594087797
  113      C       9.1982628318    -2.2311005886     4.7771278532
  114      H       9.3137406280    -1.8309094134     5.7807123797
  115      C       8.9163412663    -1.2916395804     3.7796669543
  116      H       8.5992745313    -0.2740676834     3.9881714388
  117      C       3.9155105926    -2.8517545258    -0.4994493015
  118      C       3.2523081000    -2.2601485017     1.7869038572
  119      C       0.6007037149     1.1674300959     0.4319584184
  120      C       5.7115048435     0.9709941678    -3.1089452445
  121      C       2.9066951522     3.7231542559     0.9719088873
  122      C       4.2446501444    -2.7341109074     0.8774628724
  123      C       4.3792661299     3.3872718515    -2.2374860286
  124      C       0.9017653573    -1.0414106675    -0.4560468570
  125      C       5.3329538977     1.0506871352     2.8054731726
  126      C       6.3836274934     1.8262049700    -2.1806378453
  127      C       7.1605521190     0.2099248145     1.6518131439
  128      C       5.8177658567     2.1286567045     2.0860699671
  129      C       5.9845418459     3.2208716072    -0.4489070300
  130      C       3.4751946234     3.8965810074    -1.3447459237
  131      C       5.2871799644    -1.3101149752     2.3683002745
  132      C       1.2935100528     3.0037085318    -0.7052952402
  133      C       7.3420778442    -0.7242098550     0.4370716775
  134      C       7.2702574380    -0.0755862508    -0.9511719068
  135      C       1.6991264635     3.1338402200     0.5861164181
  136      C       2.3788849995     0.0757904870    -3.4161558319
  137      C       0.8720576711     0.8880873278    -1.9535026792
  138      C       0.9996897532    -0.4798225028    -1.7709383149
  139      C       1.7296766891    -2.1203937965    -0.0765679587
  140      C       6.6322847703    -0.8992702937    -1.7976389604
  141      C       6.0205761577    -0.1174589544     2.5636068023
  142      C       2.0046837717    -1.9363785053     1.2849989611
  143      C       5.6896120910     3.0228391055    -1.7921544264
  144      C       3.8832633536    -1.4449343463     2.7428972405
  145      C       4.9898103666     3.2100956327     1.6804191926
  146      C       4.6004604574    -0.9104414562    -3.2407419251
  147      C       0.7359981247    -0.2167980190     0.6067123841
  148      C       6.8343014151     1.6501229617     1.2674021983
  149      C       2.7574302124    -2.0554290206    -2.2440794981
  150      C       5.0670505813     3.8201905971     0.4662861342
  151      C       3.9707880282     0.9717536199     3.0919756059
  152      C       2.4120138747     2.5222031986    -2.7737320447
  153      C       3.7752078091     2.5090169986    -3.0746878909
  154      C       3.1759303436     2.0871441397     2.7349234395
  155      C       5.8353392624    -0.4130856391    -2.8785257903
  156      C       7.0954502565     1.2965343904    -1.0994466361
  157      C       3.7595495111     0.1317040532    -3.7170763850
  158      C       6.4112689734    -1.8381794999     0.2333574749
  159      C       1.9909832187     0.0710621415     2.6358947174
  160      C       6.8438358177     2.1282010318    -0.0261755744
  161      C       3.6673786792     3.1889515204     2.0402126873
  162      C       4.1022498177    -2.0296200653    -2.5888390188
  163      C       1.2008640637     2.0295300678     1.3371148658
  164      C       2.6683637806    -2.5716066560    -0.9464918057
  165      C       0.6865013912     1.7397299325    -0.8351397056
  166      C       3.2552172300    -0.2338417566     3.0861257442
  167      C       1.9668439073     1.4936608681     2.4230587318
  168      C       5.4491370133    -2.1248886878     1.2119799419
  169      C       6.1131102311    -1.9998547607    -1.1060526470
  170      C       1.7683649619     1.2729062721    -2.9708367545
  171      C       1.3461615997    -0.7399915022     1.7015210948
  172      C       3.8167123928     4.1351407234    -0.0111474552
  173      C       4.4206137945     1.3410845631    -3.5211483484
  174      C       2.2123535120     3.3638478340    -1.6762284925
  175      C       4.8800124343    -2.5390634615    -1.4991745115
  176      C       1.8997902469    -0.9928301978    -2.6369286186
 ----------------------------------------------------------------

    9   -5804.2131723075      8.59E-06 Convergence criterion met
 Total energy in the final basis set = -5804.2131723075

                    Orbital Energies (a.u.)
 --------------------------------------------------------------

 Alpha MOs
 -- Occupied --
-19.198 -19.186 -19.137 -19.131 -10.317 -10.314 -10.253 -10.247
-10.237 -10.237 -10.236 -10.236 -10.231 -10.230 -10.228 -10.226
-10.224 -10.224 -10.223 -10.222 -10.222 -10.222 -10.221 -10.221
-10.221 -10.221 -10.220 -10.219 -10.219 -10.219 -10.219 -10.219
-10.219 -10.218 -10.218 -10.218 -10.217 -10.217 -10.217 -10.216
-10.216 -10.216 -10.216 -10.215 -10.215 -10.215 -10.215 -10.215
-10.215 -10.215 -10.215 -10.215 -10.215 -10.215 -10.214 -10.214
-10.214 -10.214 -10.214 -10.214 -10.214 -10.213 -10.213 -10.213
-10.213 -10.213 -10.213 -10.213 -10.213 -10.213 -10.213 -10.213
-10.212 -10.212 -10.212 -10.212 -10.212 -10.212 -10.212 -10.212
-10.212 -10.212 -10.212 -10.212 -10.212 -10.212 -10.212 -10.211
-10.211 -10.211 -10.211 -10.211 -10.211 -10.211 -10.210 -10.210
-10.210 -10.210 -10.210 -10.210 -10.210 -10.210 -10.210 -10.209
-10.209 -10.209 -10.209 -10.209 -10.209 -10.209 -10.209 -10.209
-10.209 -10.208 -10.208 -10.208 -10.208 -10.208 -10.208 -10.208
-10.207 -10.207 -10.207 -10.207 -10.206 -10.206 -10.206 -10.206
-10.204 -10.204 -10.204 -10.204 -10.204 -10.203 -10.203 -10.203
-10.203 -10.202 -10.201 -10.200 -10.198 -10.198 -10.197 -10.195
-10.195 -10.195 -10.194 -10.192  -1.111  -1.076  -1.007  -1.004
 -0.987  -0.982  -0.969  -0.968  -0.964  -0.963  -0.961  -0.959
 -0.938  -0.932  -0.929  -0.929  -0.927  -0.925  -0.925  -0.924
 -0.920  -0.918  -0.898  -0.895  -0.895  -0.891  -0.887  -0.884
 -0.878  -0.873  -0.851  -0.846  -0.844  -0.842  -0.839  -0.838
 -0.837  -0.835  -0.819  -0.818  -0.806  -0.801  -0.800  -0.798
 -0.795  -0.794  -0.794  -0.793  -0.793  -0.789  -0.787  -0.782
 -0.775  -0.771  -0.768  -0.768  -0.766  -0.765  -0.762  -0.759
 -0.755  -0.743  -0.742  -0.736  -0.733  -0.726  -0.720  -0.718
 -0.716  -0.715  -0.714  -0.712  -0.710  -0.710  -0.710  -0.709
 -0.707  -0.706  -0.704  -0.704  -0.703  -0.701  -0.674  -0.672
 -0.663  -0.658  -0.656  -0.654  -0.647  -0.644  -0.633  -0.632
 -0.629  -0.625  -0.624  -0.623  -0.620  -0.620  -0.617  -0.616
 -0.615  -0.614  -0.614  -0.612  -0.610  -0.609  -0.606  -0.606
 -0.606  -0.603  -0.602  -0.601  -0.566  -0.565  -0.564  -0.563
 -0.562  -0.561  -0.560  -0.557  -0.557  -0.555  -0.553  -0.553
 -0.537  -0.534  -0.532  -0.532  -0.530  -0.527  -0.525  -0.524
 -0.523  -0.523  -0.521  -0.517  -0.517  -0.514  -0.514  -0.514
 -0.505  -0.503  -0.500  -0.495  -0.493  -0.490  -0.488  -0.486
 -0.484  -0.483  -0.482  -0.480  -0.477  -0.475  -0.474  -0.473
 -0.472  -0.471  -0.471  -0.470  -0.468  -0.468  -0.467  -0.465
 -0.464  -0.462  -0.462  -0.461  -0.460  -0.459  -0.458  -0.457
 -0.455  -0.451  -0.450  -0.449  -0.448  -0.446  -0.445  -0.443
 -0.441  -0.439  -0.439  -0.438  -0.437  -0.437  -0.434  -0.432
 -0.430  -0.429  -0.428  -0.428  -0.426  -0.426  -0.425  -0.423
 -0.423  -0.423  -0.421  -0.421  -0.420  -0.419  -0.418  -0.417
 -0.417  -0.416  -0.416  -0.416  -0.415  -0.414  -0.413  -0.413
 -0.409  -0.408  -0.407  -0.407  -0.400  -0.400  -0.399  -0.396
 -0.396  -0.394  -0.391  -0.389  -0.387  -0.386  -0.384  -0.383
 -0.377  -0.376  -0.373  -0.370  -0.368  -0.367  -0.366  -0.364
 -0.362  -0.362  -0.361  -0.359  -0.358  -0.357  -0.357  -0.357
 -0.355  -0.355  -0.354  -0.353  -0.352  -0.350  -0.350  -0.349
 -0.348  -0.347  -0.347  -0.345  -0.344  -0.344  -0.342  -0.341
 -0.340  -0.339  -0.339  -0.337  -0.337  -0.335  -0.335  -0.334
 -0.333  -0.331  -0.330  -0.329  -0.327  -0.325  -0.323  -0.322
 -0.313  -0.306  -0.302  -0.295  -0.286  -0.283  -0.272  -0.271
 -0.270  -0.268  -0.268  -0.267  -0.266  -0.265  -0.264  -0.264
 -0.262  -0.261  -0.260  -0.259  -0.257  -0.255  -0.253  -0.251
 -0.247  -0.245  -0.239  -0.237  -0.221  -0.216  -0.213  -0.211
 -0.208  -0.207  -0.207  -0.206  -0.196  -0.192

          Ground-State Mulliken Net Atomic Charges

     Atom                 Charge (a.u.)
  ----------------------------------------
      1 O                    -0.492269
      2 C                    -0.090008
      3 H                     0.122845
      4 H                     0.129273
      5 H                     0.128355
      6 O                    -0.440174
      7 C                     0.576583
      8 C                    -0.249195
      9 H                     0.126453
     10 H                     0.136841
     11 C                    -0.184558
     12 H                     0.121400
     13 H                     0.111808
     14 C                    -0.187549
     15 H                     0.108985
     16 H                     0.113997
     17 C                     0.008768
     18 C                     0.082174
     19 C                    -0.102056
     20 H                     0.098340
     21 C                    -0.090088
     22 H                     0.090959
     23 C                    -0.097005
     24 H                     0.083700
     25 C                    -0.087603
     26 H                     0.095416
     27 C                    -0.097504
     28 H                     0.097858
     29 C                    -0.013063
     30 C                     0.010266
     31 C                     0.006518
     32 C                     0.011503
     33 C                     0.009238
     34 C                    -0.009842
     35 C                     0.002844
     36 C                     0.000180
     37 C                     0.030391
     38 C                    -0.017561
     39 C                    -0.062993
     40 C                    -0.014100
     41 C                    -0.001453
     42 C                    -0.012200
     43 C                     0.030642
     44 C                    -0.015971
     45 C                    -0.087712
     46 C                     0.012496
     47 C                     0.005647
     48 C                     0.000495
     49 C                    -0.005717
     50 C                     0.000559
     51 C                     0.007599
     52 C                     0.007446
     53 C                     0.002634
     54 C                    -0.008260
     55 C                     0.006575
     56 C                    -0.029506
     57 C                    -0.013807
     58 C                     0.005452
     59 C                     0.002557
     60 C                     0.015517
     61 C                    -0.027805
     62 C                    -0.013662
     63 C                     0.024616
     64 C                     0.030271
     65 C                     0.000230
     66 C                     0.003711
     67 C                     0.000260
     68 C                    -0.009841
     69 C                    -0.002879
     70 C                     0.017256
     71 C                     0.001478
     72 C                     0.017595
     73 C                     0.013314
     74 C                    -0.011934
     75 C                    -0.005761
     76 C                     0.011070
     77 C                    -0.005153
     78 C                    -0.015939
     79 C                    -0.026300
     80 C                    -0.001187
     81 C                    -0.001316
     82 C                    -0.025363
     83 C                    -0.003425
     84 C                     0.009042
     85 C                    -0.024042
     86 C                     0.009114
     87 C                     0.020484
     88 C                     0.016221
     89 O                    -0.440080
     90 C                    -0.089163
     91 H                     0.140761
     92 H                     0.128160
     93 H                     0.133233
     94 O                    -0.499216
     95 C                     0.591434
     96 C                    -0.270121
     97 H                     0.131826
     98 H                     0.134626
     99 C                    -0.194337
    100 H                     0.142160
    101 H                     0.095764
    102 C                    -0.179473
    103 H                     0.120028
    104 H                     0.104117
    105 C                     0.014966
    106 C                     0.095974
    107 C                    -0.111434
    108 H                     0.118632
    109 C                    -0.101629
    110 H                     0.101017
    111 C                    -0.104940
    112 H                     0.095118
    113 C                    -0.095873
    114 H                     0.093442
    115 C                    -0.103930
    116 H                     0.085033
    117 C                    -0.000781
    118 C                     0.004278
    119 C                     0.010904
    120 C                    -0.049715
    121 C                    -0.006005
    122 C                    -0.017413
    123 C                    -0.012657
    124 C                    -0.013929
    125 C                     0.004580
    126 C                    -0.036602
    127 C                    -0.107570
    128 C                     0.013529
    129 C                    -0.008656
    130 C                     0.026453
    131 C                     0.012748
    132 C                    -0.025389
    133 C                    -0.091993
    134 C                     0.037760
    135 C                     0.021667
    136 C                    -0.022910
    137 C                    -0.004223
    138 C                     0.016281
    139 C                    -0.018185
    140 C                     0.013964
    141 C                     0.029280
    142 C                    -0.000712
    143 C                    -0.003264
    144 C                    -0.043376
    145 C                     0.029616
    146 C                     0.023742
    147 C                     0.044128
    148 C                     0.027300
    149 C                    -0.006566
    150 C                    -0.016780
    151 C                    -0.012484
    152 C                    -0.005617
    153 C                     0.016622
    154 C                     0.010957
    155 C                     0.007302
    156 C                     0.013409
    157 C                    -0.030351
    158 C                     0.037464
    159 C                    -0.011711
    160 C                    -0.003232
    161 C                    -0.011657
    162 C                    -0.028388
    163 C                    -0.030048
    164 C                     0.034301
    165 C                     0.005032
    166 C                     0.032806
    167 C                    -0.017013
    168 C                     0.021883
    169 C                     0.002164
    170 C                    -0.005842
    171 C                    -0.011729
    172 C                    -0.015602
    173 C                     0.046664
    174 C                    -0.005836
    175 C                    -0.013992
    176 C                     0.017122
  ----------------------------------------
  Sum of atomic charges =     0.000000

                    Cartesian Multipole Moments
 -----------------------------------------------------------------
    Charge (ESU x 10^10)
                 0.0000
    Dipole Moment (Debye)
         X       4.2701      Y       3.1005      Z      -2.0604
       Tot       5.6650
    Quadrupole Moments (Debye-Ang)
        XX    -782.1303     XY      -4.2723     YY    -793.6252
        XZ       8.2268     YZ      -2.7179     ZZ    -794.8886

 Total job time:  887.93s(wall), 8470.13s(cpu)
        *  Thank you very much for using Q-Chem.  Have a nice day.  *
