 Q-Chem 4.4, Q-Chem, Inc., Pleasanton, CA (2016)
 Q-Chem 4.4.2 for Intel X86 Linux

User input:
--------------------------------------------------------------
$comment
SP
$end

$rem
MEM_STATIC 5000
MEM_TOTAL 20000
JOBTYPE SP
EXCHANGE B3LYP
BASIS 6-31g(d,p)
$end

$molecule
0 1
O         -23.879000     11.685000      6.441000
C         -24.715000     12.898000      6.596000
H         -24.013000     13.737000      6.675000
H         -25.225000     12.941000      7.567000
H         -25.413000     13.032000      5.761000
O         -23.179000     12.096000      4.398000
C         -23.135000     11.431000      5.326000
C         -22.138000     10.266000      5.488000
H         -22.596000      9.373000      5.929000
H         -21.358000     10.617000      6.175000
C         -21.490000      9.904000      4.193000
H         -22.218000      9.353000      3.584000
H         -21.162000     10.788000      3.634000
C         -20.351000      8.954000      4.425000
H         -19.846000      8.807000      3.463000
H         -19.552000      9.515000      4.926000
C         -20.611000      7.564000      5.160000
C         -21.440000      6.705000      4.356000
C         -22.871000      6.773000      4.514000
H         -23.264000      7.360000      5.339000
C         -23.664000      6.038000      3.606000
H         -24.728000      6.005000      3.818000
C         -23.067000      5.356000      2.512000
H         -23.702000      4.776000      1.848000
C         -21.622000      5.331000      2.373000
H         -21.146000      4.830000      1.535000
C         -20.850000      6.108000      3.218000
H         -19.782000      6.216000      3.055000
C         -21.681000      4.878000      9.819000
C         -20.493000      3.246000      8.474000
C         -16.631000      3.207000     10.959000
C         -18.973000      9.104000     10.233000
C         -14.961000      5.374000      8.792000
C         -21.362000      4.322000      8.577000
C         -16.257000      8.386000     10.191000
C         -18.943000      3.323000     11.666000
C         -17.870000      5.035000      6.018000
C         -18.220000      9.196000      9.029000
C         -19.426000      6.889000      5.906000
C         -17.123000      6.219000      6.083000
C         -16.567000      8.325000      7.751000
C         -15.394000      7.299000     10.105000
C         -20.181000      4.589000      6.737000
C         -15.547000      5.108000     11.097000
C         -20.527000      7.523000      6.687000
C         -20.106000      8.539000      7.686000
C         -15.215000      4.533000      9.891000
C         -18.904000      6.629000     12.756000
C         -17.459000      4.873000     12.562000
C         -18.724000      4.360000     12.527000
C         -20.124000      3.312000     10.896000
C         -20.801000      8.275000      8.930000
C         -19.234000      5.372000      6.025000
C         -19.924000      2.749000      9.667000
C         -16.881000      8.848000      9.014000
C         -19.727000      3.329000      7.340000
C         -15.949000      6.181000      6.861000
C         -20.520000      7.814000     11.268000
C         -17.944000      2.732000     10.849000
C         -18.000000      7.332000      6.087000
C         -20.858000      5.434000     11.882000
C         -15.595000      7.270000      7.703000
C         -17.443000      3.887000      6.701000
C         -16.608000      7.095000     11.982000
C         -16.994000      8.258000     11.374000
C         -16.261000      3.880000      7.426000
C         -20.249000      8.638000     10.143000
C         -18.775000      8.926000      7.789000
C         -19.344000      7.780000     12.026000
C         -21.361000      6.582000      7.539000
C         -17.787000      2.540000      8.453000
C         -17.765000      8.346000      7.003000
C         -15.531000      5.046000      7.538000
C         -21.267000      6.628000     11.194000
C         -15.871000      3.336000      9.783000
C         -21.069000      4.376000     10.971000
C         -16.369000      4.303000     11.819000
C         -18.338000      2.989000      7.299000
C         -16.455000      3.052000      8.573000
C         -21.187000      5.181000      7.491000
C         -21.549000      7.118000      8.826000
C         -17.548000      6.281000     12.698000
C         -18.545000      2.441000      9.634000
C         -14.982000      6.783000      8.879000
C         -18.374000      8.635000     11.360000
C         -15.613000      6.490000     11.207000
C         -21.722000      6.290000      9.919000
C         -19.662000      5.457000     12.627000
O         -11.195000      6.469000     -1.826000
C         -11.843000      7.426000     -2.781000
H         -12.268000      6.847000     -3.610000
H         -11.241000      8.268000     -3.143000
H         -12.673000      7.977000     -2.322000
O         -13.046000      5.203000     -1.483000
C         -11.884000      5.415000     -1.254000
C         -10.943000      4.403000     -0.593000
H         -10.455000      4.917000      0.244000
H         -10.293000      4.098000     -1.423000
C         -11.583000      3.169000     -0.073000
H         -12.008000      2.617000     -0.920000
H         -10.773000      2.496000      0.231000
C         -12.544000      3.205000      1.099000
H         -12.236000      3.948000      1.846000
H         -13.434000      3.676000      0.665000
C         -12.884000      1.883000      1.904000
C         -14.041000      1.064000      1.238000
C         -13.723000      0.155000      0.210000
H         -12.681000      0.137000     -0.094000
C         -14.700000     -0.688000     -0.294000
H         -14.437000     -1.470000     -1.000000
C         -16.019000     -0.528000      0.147000
H         -16.804000     -1.145000     -0.281000
C         -16.361000      0.377000      1.188000
H         -17.368000      0.531000      1.563000
C         -15.366000      1.210000      1.676000
H         -15.604000      1.903000      2.478000
C         -14.296000     -0.193000      6.833000
C         -13.004000     -2.021000      5.821000
C          -9.283000     -1.799000      8.395000
C         -11.413000      4.021000      6.824000
C          -7.439000     -0.044000      5.879000
C         -13.960000     -0.958000      5.680000
C          -8.640000      3.305000      6.922000
C         -11.619000     -1.634000      8.971000
C         -10.339000     -0.645000      3.146000
C         -10.639000      4.015000      5.595000
C         -11.818000      1.181000      2.734000
C          -9.607000      0.512000      3.158000
C          -8.996000      2.841000      4.590000
C          -7.817000      2.136000      6.996000
C         -12.657000     -0.974000      3.800000
C          -8.051000      0.145000      8.265000
C         -12.915000      1.904000      3.448000
C         -12.475000      3.058000      4.288000
C          -7.761000     -0.605000      7.113000
C         -11.384000      1.806000      9.397000
C          -9.987000      0.106000      9.751000
C         -11.333000     -0.431000      9.698000
C         -12.798000     -1.654000      8.213000
C         -13.263000      3.016000      5.493000
C         -11.648000     -0.305000      3.056000
C         -12.495000     -2.354000      7.057000
C          -9.252000      3.699000      5.711000
C         -12.302000     -2.081000      4.603000
C          -8.412000      0.615000      3.952000
C         -12.916000      2.903000      7.911000
C         -10.587000     -2.290000      8.306000
C         -10.428000      1.630000      3.033000
C         -13.356000      0.609000      8.753000
C          -8.057000      1.778000      4.654000
C          -9.950000     -1.723000      3.938000
C          -9.097000      2.208000      8.879000
C          -9.439000      3.282000      8.090000
C          -8.825000     -1.632000      4.738000
C         -12.708000      3.518000      6.678000
C         -11.165000      3.508000      4.451000
C         -11.799000      2.952000      8.710000
C         -13.764000      1.127000      4.392000
C         -10.366000     -2.720000      5.966000
C         -10.128000      2.805000      3.794000
C          -8.074000     -0.512000      4.739000
C         -13.715000      1.708000      7.892000
C          -8.517000     -1.760000      7.206000
C         -13.637000     -0.551000      8.044000
C          -8.953000     -0.587000      9.063000
C         -10.903000     -2.396000      4.692000
C          -9.056000     -2.299000      6.014000
C         -13.686000     -0.304000      4.486000
C         -14.042000      1.838000      5.492000
C         -10.060000      1.502000      9.584000
C         -11.144000     -2.785000      7.135000
C          -7.470000      1.392000      5.826000
C         -10.819000      3.673000      8.031000
C          -8.046000      1.516000      8.192000
C         -14.306000      1.208000      6.729000
C         -12.177000      0.647000      9.513000
$end

--------------------------------------------------------------

             Standard Nuclear Orientation (Angstroms)
    I     Atom           X                Y                Z
 ----------------------------------------------------------------
    1      O     -11.1991652667    -2.8670518200    -1.1781747981
    2      C     -12.5825851285    -3.0781701291    -1.6638377939
    3      H     -12.5159059484    -3.0957178949    -2.7584664811
    4      H     -13.2299260498    -2.2083334266    -1.4931807029
    5      H     -13.0254502143    -4.0010993444    -1.2708273878
    6      O     -10.4164965779    -4.8499279417    -1.7152055325
    7      C     -10.2145402313    -3.8028191447    -1.3051789464
    8      C      -8.8014012722    -3.2751357179    -0.9857004912
    9      H      -8.7604083886    -2.7123401585    -0.0458735168
   10      H      -8.5338212157    -2.5894668180    -1.7992292694
   11      C      -7.7917336124    -4.3739332473    -0.9512301235
   12      H      -7.9226537875    -4.9348715985    -0.0170598639
   13      H      -7.9044665528    -5.0649928524    -1.7945858648
   14      C      -6.4027788541    -3.8071343766    -0.8947613763
   15      H      -5.7027516115    -4.6465993378    -0.9804260624
   16      H      -6.1968561520    -3.3443703572    -1.8681925773
   17      C      -5.9900106904    -2.8289255188     0.2937902102
   18      C      -5.9836526044    -3.5252383643     1.5534115803
   19      C      -7.1944816901    -3.5608220693     2.3344210074
   20      H      -8.0230354998    -2.9346741351     2.0164896485
   21      C      -7.2061485902    -4.3800896816     3.4842916362
   22      H      -8.0805044499    -4.2970526099     4.1220499566
   23      C      -6.1015512145    -5.2217973774     3.7838943605
   24      H      -6.1298753325    -5.8185173395     4.6914427235
   25      C      -4.9081224194    -5.1752971175     2.9583421594
   26      H      -4.0592260428    -5.8223480371     3.1596405677
   27      C      -4.9227035236    -4.4286347425     1.7938591457
   28      H      -4.0984792600    -4.4797442040     1.0889483809
   29      C      -6.3700058597     2.1312732281     2.5998277344
   30      C      -4.2035053629     1.3215344671     3.3308487576
   31      C      -1.6704533070     4.2084349006     0.8126662445
   32      C      -6.6955995022     1.9577035147    -2.4228805325
   33      C      -1.0800035992     1.8476282785    -1.6890610060
   34      C      -5.5241814113     1.0853200818     2.9793326993
   35      C      -4.1230487108     2.4012225898    -3.4617343508
   36      C      -3.7315451874     4.5874529682     2.0238204729
   37      C      -2.5777275978    -1.1224896902     0.5929337521
   38      C      -5.8790736966     0.8627227039    -2.8221193493
   39      C      -4.8349870607    -1.8172029893     0.0515012546
   40      C      -2.6668064163    -1.2219639461    -0.8021504161
   41      C      -3.7875033031     0.0116532060    -2.9813298971
   42      C      -2.8047477898     2.6555375736    -3.0996009906
   43      C      -4.3236283936    -0.6114441365     2.2504200577
   44      C      -1.9126864371     4.0672828642    -1.3620291855
   45      C      -6.2427345849    -1.3299301633     0.1217159318
   46      C      -6.7056047958    -0.5278774372    -1.0401621136
   47      C      -1.0538896459     3.0618700716    -0.9787561917
   48      C      -5.8104061412     4.9411221468    -0.7461095347
   49      C      -3.6279812166     5.3047713923    -0.1857724268
   50      C      -4.3358029023     5.2266737497     0.9793491202
   51      C      -4.4909543847     3.6997687549     2.8131850329
   52      C      -7.3879756621     0.6497415120    -0.5423261854
   53      C      -3.8532165564    -1.3538402734     1.1348920754
   54      C      -3.7386496030     2.6534300188     3.2677428011
   55      C      -4.6154474478     1.0856309191    -3.3396235821
   56      C      -3.3872776476     0.2979073233     2.9239571413
   57      C      -1.8871074817    -0.3168913308    -1.5490889224
   58      C      -7.4291581630     3.0486356167    -0.5788922354
   59      C      -2.4210268845     4.0436712678     1.9836428668
   60      C      -3.9925031266    -1.5630231496    -1.1683755547
   61      C      -6.4926449552     4.1119481873     1.4577592785
   62      C      -2.4091761020     0.3092165196    -2.7134060250
   63      C      -1.7439709210    -0.1628563257     1.1851124495
   64      C      -4.0753681568     4.3706636482    -2.4050454267
   65      C      -4.9018382501     3.4855016275    -3.0411777888
   66      C      -0.9635150376     0.6851869790     0.4140682436
   67      C      -7.4263395713     1.8149014248    -1.2831180509
   68      C      -5.8895077095    -0.3488744316    -2.1509647378
   69      C      -6.6456397462     3.9337112249    -1.3281826052
   70      C      -6.5656258951    -0.4042761165     1.2818223008
   71      C      -1.6503823247     1.7816218823     2.2862458080
   72      C      -4.5834108263    -0.8636256747    -2.2095999601
   73      C      -1.0664904607     0.6330491628    -0.9613145069
   74      C      -7.3369316631     3.1398149284     0.8186991233
   75      C      -0.8755236633     3.1335257186     0.3769207774
   76      C      -5.8589641925     3.4297344132     2.5192860362
   77      C      -2.2736093283     4.8392932549    -0.3043299734
   78      C      -2.0826037957     0.4999892611     2.3729661880
   79      C      -0.9078317031     1.9504717282     1.0734489149
   80      C      -5.6261380629    -0.1297892079     2.3003509210
   81      C      -7.3061751197     0.7055161793     0.8357764443
   82      C      -4.5236248620     5.1244230268    -1.2693673361
   83      C      -2.4617711091     2.8552001974     2.6963724249
   84      C      -1.9111877721     1.6278504764    -2.8089367082
   85      C      -6.2078971625     3.2232895753    -2.5194690989
   86      C      -2.7695522502     3.8700984761    -2.4359376059
   87      C      -7.2216905464     1.9210190270     1.4881392145
   88      C      -5.7224789279     4.9746594311     0.6524372310
   89      O       3.6767564756    -8.2195203741    -3.7260825071
   90      C       2.8361936809    -9.4288028063    -4.0069173113
   91      H       3.0111822649   -10.1600987302    -3.2083609468
   92      H       2.9206676672    -9.8865891476    -4.9997454995
   93      H       1.7628457159    -9.2028719041    -3.9990831888
   94      O       2.8433688215    -7.8414239418    -1.6502419289
   95      C       3.5956536177    -7.5234161740    -2.5337393228
   96      C       4.7660161247    -6.5516522680    -2.3535380096
   97      H       4.6759638223    -5.7910240186    -3.1385502700
   98      H       5.6407846602    -7.2117183410    -2.4128489588
   99      C       4.8370721343    -5.8614613537    -1.0415381829
  100      H       5.0008654143    -6.6159815602    -0.2626870935
  101      H       5.7921755264    -5.3242029339    -1.0175402496
  102      C       3.7902381691    -4.8502049134    -0.6173919096
  103      H       3.4481525805    -4.2477231241    -1.4688113971
  104      H       2.9147084917    -5.4799680353    -0.4195455190
  105      C       4.0853697316    -3.8284404246     0.5574287960
  106      C       3.7775821353    -4.4394825522     1.9662795028
  107      C       4.7737666310    -5.2025980859     2.6061702221
  108      H       5.6800584043    -5.3665662683     2.0314932200
  109      C       4.5861942241    -5.6295826047     3.9106604723
  110      H       5.3947783598    -6.1144833530     4.4493551537
  111      C       3.3489536836    -5.3969349964     4.5229944786
  112      H       3.1693724738    -5.7752573839     5.5253520795
  113      C       2.3330399450    -4.6232846136     3.8992522554
  114      H       1.3618948267    -4.4153477637     4.3374638775
  115      C       2.5441463376    -4.2074766839     2.5936505334
  116      H       1.7841026269    -3.6074410375     2.1013215978
  117      C       3.0288867923     1.2212747317     2.5531195636
  118      C       5.3138952385     0.7888902078     3.3448089119
  119      C       7.5676862480     3.6890326476     0.6933563073
  120      C       2.9440162995     0.6615929010    -2.5212394352
  121      C       8.6071478361     1.0993194810    -1.5479652496
  122      C       3.9861715321     0.3083797960     3.0801478014
  123      C       5.5293179264     1.2473120746    -3.6097878023
  124      C       5.4892697474     3.9276753768     1.8929943768
  125      C       7.2552003981    -1.7738937895     0.9334403253
  126      C       3.8381299428    -0.4340892181    -2.8522900155
  127      C       5.1422283469    -2.7440086928     0.3989431925
  128      C       7.1813281533    -1.9207839548    -0.4258179911
  129      C       6.0314612894    -0.9569332205    -2.7916125632
  130      C       6.8262043364     1.6693827048    -3.1746923846
  131      C       5.4523080121    -1.3517389210     2.5083832802
  132      C       7.4789153624     3.2969405369    -1.5764990860
  133      C       3.7024761212    -2.3402338202     0.4026011956
  134      C       3.2125142860    -1.7195081500    -0.8645029999
  135      C       8.3909628186     2.3762059562    -1.0341696017
  136      C       3.6395133386     3.6329607561    -1.0330687668
  137      C       5.6292534389     4.5099151203    -0.5443864812
  138      C       4.8746521690     4.4096493109     0.6898815978
  139      C       4.7338352678     3.0537913248     2.6871293846
  140      C       2.3397438148    -0.6385186164    -0.4844157299
  141      C       6.0434825601    -2.0932065728     1.4501222656
  142      C       5.6288986783     2.1200614662     3.1822607232
  143      C       5.0924487992    -0.0852196481    -3.4371448947
  144      C       6.1788003004    -0.2933369575     3.0985334635
  145      C       7.8945687161    -1.0278237158    -1.2993052041
  146      C       2.1367064432     1.7714694471    -0.8458508688
  147      C       6.8285795527     3.5491422066     1.8696088131
  148      C       5.9262482523    -2.3811266764    -0.8162651971
  149      C       2.8924978110     3.0249443703     1.1597861934
  150      C       7.3629533159    -0.5531217343    -2.5090328986
  151      C       7.9948134168    -0.7282214527     1.4813554160
  152      C       5.3460735778     3.3232237024    -2.6615687230
  153      C       4.6453885907     2.2870354563    -3.2345569144
  154      C       8.6578592894     0.1646025321     0.6584693346
  155      C       2.2316198039     0.4701205313    -1.3349934385
  156      C       3.9629184175    -1.4983907315    -2.0191326924
  157      C       2.8173172404     2.6713390651    -1.6303855164
  158      C       3.2544939272    -1.3623353808     1.4315290823
  159      C       7.7717948170     1.4000935623     2.3182466284
  160      C       5.3309242334    -1.8585030016    -2.0088253872
  161      C       8.6224275891     0.0172819258    -0.6814721692
  162      C       2.1803539614     1.9115529748     0.5842744752
  163      C       8.4210792947     2.6215150274     0.3271262726
  164      C       3.4827884326     2.5518223798     2.3238113495
  165      C       6.9961886273     4.1172518081    -0.5371260453
  166      C       7.4481473991     0.0306102144     2.5084799295
  167      C       8.5643627293     1.5159571830     1.1983998864
  168      C       4.1027712856    -0.9554832023     2.5166916638
  169      C       2.3856523469    -0.4821931602     0.9184316454
  170      C       4.8210747722     4.0404089632    -1.5972137278
  171      C       6.9280238834     2.4523306130     2.7143751437
  172      C       7.7841948462     0.7368555948    -2.6692298515
  173      C       3.3415269240     1.9782123781    -2.7194500706
  174      C       6.7257276864     2.9333846711    -2.6653197586
  175      C       2.2538094843     0.8194270458     1.4524422248
  176      C       3.6373276972     3.8969146311     0.3510950873
 ----------------------------------------------------------------

    9   -5804.2467161452      8.78E-06 Convergence criterion met
 Total energy in the final basis set = -5804.2467161452

                    Orbital Energies (a.u.)
 --------------------------------------------------------------

 Alpha MOs
 -- Occupied --
-19.189 -19.177 -19.141 -19.134 -10.320 -10.308 -10.253 -10.249
-10.248 -10.243 -10.240 -10.238 -10.237 -10.237 -10.231 -10.227
-10.227 -10.225 -10.224 -10.224 -10.224 -10.224 -10.223 -10.222
-10.220 -10.220 -10.220 -10.219 -10.219 -10.219 -10.218 -10.217
-10.217 -10.217 -10.217 -10.217 -10.217 -10.216 -10.216 -10.216
-10.216 -10.216 -10.216 -10.216 -10.216 -10.215 -10.215 -10.215
-10.215 -10.215 -10.215 -10.214 -10.214 -10.214 -10.214 -10.214
-10.213 -10.213 -10.213 -10.213 -10.213 -10.213 -10.213 -10.213
-10.213 -10.212 -10.212 -10.212 -10.212 -10.212 -10.212 -10.212
-10.212 -10.212 -10.212 -10.211 -10.211 -10.211 -10.211 -10.211
-10.211 -10.211 -10.211 -10.211 -10.211 -10.211 -10.210 -10.210
-10.210 -10.210 -10.210 -10.210 -10.210 -10.210 -10.210 -10.210
-10.210 -10.210 -10.210 -10.210 -10.210 -10.210 -10.209 -10.209
-10.209 -10.209 -10.209 -10.209 -10.209 -10.209 -10.209 -10.208
-10.208 -10.208 -10.208 -10.208 -10.208 -10.208 -10.208 -10.208
-10.208 -10.207 -10.207 -10.207 -10.207 -10.206 -10.206 -10.206
-10.206 -10.206 -10.205 -10.205 -10.205 -10.205 -10.204 -10.203
-10.202 -10.201 -10.201 -10.200 -10.198 -10.198 -10.198 -10.197
-10.196 -10.195 -10.193 -10.186  -1.109  -1.086  -1.018  -1.008
 -0.984  -0.981  -0.967  -0.964  -0.963  -0.961  -0.960  -0.959
 -0.933  -0.930  -0.928  -0.927  -0.925  -0.924  -0.924  -0.921
 -0.921  -0.919  -0.898  -0.894  -0.889  -0.888  -0.886  -0.886
 -0.875  -0.872  -0.853  -0.850  -0.841  -0.841  -0.840  -0.836
 -0.836  -0.834  -0.823  -0.820  -0.811  -0.811  -0.797  -0.797
 -0.796  -0.794  -0.793  -0.793  -0.790  -0.790  -0.786  -0.781
 -0.773  -0.768  -0.768  -0.766  -0.765  -0.764  -0.761  -0.758
 -0.754  -0.753  -0.740  -0.737  -0.731  -0.731  -0.720  -0.715
 -0.714  -0.712  -0.712  -0.711  -0.709  -0.709  -0.709  -0.708
 -0.707  -0.705  -0.705  -0.704  -0.702  -0.701  -0.673  -0.671
 -0.660  -0.658  -0.657  -0.655  -0.649  -0.646  -0.632  -0.629
 -0.626  -0.626  -0.625  -0.624  -0.621  -0.621  -0.619  -0.613
 -0.613  -0.611  -0.611  -0.610  -0.610  -0.609  -0.608  -0.607
 -0.605  -0.604  -0.604  -0.601  -0.566  -0.565  -0.563  -0.559
 -0.558  -0.558  -0.557  -0.557  -0.554  -0.553  -0.552  -0.549
 -0.537  -0.536  -0.533  -0.532  -0.526  -0.526  -0.524  -0.523
 -0.522  -0.521  -0.519  -0.517  -0.515  -0.514  -0.512  -0.510
 -0.510  -0.505  -0.504  -0.501  -0.494  -0.491  -0.490  -0.487
 -0.483  -0.482  -0.482  -0.480  -0.479  -0.477  -0.475  -0.472
 -0.471  -0.471  -0.470  -0.469  -0.468  -0.467  -0.466  -0.464
 -0.464  -0.463  -0.463  -0.461  -0.459  -0.459  -0.458  -0.456
 -0.455  -0.454  -0.453  -0.450  -0.447  -0.445  -0.443  -0.443
 -0.442  -0.441  -0.439  -0.439  -0.438  -0.437  -0.435  -0.434
 -0.432  -0.432  -0.429  -0.428  -0.427  -0.426  -0.426  -0.424
 -0.424  -0.423  -0.421  -0.420  -0.420  -0.420  -0.419  -0.418
 -0.417  -0.417  -0.415  -0.414  -0.414  -0.413  -0.412  -0.411
 -0.411  -0.409  -0.408  -0.406  -0.405  -0.401  -0.398  -0.396
 -0.395  -0.393  -0.392  -0.389  -0.387  -0.387  -0.384  -0.384
 -0.381  -0.378  -0.376  -0.374  -0.371  -0.368  -0.366  -0.364
 -0.362  -0.362  -0.361  -0.360  -0.360  -0.359  -0.358  -0.357
 -0.356  -0.356  -0.355  -0.354  -0.354  -0.353  -0.351  -0.350
 -0.349  -0.348  -0.346  -0.346  -0.344  -0.344  -0.343  -0.342
 -0.340  -0.339  -0.338  -0.337  -0.335  -0.334  -0.333  -0.332
 -0.331  -0.330  -0.328  -0.327  -0.326  -0.324  -0.323  -0.322
 -0.310  -0.306  -0.301  -0.297  -0.289  -0.285  -0.272  -0.271
 -0.270  -0.269  -0.268  -0.267  -0.267  -0.266  -0.265  -0.262
 -0.260  -0.260  -0.259  -0.258  -0.257  -0.256  -0.254  -0.253
 -0.246  -0.244  -0.243  -0.242  -0.219  -0.219  -0.213  -0.211
 -0.208  -0.206  -0.205  -0.203  -0.199  -0.195

          Ground-State Mulliken Net Atomic Charges

     Atom                 Charge (a.u.)
  ----------------------------------------
      1 O                    -0.500578
      2 C                    -0.085033
      3 H                     0.124407
      4 H                     0.128609
      5 H                     0.134287
      6 O                    -0.414193
      7 C                     0.585344
      8 C                    -0.266663
      9 H                     0.123746
     10 H                     0.132153
     11 C                    -0.170409
     12 H                     0.114803
     13 H                     0.124521
     14 C                    -0.193790
     15 H                     0.105428
     16 H                     0.097678
     17 C                    -0.000372
     18 C                     0.090708
     19 C                    -0.100777
     20 H                     0.096643
     21 C                    -0.092114
     22 H                     0.094139
     23 C                    -0.093027
     24 H                     0.094415
     25 C                    -0.095388
     26 H                     0.094362
     27 C                    -0.085725
     28 H                     0.096390
     29 C                    -0.014273
     30 C                     0.023951
     31 C                    -0.037790
     32 C                     0.019278
     33 C                    -0.002122
     34 C                    -0.013151
     35 C                    -0.005421
     36 C                    -0.000165
     37 C                     0.007199
     38 C                    -0.000622
     39 C                    -0.100967
     40 C                     0.005103
     41 C                    -0.012055
     42 C                     0.008772
     43 C                    -0.029835
     44 C                     0.017517
     45 C                    -0.077844
     46 C                     0.013552
     47 C                     0.035880
     48 C                    -0.005177
     49 C                     0.002506
     50 C                     0.005506
     51 C                     0.008217
     52 C                     0.002379
     53 C                     0.026609
     54 C                    -0.010266
     55 C                    -0.000974
     56 C                    -0.017600
     57 C                     0.005555
     58 C                    -0.011088
     59 C                     0.017671
     60 C                     0.014301
     61 C                    -0.016828
     62 C                    -0.026651
     63 C                     0.009564
     64 C                     0.001812
     65 C                    -0.006812
     66 C                    -0.000094
     67 C                     0.000371
     68 C                     0.008874
     69 C                    -0.006968
     70 C                     0.009693
     71 C                    -0.000314
     72 C                     0.004992
     73 C                     0.005966
     74 C                    -0.013201
     75 C                    -0.003454
     76 C                    -0.000839
     77 C                    -0.004158
     78 C                    -0.017064
     79 C                     0.000613
     80 C                     0.034452
     81 C                     0.029848
     82 C                    -0.004087
     83 C                    -0.001438
     84 C                    -0.020325
     85 C                    -0.014583
     86 C                     0.007036
     87 C                     0.016401
     88 C                    -0.000498
     89 O                    -0.492987
     90 C                    -0.087696
     91 H                     0.133880
     92 H                     0.132114
     93 H                     0.128905
     94 O                    -0.454126
     95 C                     0.594173
     96 C                    -0.258701
     97 H                     0.134294
     98 H                     0.145231
     99 C                    -0.177023
    100 H                     0.112262
    101 H                     0.099424
    102 C                    -0.192757
    103 H                     0.097325
    104 H                     0.140957
    105 C                     0.001709
    106 C                     0.088569
    107 C                    -0.098781
    108 H                     0.088534
    109 C                    -0.083271
    110 H                     0.094093
    111 C                    -0.093647
    112 H                     0.086679
    113 C                    -0.083241
    114 H                     0.094003
    115 C                    -0.109446
    116 H                     0.091192
    117 C                    -0.027235
    118 C                     0.036489
    119 C                    -0.003404
    120 C                    -0.028615
    121 C                    -0.028531
    122 C                    -0.034394
    123 C                    -0.013947
    124 C                    -0.011399
    125 C                     0.034100
    126 C                    -0.019044
    127 C                    -0.082824
    128 C                    -0.000777
    129 C                     0.002651
    130 C                     0.026730
    131 C                     0.003248
    132 C                     0.018379
    133 C                    -0.101075
    134 C                     0.023834
    135 C                     0.032553
    136 C                     0.022200
    137 C                    -0.039189
    138 C                    -0.019737
    139 C                     0.012988
    140 C                    -0.017066
    141 C                     0.036061
    142 C                    -0.000110
    143 C                    -0.031000
    144 C                    -0.047011
    145 C                    -0.024192
    146 C                    -0.007373
    147 C                     0.034084
    148 C                     0.026212
    149 C                    -0.030907
    150 C                     0.011865
    151 C                    -0.006907
    152 C                    -0.011855
    153 C                     0.011030
    154 C                    -0.008261
    155 C                     0.026198
    156 C                     0.037312
    157 C                    -0.006173
    158 C                     0.051948
    159 C                     0.025466
    160 C                    -0.015589
    161 C                     0.031265
    162 C                    -0.003356
    163 C                    -0.017440
    164 C                     0.016660
    165 C                    -0.007189
    166 C                    -0.010303
    167 C                    -0.021092
    168 C                     0.014329
    169 C                     0.013394
    170 C                     0.022171
    171 C                    -0.028735
    172 C                    -0.019062
    173 C                    -0.000541
    174 C                    -0.017135
    175 C                     0.009885
    176 C                     0.022231
  ----------------------------------------
  Sum of atomic charges =     0.000000

                    Cartesian Multipole Moments
 -----------------------------------------------------------------
    Charge (ESU x 10^10)
                 0.0000
    Dipole Moment (Debye)
         X      -1.6835      Y      -4.2343      Z       0.0115
       Tot       4.5567
    Quadrupole Moments (Debye-Ang)
        XX    -782.2120     XY     -15.8165     YY    -788.0737
        XZ      -3.6278     YZ       2.9864     ZZ    -796.8257

 Total job time:  870.08s(wall), 8285.37s(cpu)
        *  Thank you very much for using Q-Chem.  Have a nice day.  *
