 Q-Chem 4.4, Q-Chem, Inc., Pleasanton, CA (2016)
 Q-Chem 4.4.2 for Intel X86 Linux

User input:
--------------------------------------------------------------
$comment
SP
$end

$rem
MEM_STATIC 5000
MEM_TOTAL 20000
JOBTYPE SP
EXCHANGE B3LYP
BASIS 6-31g(d,p)
$end

$molecule
0 1
O         -22.649000     -8.477000    -13.717000
C         -22.776000     -7.807000    -14.973000
H         -23.120000     -6.778000    -14.808000
H         -23.542000     -8.330000    -15.558000
H         -21.801000     -7.714000    -15.469000
O         -21.282000    -10.203000    -14.518000
C         -21.912000     -9.644000    -13.623000
C         -21.958000    -10.257000    -12.258000
H         -21.344000     -9.691000    -11.546000
H         -21.503000    -11.255000    -12.270000
C         -23.461000    -10.319000    -11.868000
H         -23.722000     -9.262000    -11.733000
H         -24.008000    -10.613000    -12.772000
C         -23.700000    -11.054000    -10.560000
H         -23.380000    -12.095000    -10.698000
H         -23.043000    -10.645000     -9.782000
C         -25.166000    -11.048000    -10.185000
C         -26.086000    -11.849000    -11.098000
C         -26.702000    -11.241000    -12.146000
H         -26.477000    -10.206000    -12.388000
C         -27.635000    -11.976000    -12.925000
H         -28.289000    -11.425000    -13.594000
C         -27.877000    -13.335000    -12.689000
H         -28.657000    -13.860000    -13.233000
C         -27.232000    -13.917000    -11.602000
H         -27.446000    -14.933000    -11.285000
C         -26.285000    -13.218000    -10.879000
H         -25.888000    -13.745000    -10.017000
C         -29.171000     -7.516000     -9.221000
C         -30.041000     -9.692000     -8.395000
C         -29.741000     -8.658000     -3.973000
C         -24.724000     -6.414000     -7.235000
C         -26.671000    -10.255000     -3.479000
C         -29.246000     -8.920000     -9.291000
C         -24.647000     -7.445000     -4.540000
C         -30.430000     -7.342000     -5.875000
C         -26.986000    -11.960000     -7.045000
C         -24.070000     -7.623000     -6.900000
C         -25.664000    -10.950000     -8.757000
C         -25.676000    -11.672000     -6.570000
C         -24.085000     -9.519000     -5.717000
C         -25.366000     -8.193000     -3.602000
C         -28.207000    -10.885000     -8.873000
C         -27.744000     -8.038000     -2.988000
C         -25.620000     -9.730000     -9.614000
C         -24.834000     -8.506000     -9.020000
C         -27.830000     -9.450000     -3.141000
C         -27.738000     -5.193000     -5.844000
C         -28.884000     -6.330000     -4.310000
C         -29.659000     -6.248000     -5.488000
C         -30.508000     -7.701000     -7.212000
C         -25.596000     -7.337000     -9.238000
C         -27.030000    -11.485000     -8.366000
C         -30.735000     -9.138000     -7.331000
C         -23.981000     -8.107000     -5.589000
C         -29.360000    -10.936000     -8.127000
C         -25.616000    -11.354000     -5.182000
C         -26.609000     -5.472000     -8.004000
C         -30.519000     -8.556000     -5.172000
C         -24.905000    -10.941000     -7.478000
C         -29.034000     -5.854000     -7.796000
C         -24.769000    -10.263000     -4.731000
C         -28.134000    -12.030000     -6.290000
C         -26.539000     -6.240000     -4.050000
C         -25.364000     -6.280000     -4.832000
C         -28.032000    -11.661000     -4.923000
C         -25.461000     -6.219000     -8.371000
C         -24.106000     -8.674000     -7.844000
C         -26.571000     -5.168000     -6.643000
C         -26.895000     -9.066000     -9.932000
C         -29.943000    -10.805000     -5.749000
C         -24.080000     -9.869000     -7.109000
C         -26.769000    -11.357000     -4.346000
C         -27.856000     -5.786000     -8.552000
C         -29.073000     -9.832000     -3.688000
C         -29.855000     -6.947000     -8.165000
C         -28.950000     -7.543000     -3.497000
C         -29.333000    -11.507000     -6.812000
C         -29.142000    -10.929000     -4.618000
C         -28.124000     -9.663000     -9.626000
C         -26.873000     -7.690000     -9.694000
C         -27.733000     -5.694000     -4.559000
C         -30.648000     -9.615000     -6.014000
C         -25.455000     -9.578000     -3.718000
C         -25.414000     -5.753000     -6.162000
C         -26.494000     -7.430000     -3.251000
C         -27.967000     -6.877000     -9.415000
C         -28.973000     -5.467000     -6.422000
O         -11.217000    -12.433000    -10.831000
C         -10.356000    -13.568000    -10.865000
H          -9.623000    -13.462000    -10.057000
H          -9.872000    -13.649000    -11.846000
H         -10.865000    -14.456000    -10.470000
O         -12.383000    -12.885000    -12.720000
C         -12.172000    -12.198000    -11.788000
C         -12.848000    -10.915000    -11.536000
H         -12.113000    -10.236000    -11.087000
H         -13.616000    -11.053000    -10.766000
C         -13.629000    -10.326000    -12.722000
H         -12.879000     -9.834000    -13.352000
H         -14.069000    -11.102000    -13.360000
C         -14.728000     -9.295000    -12.232000
H         -14.268000     -8.522000    -11.603000
H         -15.176000     -8.808000    -13.107000
C         -15.932000    -10.017000    -11.471000
C         -16.668000    -11.079000    -12.314000
C         -17.831000    -10.828000    -13.027000
H         -18.379000     -9.902000    -12.884000
C         -18.501000    -11.906000    -13.714000
H         -19.487000    -11.816000    -14.160000
C         -17.939000    -13.160000    -13.817000
H         -18.499000    -13.898000    -14.383000
C         -16.865000    -13.433000    -13.016000
H         -16.387000    -14.408000    -13.024000
C         -16.235000    -12.454000    -12.284000
H         -15.357000    -12.688000    -11.689000
C         -20.605000     -9.223000     -8.562000
C         -19.726000    -11.317000     -7.663000
C         -18.196000     -9.783000     -3.665000
C         -16.972000     -5.682000     -8.269000
C         -14.838000     -9.488000     -4.691000
C         -19.922000    -10.466000     -8.738000
C         -15.275000     -6.100000     -6.097000
C         -20.247000     -9.308000     -4.896000
C         -15.665000    -11.583000     -8.041000
C         -15.768000     -6.309000     -8.501000
C         -15.903000    -10.160000     -9.952000
C         -14.701000    -10.552000     -7.969000
C         -14.366000     -7.815000     -7.597000
C         -15.051000     -7.057000     -5.073000
C         -17.885000    -11.472000     -9.012000
C         -16.609000     -8.168000     -3.598000
C         -16.842000     -9.161000    -10.525000
C         -16.750000     -7.746000    -10.150000
C         -15.900000     -9.398000     -3.775000
C         -19.362000     -6.008000     -5.704000
C         -18.947000     -7.447000     -3.986000
C         -20.076000     -7.923000     -4.726000
C         -20.676000     -9.790000     -6.130000
C         -17.988000     -7.199000     -9.898000
C         -16.452000    -11.361000     -9.188000
C         -20.096000    -11.011000     -6.352000
C         -14.906000     -6.555000     -7.391000
C         -18.470000    -11.980000     -7.807000
C         -14.289000    -10.024000     -6.701000
C         -19.196000     -5.999000     -8.103000
C         -19.319000    -10.167000     -4.379000
C         -14.911000     -9.613000     -9.031000
C         -20.769000     -7.476000     -7.032000
C         -13.996000     -8.674000     -6.572000
C         -16.221000    -12.005000     -6.873000
C         -17.093000     -6.137000     -4.770000
C         -16.534000     -5.542000     -5.883000
C         -15.848000    -11.482000     -5.621000
C         -18.047000     -6.133000     -8.963000
C         -15.633000     -7.271000     -9.408000
C         -18.775000     -5.533000     -6.875000
C         -18.334000     -9.403000    -10.266000
C         -18.003000    -11.907000     -5.431000
C         -14.740000     -8.265000     -8.875000
C         -14.830000    -10.522000     -5.539000
C         -20.158000     -6.973000     -8.186000
C         -16.944000    -10.359000     -3.823000
C         -20.933000     -8.877000     -7.208000
C         -18.016000     -8.397000     -3.464000
C         -17.642000    -12.247000     -6.715000
C         -16.881000    -11.418000     -4.731000
C         -18.775000    -10.531000     -9.573000
C         -18.984000     -8.155000     -9.954000
C         -18.467000     -6.343000     -4.667000
C         -19.245000    -11.262000     -5.237000
C         -14.373000     -8.308000     -5.299000
C         -17.365000     -5.315000     -6.981000
C         -16.154000     -7.032000     -4.209000
C         -20.119000     -8.069000     -9.135000
C         -20.410000     -6.979000     -5.741000
$end

--------------------------------------------------------------

             Standard Nuclear Orientation (Angstroms)
    I     Atom           X                Y                Z
 ----------------------------------------------------------------
    1      O       0.0259277236     5.0049422183     3.1253104730
    2      C       0.0499554625     5.8774948262     4.2569639598
    3      H      -0.4039744708     5.3736382659     5.1197954510
    4      H      -0.5613571782     6.7560081825     4.0181729670
    5      H       1.0815582905     6.1019817097     4.5581138303
    6      O       1.6498104359     6.1721071662     1.9046152115
    7      C       0.8353163654     5.2607642594     2.0329098552
    8      C       0.6184508884     4.2996032762     0.9058566492
    9      H       1.0558070045     3.3182150898     1.1292237361
   10      H       1.1536051698     4.6334631719     0.0084601565
   11      C      -0.9171994609     4.2551367841     0.6718614874
   12      H      -1.2870543473     3.7512642721     1.5734793969
   13      H      -1.2806023723     5.2846322772     0.7764480718
   14      C      -1.3038040170     3.4305393473    -0.5441919589
   15      H      -0.8768627894     3.9196157466    -1.4294323013
   16      H      -0.8215090253     2.4462963326    -0.4906081085
   17      C      -2.8064971885     3.3648487415    -0.7097666455
   18      C      -3.4911882103     4.6786086957    -1.0658607165
   19      C      -3.9765183358     5.4812767525    -0.0821927544
   20      H      -3.8049148445     5.2331955928     0.9615610384
   21      C      -4.7017208148     6.6507303585    -0.4343498612
   22      H      -5.2818198379     7.1449798165     0.3390068460
   23      C      -4.8610894246     7.0396325659    -1.7702007958
   24      H      -5.4927306079     7.8849144413    -2.0280553412
   25      C      -4.3559228021     6.1861107780    -2.7462260214
   26      H      -4.5306948361     6.3573593339    -3.8038978363
   27      C      -3.6046458738     5.0788126290    -2.4032788151
   28      H      -3.3108941910     4.4499337952    -3.2379064933
   29      C      -7.2050891982     1.8038403671     2.0579013597
   30      C      -8.0081027549     2.1155200353    -0.2728017557
   31      C      -8.5299736646    -2.3146600905    -1.1752400124
   32      C      -3.2572643644    -1.2460809296     2.2748533506
   33      C      -5.4568939730    -2.6735072601    -2.8021250477
   34      C      -7.1461432484     2.4536385998     0.8104925928
   35      C      -3.5360018275    -3.2480962941     0.2142333208
   36      C      -9.0076255416    -1.0242731611     0.8074176123
   37      C      -5.0326908248     1.2683805880    -2.8667615864
   38      C      -2.5654537065    -1.1731138898     1.0429053709
   39      C      -3.5391990256     2.1408846838    -1.2214814132
   40      C      -3.8484764633     0.4832389275    -2.7902245448
   41      C      -2.6112322493    -1.4534452348    -1.1738148781
   42      C      -4.3322637960    -3.6476512369    -0.8640206962
   43      C      -6.0244658048     2.6897201451    -1.1392702688
   44      C      -6.7832559473    -3.8186332158    -1.0029726199
   45      C      -3.4602345484     2.4005080091     0.2451969225
   46      C      -2.8912268896     1.2239882614     1.1174581033
   47      C      -6.7207743948    -3.0893439673    -2.2231292687
   48      C      -6.5529741415    -2.4288595827     2.7741025103
   49      C      -7.8332905015    -3.1230564447     1.0894299204
   50      C      -8.4080888085    -1.9599124995     1.6477632161
   51      C      -8.8333522036     0.3317777545     1.0382611045
   52      C      -3.7049542484     1.0828156285     2.2631662132
   53      C      -4.8995917798     2.2632613897    -1.8843671469
   54      C      -8.9128531082     1.0670411677    -0.2202007819
   55      C      -2.6519144257    -2.1637287617     0.0569516603
   56      C      -7.2757206058     2.2576544145    -1.5083320896
   57      C      -4.0452891968    -0.8983137168    -3.0797846231
   58      C      -5.0642207373    -0.5937803274     3.4330254409
   59      C      -9.1059905673    -1.1403572493    -0.5899995789
   60      C      -3.0045880589     0.8532769166    -1.7394199733
   61      C      -7.4482777030    -0.1738857751     2.9750145794
   62      C      -3.3813447232    -1.9040272003    -2.2681140464
   63      C      -6.2788740390     0.8351020084    -3.2567950071
   64      C      -5.5796386786    -3.8271635807     1.0860237189
   65      C      -4.2929938425    -3.3298427437     1.3876295059
   66      C      -6.4353629628    -0.5562975780    -3.4908300631
   67      C      -3.8113819514    -0.1736678172     2.9187274191
   68      C      -2.3548622337     0.1064678846     0.4813408473
   69      C      -5.2770011243    -1.9414032277     3.1417900971
   70      C      -4.7180159764     2.6500857451     0.9686206108
   71      C      -8.2510706464     0.1868892825    -2.3872849131
   72      C      -2.3471320583    -0.0673071114    -0.9110199160
   73      C      -5.3154905600    -1.4304205040    -3.4427789259
   74      C      -6.1722795578     0.2555386018     3.3639457274
   75      C      -7.8192008721    -2.2138930522    -2.3543808189
   76      C      -8.0999916169     0.7545316220     2.1275707104
   77      C      -7.9272377348    -3.3421310720    -0.3527469845
   78      C      -7.4162546808     1.3104911134    -2.5756309487
   79      C      -7.6393696609    -0.9219190161    -2.9639165646
   80      C      -5.9244612344     2.8483394396     0.2862194735
   81      C      -4.8542609010     1.8713969740     2.1199611852
   82      C      -6.7162291618    -3.3737131031     1.7827142799
   83      C      -9.0028699556     0.0685761450    -1.2023166434
   84      C      -4.2811460806    -2.9619008455    -2.0751092065
   85      C      -4.1687959413    -2.3470391171     2.4209740335
   86      C      -5.5641989112    -4.0637066177    -0.3283082808
   87      C      -6.0452569042     1.4929697573     2.7314898942
   88      C      -7.6477574946    -1.5712870452     2.7540089164
   89      O      11.1254922908     1.9204031286    -1.5602888508
   90      C      12.0750189075     2.2545613171    -2.5689709163
   91      H      12.6531963016     1.3531373863    -2.8024977837
   92      H      12.7189636595     3.0746600897    -2.2284548967
   93      H      11.5865068172     2.3585456498    -3.5457990466
   94      O      10.3295315966     4.0096101805    -1.1944453493
   95      C      10.3242713478     2.8569321339    -0.9569171389
   96      C       9.5078945365     2.2331784665     0.0971365905
   97      H      10.0976611369     1.4182671002     0.5341283779
   98      H       8.6384967064     1.7437749252    -0.3571756223
   99      C       8.8847770286     3.1975527100     1.1194794340
  100      H       9.6829171820     3.4206101820     1.8368926063
  101      H       8.6243362183     4.1662791993     0.6761290386
  102      C       7.6353501104     2.5424450445     1.8410252210
  103      H       7.9171822095     1.5792778450     2.2856032386
  104      H       7.2970754659     3.2087369487     2.6442209403
  105      C       6.3894035261     2.3804346604     0.8554336503
  106      C       5.8965116428     3.7040789421     0.2347788291
  107      C       4.8493909400     4.4545735405     0.7488168546
  108      H       4.2075165060     4.0502799383     1.5252013561
  109      C       4.3970678265     5.6330792344     0.0491875739
  110      H       3.4938332792     6.1778467965     0.3072721645
  111      C       5.0744154362     6.1329631726    -1.0418143802
  112      H       4.6809403562     7.0440788830    -1.4818661085
  113      C       6.0215065460     5.3293080581    -1.6134461557
  114      H       6.5766182681     5.6459345485    -2.4913821680
  115      C       6.4356639352     4.1584283251    -1.0229554209
  116      H       7.2206898341     3.5593224556    -1.4751406653
  117      C       1.2506849038     0.3229879890     0.3167963739
  118      C       2.1471486813     0.2115160767    -1.9524776748
  119      C       2.8604856578    -4.2720272064    -2.2114177953
  120      C       4.4667686836    -2.0587362844     3.4484754135
  121      C       6.3033761841    -4.0983439677    -1.4818946931
  122      C       2.0579865798     0.8611819023    -0.7325488102
  123      C       5.8129889717    -4.1441147521     2.1792218603
  124      C       1.0067088589    -2.9853095097    -1.2865090709
  125      C       6.2226027768    -0.0952862281    -1.9961498733
  126      C       5.7420719721    -1.8186735116     2.9874543863
  127      C       6.1803512260     1.0757956862     0.0919775070
  128      C       7.0690350080    -0.7594579543    -1.0797059873
  129      C       7.1008832994    -2.2717344287     1.2556277257
  130      C       5.9471983460    -4.7101064560     0.8845241214
  131      C       4.1913985567     1.1390350546    -1.5121845988
  132      C       4.2695151907    -5.2857656686    -0.7559958271
  133      C       5.2657701084     1.3541663199     1.2295636223
  134      C       5.1724050146     0.4241196575     2.3598778109
  135      C       5.1014073404    -4.7568092338    -1.7928519122
  136      C       1.7245310385    -3.7748437344     2.0582563957
  137      C       1.9738320716    -4.7997239129     0.0378753389
  138      C       1.0272807043    -3.7345342170    -0.0971373303
  139      C       0.8297582708    -1.6059843704    -1.2139029454
  140      C       3.8673050656     0.2051558109     2.7395170567
  141      C       5.6188356192     0.9852075271    -1.3236467401
  142      C       1.5415218475    -1.0165547894    -2.2250856093
  143      C       6.4276910693    -2.8702086925     2.3093244453
  144      C       3.4621762245     0.3779812139    -2.4824143869
  145      C       7.2197197724    -2.1848023845    -1.1248652300
  146      C       2.2815151247    -1.6651289660     3.0690532713
  147      C       1.9076157326    -3.2687568566    -2.2736151475
  148      C       6.9563860895    -0.1547491355     0.2146287706
  149      C       0.6871287840    -1.7274625307     1.2643522647
  150      C       7.3699325832    -2.9057195560     0.0510193490
  151      C       5.5205430953    -0.8637673606    -2.8725019445
  152      C       3.8115220711    -4.9778338120     1.5738585190
  153      C       4.4925567413    -4.3297114730     2.5845039621
  154      C       5.6359700646    -2.2655354606    -2.9159163274
  155      C       3.5635534457    -1.0548856739     3.3175243318
  156      C       6.1069224888    -0.6402233793     2.4930280661
  157      C       2.4529723241    -3.0310739206     2.9843313157
  158      C       3.7780074623     1.4982475848     0.8867635377
  159      C       3.5238848202    -1.8620759791    -3.4028109434
  160      C       6.9824530642    -0.8763519967     1.3762185535
  161      C       6.5399427043    -2.9196686547    -2.0676290937
  162      C       1.4339401724    -1.0147725120     2.2090171191
  163      C       4.1663802748    -4.1278335281    -2.6564924324
  164      C       0.6758024909    -0.9676399796     0.0630136755
  165      C       2.8847149144    -5.0510368849    -1.0339825046
  166      C       4.1191598632    -0.6425839391    -3.1724551588
  167      C       4.4690167197    -2.8955245361    -3.2393643998
  168      C       3.3279943256     1.4212755692    -0.4318256651
  169      C       2.9803273006     0.8303365312     1.8842349328
  170      C       2.4622629017    -4.7309109848     1.3300351995
  171      C       2.2159412162    -2.0684767487    -2.9099547257
  172      C       6.7585025075    -4.1230292435    -0.1512784197
  173      C       3.8370632112    -3.2868932088     3.2406688042
  174      C       4.7191050188    -5.2879473557     0.5357882984
  175      C       1.7229310993     0.2737421644     1.6093904245
  176      C       0.7846267394    -3.1508741757     1.1808990578
 ----------------------------------------------------------------

    9   -5804.2891584465      8.69E-06 Convergence criterion met
 Total energy in the final basis set = -5804.2891584465

                    Orbital Energies (a.u.)
 --------------------------------------------------------------

 Alpha MOs
 -- Occupied --
-19.202 -19.183 -19.145 -19.136 -10.325 -10.311 -10.253 -10.247
-10.244 -10.240 -10.239 -10.237 -10.237 -10.235 -10.233 -10.231
-10.231 -10.231 -10.226 -10.226 -10.224 -10.224 -10.224 -10.222
-10.222 -10.222 -10.222 -10.222 -10.222 -10.221 -10.221 -10.221
-10.221 -10.221 -10.221 -10.221 -10.220 -10.220 -10.220 -10.220
-10.219 -10.219 -10.219 -10.219 -10.219 -10.219 -10.219 -10.218
-10.218 -10.218 -10.218 -10.218 -10.218 -10.217 -10.217 -10.217
-10.217 -10.217 -10.217 -10.217 -10.216 -10.216 -10.216 -10.216
-10.216 -10.216 -10.216 -10.216 -10.215 -10.215 -10.215 -10.215
-10.215 -10.215 -10.215 -10.215 -10.214 -10.214 -10.214 -10.214
-10.214 -10.214 -10.213 -10.213 -10.213 -10.213 -10.213 -10.213
-10.213 -10.213 -10.213 -10.213 -10.213 -10.213 -10.213 -10.213
-10.213 -10.213 -10.213 -10.212 -10.212 -10.211 -10.211 -10.211
-10.211 -10.211 -10.211 -10.210 -10.210 -10.210 -10.210 -10.210
-10.210 -10.210 -10.210 -10.210 -10.209 -10.209 -10.209 -10.209
-10.209 -10.209 -10.208 -10.207 -10.207 -10.206 -10.206 -10.206
-10.206 -10.206 -10.205 -10.203 -10.203 -10.202 -10.202 -10.201
-10.200 -10.197 -10.197 -10.197 -10.196 -10.194 -10.194 -10.194
-10.190 -10.184 -10.184 -10.183  -1.099  -1.095  -1.025  -1.018
 -0.986  -0.981  -0.969  -0.966  -0.963  -0.963  -0.961  -0.959
 -0.934  -0.934  -0.931  -0.928  -0.926  -0.925  -0.923  -0.922
 -0.920  -0.919  -0.897  -0.896  -0.893  -0.888  -0.886  -0.884
 -0.875  -0.873  -0.858  -0.850  -0.846  -0.843  -0.840  -0.838
 -0.838  -0.836  -0.820  -0.820  -0.809  -0.804  -0.800  -0.798
 -0.797  -0.797  -0.795  -0.793  -0.793  -0.788  -0.786  -0.785
 -0.776  -0.770  -0.769  -0.768  -0.768  -0.766  -0.764  -0.762
 -0.753  -0.749  -0.744  -0.736  -0.733  -0.732  -0.718  -0.717
 -0.715  -0.714  -0.714  -0.713  -0.712  -0.712  -0.711  -0.710
 -0.709  -0.707  -0.707  -0.705  -0.704  -0.702  -0.674  -0.671
 -0.664  -0.658  -0.658  -0.655  -0.647  -0.644  -0.631  -0.631
 -0.628  -0.627  -0.625  -0.623  -0.620  -0.620  -0.620  -0.618
 -0.617  -0.616  -0.615  -0.613  -0.613  -0.611  -0.608  -0.607
 -0.606  -0.604  -0.601  -0.600  -0.575  -0.565  -0.565  -0.562
 -0.561  -0.560  -0.559  -0.557  -0.556  -0.554  -0.553  -0.551
 -0.537  -0.536  -0.533  -0.532  -0.531  -0.529  -0.526  -0.526
 -0.524  -0.520  -0.519  -0.519  -0.518  -0.516  -0.514  -0.513
 -0.509  -0.507  -0.503  -0.502  -0.493  -0.492  -0.490  -0.488
 -0.487  -0.484  -0.483  -0.481  -0.480  -0.480  -0.478  -0.476
 -0.476  -0.475  -0.471  -0.470  -0.470  -0.469  -0.469  -0.468
 -0.467  -0.466  -0.464  -0.463  -0.462  -0.459  -0.459  -0.458
 -0.457  -0.454  -0.454  -0.450  -0.449  -0.446  -0.445  -0.444
 -0.442  -0.441  -0.440  -0.440  -0.438  -0.437  -0.434  -0.432
 -0.431  -0.430  -0.430  -0.428  -0.428  -0.426  -0.425  -0.424
 -0.423  -0.422  -0.422  -0.422  -0.420  -0.419  -0.419  -0.419
 -0.418  -0.417  -0.417  -0.416  -0.415  -0.413  -0.412  -0.411
 -0.411  -0.410  -0.409  -0.406  -0.404  -0.403  -0.399  -0.397
 -0.395  -0.393  -0.392  -0.391  -0.390  -0.390  -0.385  -0.384
 -0.380  -0.378  -0.376  -0.372  -0.370  -0.368  -0.368  -0.365
 -0.365  -0.363  -0.363  -0.362  -0.361  -0.360  -0.359  -0.359
 -0.357  -0.357  -0.356  -0.355  -0.354  -0.354  -0.354  -0.351
 -0.349  -0.347  -0.347  -0.346  -0.345  -0.344  -0.343  -0.342
 -0.342  -0.341  -0.341  -0.339  -0.338  -0.336  -0.334  -0.333
 -0.332  -0.331  -0.330  -0.330  -0.328  -0.327  -0.326  -0.324
 -0.310  -0.307  -0.307  -0.299  -0.289  -0.284  -0.273  -0.273
 -0.272  -0.271  -0.271  -0.269  -0.269  -0.267  -0.266  -0.265
 -0.264  -0.262  -0.261  -0.259  -0.258  -0.257  -0.254  -0.250
 -0.250  -0.245  -0.244  -0.240  -0.222  -0.217  -0.214  -0.212
 -0.211  -0.209  -0.208  -0.206  -0.204  -0.202

          Ground-State Mulliken Net Atomic Charges

     Atom                 Charge (a.u.)
  ----------------------------------------
      1 O                    -0.468026
      2 C                    -0.084622
      3 H                     0.126560
      4 H                     0.127235
      5 H                     0.134988
      6 O                    -0.471316
      7 C                     0.595851
      8 C                    -0.251905
      9 H                     0.132663
     10 H                     0.135233
     11 C                    -0.200076
     12 H                     0.127575
     13 H                     0.114725
     14 C                    -0.185018
     15 H                     0.105042
     16 H                     0.112865
     17 C                     0.018551
     18 C                     0.085117
     19 C                    -0.100953
     20 H                     0.096824
     21 C                    -0.106520
     22 H                     0.091733
     23 C                    -0.077010
     24 H                     0.093420
     25 C                    -0.085823
     26 H                     0.090259
     27 C                    -0.098915
     28 H                     0.089577
     29 C                    -0.037050
     30 C                    -0.009015
     31 C                    -0.007923
     32 C                     0.004009
     33 C                     0.001488
     34 C                     0.025778
     35 C                    -0.019824
     36 C                     0.020723
     37 C                     0.023899
     38 C                     0.004771
     39 C                    -0.115227
     40 C                     0.003184
     41 C                    -0.006148
     42 C                     0.023272
     43 C                     0.010792
     44 C                     0.004640
     45 C                    -0.066380
     46 C                     0.004838
     47 C                    -0.012464
     48 C                     0.013475
     49 C                    -0.007186
     50 C                    -0.002816
     51 C                    -0.002239
     52 C                    -0.006391
     53 C                     0.025790
     54 C                    -0.032926
     55 C                     0.012547
     56 C                    -0.011577
     57 C                    -0.033380
     58 C                    -0.006739
     59 C                     0.002413
     60 C                     0.050708
     61 C                    -0.019430
     62 C                    -0.020424
     63 C                    -0.016924
     64 C                    -0.014841
     65 C                     0.009171
     66 C                    -0.004141
     67 C                    -0.018685
     68 C                     0.016819
     69 C                     0.008667
     70 C                     0.026838
     71 C                     0.000916
     72 C                    -0.007746
     73 C                     0.006242
     74 C                     0.006840
     75 C                    -0.007176
     76 C                     0.016629
     77 C                    -0.011607
     78 C                    -0.010546
     79 C                     0.015268
     80 C                     0.001730
     81 C                     0.017500
     82 C                     0.030996
     83 C                     0.021610
     84 C                     0.014106
     85 C                    -0.022917
     86 C                    -0.016686
     87 C                     0.009628
     88 C                    -0.032162
     89 O                    -0.484826
     90 C                    -0.078587
     91 H                     0.120991
     92 H                     0.130188
     93 H                     0.118451
     94 O                    -0.447888
     95 C                     0.606591
     96 C                    -0.271099
     97 H                     0.131785
     98 H                     0.137160
     99 C                    -0.189221
    100 H                     0.104298
    101 H                     0.142142
    102 C                    -0.194726
    103 H                     0.108213
    104 H                     0.116062
    105 C                     0.010239
    106 C                     0.085553
    107 C                    -0.134739
    108 H                     0.087415
    109 C                    -0.108673
    110 H                     0.123911
    111 C                    -0.074050
    112 H                     0.089464
    113 C                    -0.088033
    114 H                     0.090061
    115 C                    -0.093392
    116 H                     0.086211
    117 C                    -0.023457
    118 C                     0.005472
    119 C                     0.015465
    120 C                     0.025831
    121 C                     0.001195
    122 C                     0.000929
    123 C                    -0.032907
    124 C                     0.005603
    125 C                    -0.002732
    126 C                    -0.001355
    127 C                    -0.073315
    128 C                     0.007087
    129 C                     0.017827
    130 C                     0.006568
    131 C                     0.005401
    132 C                    -0.005912
    133 C                    -0.100303
    134 C                     0.036472
    135 C                    -0.020021
    136 C                    -0.008350
    137 C                    -0.014191
    138 C                    -0.004978
    139 C                     0.013798
    140 C                     0.028653
    141 C                     0.025856
    142 C                    -0.008294
    143 C                    -0.003498
    144 C                    -0.016839
    145 C                    -0.030055
    146 C                    -0.013943
    147 C                     0.035906
    148 C                     0.046552
    149 C                     0.009864
    150 C                    -0.016695
    151 C                     0.013623
    152 C                     0.017048
    153 C                    -0.004888
    154 C                     0.006789
    155 C                    -0.025498
    156 C                    -0.017207
    157 C                     0.007825
    158 C                    -0.002539
    159 C                    -0.010991
    160 C                    -0.029860
    161 C                     0.035210
    162 C                     0.012088
    163 C                     0.001959
    164 C                    -0.010976
    165 C                    -0.015085
    166 C                    -0.001744
    167 C                    -0.002365
    168 C                     0.023161
    169 C                     0.001835
    170 C                     0.025176
    171 C                    -0.026126
    172 C                    -0.002233
    173 C                    -0.004888
    174 C                    -0.000706
    175 C                    -0.004796
    176 C                    -0.022692
  ----------------------------------------
  Sum of atomic charges =     0.000000

                    Cartesian Multipole Moments
 -----------------------------------------------------------------
    Charge (ESU x 10^10)
                 0.0000
    Dipole Moment (Debye)
         X       1.0872      Y       2.2754      Z       0.4785
       Tot       2.5668
    Quadrupole Moments (Debye-Ang)
        XX    -802.4612     XY     -27.3892     YY    -811.9166
        XZ      -4.0404     YZ       4.5505     ZZ    -790.1751

 Total job time:  874.65s(wall), 8416.70s(cpu)
        *  Thank you very much for using Q-Chem.  Have a nice day.  *
