 Q-Chem 4.4, Q-Chem, Inc., Pleasanton, CA (2016)
 Q-Chem 4.4.2 for Intel X86 Linux

User input:
--------------------------------------------------------------
$comment
SP
$end

$rem
MEM_STATIC 5000
MEM_TOTAL 20000
JOBTYPE SP
EXCHANGE B3LYP
BASIS 6-31g(d,p)
$end

$molecule
0 1
O         -22.649000     -8.477000    -13.717000
C         -22.776000     -7.807000    -14.973000
H         -23.120000     -6.778000    -14.808000
H         -23.542000     -8.330000    -15.558000
H         -21.801000     -7.714000    -15.469000
O         -21.282000    -10.203000    -14.518000
C         -21.912000     -9.644000    -13.623000
C         -21.958000    -10.257000    -12.258000
H         -21.344000     -9.691000    -11.546000
H         -21.503000    -11.255000    -12.270000
C         -23.461000    -10.319000    -11.868000
H         -23.722000     -9.262000    -11.733000
H         -24.008000    -10.613000    -12.772000
C         -23.700000    -11.054000    -10.560000
H         -23.380000    -12.095000    -10.698000
H         -23.043000    -10.645000     -9.782000
C         -25.166000    -11.048000    -10.185000
C         -26.086000    -11.849000    -11.098000
C         -26.702000    -11.241000    -12.146000
H         -26.477000    -10.206000    -12.388000
C         -27.635000    -11.976000    -12.925000
H         -28.289000    -11.425000    -13.594000
C         -27.877000    -13.335000    -12.689000
H         -28.657000    -13.860000    -13.233000
C         -27.232000    -13.917000    -11.602000
H         -27.446000    -14.933000    -11.285000
C         -26.285000    -13.218000    -10.879000
H         -25.888000    -13.745000    -10.017000
C         -29.171000     -7.516000     -9.221000
C         -30.041000     -9.692000     -8.395000
C         -29.741000     -8.658000     -3.973000
C         -24.724000     -6.414000     -7.235000
C         -26.671000    -10.255000     -3.479000
C         -29.246000     -8.920000     -9.291000
C         -24.647000     -7.445000     -4.540000
C         -30.430000     -7.342000     -5.875000
C         -26.986000    -11.960000     -7.045000
C         -24.070000     -7.623000     -6.900000
C         -25.664000    -10.950000     -8.757000
C         -25.676000    -11.672000     -6.570000
C         -24.085000     -9.519000     -5.717000
C         -25.366000     -8.193000     -3.602000
C         -28.207000    -10.885000     -8.873000
C         -27.744000     -8.038000     -2.988000
C         -25.620000     -9.730000     -9.614000
C         -24.834000     -8.506000     -9.020000
C         -27.830000     -9.450000     -3.141000
C         -27.738000     -5.193000     -5.844000
C         -28.884000     -6.330000     -4.310000
C         -29.659000     -6.248000     -5.488000
C         -30.508000     -7.701000     -7.212000
C         -25.596000     -7.337000     -9.238000
C         -27.030000    -11.485000     -8.366000
C         -30.735000     -9.138000     -7.331000
C         -23.981000     -8.107000     -5.589000
C         -29.360000    -10.936000     -8.127000
C         -25.616000    -11.354000     -5.182000
C         -26.609000     -5.472000     -8.004000
C         -30.519000     -8.556000     -5.172000
C         -24.905000    -10.941000     -7.478000
C         -29.034000     -5.854000     -7.796000
C         -24.769000    -10.263000     -4.731000
C         -28.134000    -12.030000     -6.290000
C         -26.539000     -6.240000     -4.050000
C         -25.364000     -6.280000     -4.832000
C         -28.032000    -11.661000     -4.923000
C         -25.461000     -6.219000     -8.371000
C         -24.106000     -8.674000     -7.844000
C         -26.571000     -5.168000     -6.643000
C         -26.895000     -9.066000     -9.932000
C         -29.943000    -10.805000     -5.749000
C         -24.080000     -9.869000     -7.109000
C         -26.769000    -11.357000     -4.346000
C         -27.856000     -5.786000     -8.552000
C         -29.073000     -9.832000     -3.688000
C         -29.855000     -6.947000     -8.165000
C         -28.950000     -7.543000     -3.497000
C         -29.333000    -11.507000     -6.812000
C         -29.142000    -10.929000     -4.618000
C         -28.124000     -9.663000     -9.626000
C         -26.873000     -7.690000     -9.694000
C         -27.733000     -5.694000     -4.559000
C         -30.648000     -9.615000     -6.014000
C         -25.455000     -9.578000     -3.718000
C         -25.414000     -5.753000     -6.162000
C         -26.494000     -7.430000     -3.251000
C         -27.967000     -6.877000     -9.415000
C         -28.973000     -5.467000     -6.422000
O         -35.129000    -21.309000     -6.111000
C         -36.390000    -21.698000     -5.661000
H         -36.784000    -22.559000     -6.215000
H         -37.025000    -20.806000     -5.736000
H         -36.325000    -22.015000     -4.613000
O         -34.401000    -23.511000     -5.898000
C         -34.240000    -22.306000     -6.216000
C         -32.929000    -21.808000     -6.676000
H         -32.216000    -22.641000     -6.716000
H         -32.486000    -21.173000     -5.899000
C         -33.080000    -21.048000     -8.026000
H         -33.380000    -21.767000     -8.799000
H         -33.832000    -20.254000     -7.942000
C         -31.672000    -20.392000     -8.350000
H         -30.984000    -21.247000     -8.326000
H         -31.658000    -19.995000     -9.372000
C         -31.258000    -19.136000     -7.523000
C         -32.400000    -18.248000     -7.019000
C         -32.803000    -18.360000     -5.658000
H         -32.344000    -19.118000     -5.031000
C         -33.731000    -17.514000     -5.120000
H         -34.026000    -17.551000     -4.076000
C         -34.328000    -16.529000     -5.903000
H         -35.204000    -15.990000     -5.555000
C         -33.941000    -16.494000     -7.270000
H         -34.559000    -15.891000     -7.928000
C         -33.031000    -17.319000     -7.822000
H         -32.828000    -17.271000     -8.888000
C         -27.219000    -15.400000     -7.398000
C         -27.648000    -15.807000     -4.985000
C         -23.874000    -18.082000     -4.099000
C         -26.301000    -19.721000     -9.805000
C         -25.428000    -21.241000     -4.377000
C         -28.130000    -15.664000     -6.314000
C         -25.069000    -21.525000     -7.995000
C         -24.278000    -16.160000     -5.401000
C         -29.115000    -19.553000     -4.444000
C         -27.033000    -20.638000     -9.109000
C         -30.073000    -19.384000     -6.597000
C         -28.787000    -20.701000     -5.092000
C         -27.372000    -21.769000     -7.153000
C         -24.610000    -21.680000     -6.629000
C         -29.433000    -17.246000     -5.320000
C         -23.466000    -20.073000     -5.179000
C         -29.886000    -18.634000     -7.836000
C         -29.006000    -19.203000     -8.861000
C         -24.398000    -20.323000     -4.155000
C         -23.639000    -17.771000     -8.560000
C         -23.028000    -17.943000     -6.362000
C         -23.561000    -16.696000     -6.520000
C         -25.391000    -15.378000     -5.683000
C         -28.183000    -18.195000     -9.487000
C         -29.759000    -18.632000     -5.292000
C         -26.292000    -15.654000     -4.662000
C         -26.490000    -21.558000     -8.206000
C         -28.494000    -16.762000     -4.324000
C         -27.594000    -21.454000     -4.783000
C         -25.758000    -17.586000     -9.680000
C         -24.466000    -16.831000     -4.220000
C         -29.301000    -20.619000     -6.405000
C         -25.126000    -15.854000     -8.113000
C         -26.879000    -21.988000     -5.845000
C         -28.191000    -19.063000     -3.513000
C         -23.369000    -19.992000     -7.600000
C         -24.306000    -20.479000     -8.546000
C         -26.981000    -19.712000     -3.271000
C         -26.828000    -18.479000     -9.941000
C         -28.342000    -20.391000     -8.679000
C         -24.538000    -18.298000     -9.572000
C         -29.420000    -17.204000     -7.787000
C         -26.459000    -17.500000     -3.150000
C         -28.480000    -21.088000     -7.449000
C         -26.702000    -20.945000     -3.890000
C         -26.031000    -16.344000     -9.063000
C         -24.648000    -19.117000     -3.435000
C         -25.844000    -15.276000     -7.052000
C         -23.219000    -18.661000     -5.177000
C         -27.844000    -17.720000     -3.464000
C         -25.960000    -18.798000     -3.065000
C         -29.153000    -16.561000     -6.545000
C         -28.395000    -17.014000     -8.816000
C         -23.082000    -18.618000     -7.573000
C         -25.719000    -16.505000     -3.747000
C         -25.512000    -21.934000     -5.563000
C         -24.900000    -19.622000     -9.513000
C         -23.596000    -20.739000     -6.425000
C         -27.325000    -16.104000     -8.571000
C         -23.941000    -16.574000     -7.877000
$end

--------------------------------------------------------------

             Standard Nuclear Orientation (Angstroms)
    I     Atom           X                Y                Z
 ----------------------------------------------------------------
    1      O      -7.0177629736     5.8711852338    -3.4616053749
    2      C      -7.7839620351     6.2054939136    -4.6208041088
    3      H      -8.7023001686     5.6049418502    -4.6406608864
    4      H      -7.1896629806     5.9440148236    -5.5045163466
    5      H      -8.1180880120     7.2505842157    -4.5829083038
    6      O      -5.6880582644     7.7997553990    -3.5048315732
    7      C      -6.0127252417     6.7157937312    -3.0252229238
    8      C      -5.2565937952     6.1697816687    -1.8542207618
    9      H      -5.8494122173     6.2321138808    -0.9328212753
   10      H      -4.3732346460     6.7860459146    -1.6466924681
   11      C      -4.8619036070     4.7171568197    -2.2402954998
   12      H      -5.8269238668     4.1953367365    -2.2461860909
   13      H      -4.5682888625     4.7418967760    -3.2967231198
   14      C      -3.9556540826     4.0604830206    -1.2128222295
   15      H      -3.0180033896     4.6305022575    -1.1809749746
   16      H      -4.3965235254     4.1633796580    -0.2131920898
   17      C      -3.6360751643     2.6313546042    -1.5939761151
   18      C      -2.7768459994     2.4549668675    -2.8398423232
   19      C      -3.3649649885     2.2877548164    -4.0537534339
   20      H      -4.4441181607     2.3632557480    -4.1544611315
   21      C      -2.5528684656     2.0224176393    -5.1885002867
   22      H      -3.0365085301     1.6568555470    -6.0892414508
   23      C      -1.1552180661     2.0074129945    -5.1019599985
   24      H      -0.5517601011     1.7151091717    -5.9565698273
   25      C      -0.5937954224     2.1752008795    -3.8398309081
   26      H       0.4729224090     2.0695078026    -3.6681246425
   27      C      -1.3796499250     2.4868972399    -2.7473946035
   28      H      -0.8484082278     2.5368347187    -1.8020531269
   29      C      -6.1968983405    -2.0275718740    -2.6806838635
   30      C      -3.8163124876    -2.6745623859    -2.3834192103
   31      C      -4.3978255152    -4.7329347577     1.6338168766
   32      C      -7.9160023708     0.5859463932     1.2114380000
   33      C      -3.3822272012    -1.9901134484     3.5481931014
   34      C      -4.8213078414    -1.7458223508    -2.7812273121
   35      C      -6.6304522623    -0.3888003023     3.6050012012
   36      C      -5.7555993360    -4.7176794499    -0.3612767370
   37      C      -2.0498430373    -0.1984909463     0.2713886748
   38      C      -6.8275070699     1.2554992954     1.8184790950
   39      C      -3.4785070936     1.5115363265    -0.5850304634
   40      C      -2.5326113264     0.6314197563     1.3215562827
   41      C      -4.8465787454     1.1075251596     2.8424696362
   42      C      -5.6589901635    -1.2778238966     4.0763900419
   43      C      -3.0613828766    -0.6184238080    -1.9168740025
   44      C      -5.2815915828    -3.6310671142     3.4634286480
   45      C      -4.7703157539     1.6812072804    -1.3111345554
   46      C      -6.0508909346     1.7993537493    -0.4083740010
   47      C      -3.9051661731    -3.3178055412     3.2849089617
   48      C      -8.3692997695    -2.9137086117     0.9729965705
   49      C      -6.8704720016    -4.3613597120     1.7585299014
   50      C      -6.9292210950    -4.4858170193     0.3527945341
   51      C      -5.5370390624    -4.0741547746    -1.5698467180
   52      C      -7.0666211296     0.9914052178    -0.9653662284
   53      C      -2.6491645543     0.2807216026    -0.9049493090
   54      C      -4.1051688226    -3.8916747897    -1.7868897356
   55      C      -6.2292353848     0.8214067272     3.0078203551
   56      C      -2.7062770240    -1.9425949042    -1.8220228483
   57      C      -2.7021209065    -0.0423682299     2.5659614627
   58      C      -8.5530294750    -0.8701010379    -0.3716199101
   59      C      -4.4777919301    -4.8545104171     0.2082946104
   60      C      -3.4942976071     1.5544675017     0.9015463338
   61      C      -7.6875111898    -2.9524840950    -1.3637750903
   62      C      -3.8805430643     0.2248569161     3.3728089943
   63      C      -1.6761979200    -1.5184042040     0.3764949000
   64      C      -7.3845161337    -2.5027637032     3.1209191652
   65      C      -7.6591215434    -1.1225800776     3.0050139084
   66      C      -1.9058733634    -2.1578140900     1.6229531578
   67      C      -8.0876781674     0.4489508827    -0.1389136768
   68      C      -5.8994067884     1.9038025264     0.9726861014
   69      C      -8.7075834753    -1.5468198595     0.8384816135
   70      C      -5.2052031146     0.5950995146    -2.2049398499
   71      C      -2.4602667201    -3.5900280450    -0.0227516133
   72      C      -4.6589182709     1.8457966273     1.6259468101
   73      C      -2.3839440895    -1.4196482327     2.7396776305
   74      C      -8.0651345624    -1.6060525595    -1.4552448047
   75      C      -3.3516462966    -4.0356667694     2.2039496639
   76      C      -6.5031940468    -3.2357216168    -2.0862848903
   77      C      -5.5860433598    -4.5306276361     2.4354977248
   78      C      -2.0107285754    -2.4121017091    -0.6593660993
   79      C      -2.3707672718    -3.4118759947     1.3543430443
   80      C      -4.3513059579    -0.4649307225    -2.5330885083
   81      C      -6.5248039843     0.1951813541    -1.9830772580
   82      C      -7.7410136211    -3.4034446851     2.0989033580
   83      C      -3.5126756856    -4.3318612245    -0.5932504327
   84      C      -4.3042489052    -0.9905748938     3.9288565425
   85      C      -8.3089590795    -0.6558300118     1.8180073571
   86      C      -6.1455720376    -2.5758317777     3.8393929526
   87      C      -7.0746152850    -1.0510168918    -2.2665264874
   88      C      -7.9260152373    -3.6341914521    -0.1309908843
   89      O       8.7458918961    -5.5051299769    -2.8712687114
   90      C       9.4190059683    -6.7066695231    -3.0884372284
   91      H      10.2740608347    -6.5900058168    -3.7657434776
   92      H       8.6643574436    -7.4119270696    -3.4594242864
   93      H       9.8303022425    -7.0744956535    -2.1405145983
   94      O      10.7747086427    -4.4937231743    -2.3373062702
   95      C       9.5339099768    -4.4748907326    -2.5351294486
   96      C       8.7437417147    -3.2502506299    -2.3022867194
   97      H       9.4131402117    -2.4373740367    -1.9940736494
   98      H       8.1239466010    -3.3798514335    -1.4065966789
   99      C       7.8841559456    -2.9121706899    -3.5551694991
  100      H       8.5585442363    -2.6437091365    -4.3783455603
  101      H       7.2651640182    -3.7703781096    -3.8438302317
  102      C       6.9360521579    -1.7040450328    -3.1560359318
  103      H       7.6387613500    -0.9377647477    -2.8039573666
  104      H       6.4342943594    -1.2988765354    -4.0428090710
  105      C       5.7219677846    -2.0202958437    -2.2292967241
  106      C       5.1330124515    -3.4302042366    -2.3389048407
  107      C       5.4695345419    -4.3905939984    -1.3430743390
  108      H       6.1881886213    -4.1255346957    -0.5738839334
  109      C       4.8837459120    -5.6245464017    -1.3194703627
  110      H       5.0914608766    -6.3600791930    -0.5486422324
  111      C       3.9534621540    -5.9844188342    -2.2914718863
  112      H       3.6360478229    -7.0160611317    -2.4096383473
  113      C       3.6944505243    -5.0177024918    -3.3004592444
  114      H       3.1543408570    -5.3693108423    -4.1740438798
  115      C       4.2617234116    -3.7971909691    -3.3449799607
  116      H       4.0587165596    -3.1322513358    -4.1795532062
  117      C       1.3102066776     0.5353501390    -0.1576115295
  118      C       2.0546654469    -0.8773095079     1.7456574643
  119      C       3.6376535801     2.4325817276     4.3422832709
  120      C       5.0807498776     3.4157212417    -1.8291019684
  121      C       6.9881884674     1.9411614470     3.3403336332
  122      C       1.8630722623    -0.6941497334     0.3496780416
  123      C       6.7988633910     4.0159206137     0.3471762007
  124      C       1.6995987736     2.2732805467     3.0114674682
  125      C       6.0503444064    -1.5497092578     1.5012925135
  126      C       6.1929611483     2.6673034025    -1.5761477684
  127      C       5.8354061060    -1.3902076406    -0.8460665901
  128      C       7.0348545608    -0.7086688090     1.0904607723
  129      C       7.5756796231     1.7081102123    -0.0308141334
  130      C       7.0106712678     3.7983684877     1.7643813713
  131      C       3.7669783476    -1.9221541580     0.5857198852
  132      C       5.3811125961     3.7332816465     3.5903023002
  133      C       4.9321816848    -0.8137702385    -1.8382840896
  134      C       5.2038617748     0.5470323397    -2.3107163831
  135      C       5.9178264017     2.5110194779     4.0349521422
  136      C       2.7999308948     4.6662740863     0.5526518707
  137      C       3.0900255019     4.1901091769     2.7714851448
  138      C       1.9604182559     3.5319319409     2.3779725073
  139      C       1.1222033811     1.2821678457     2.2278048017
  140      C       3.9929608056     1.3198459178    -2.4581850801
  141      C       5.1844432698    -1.9047997498     0.4495287738
  142      C       1.6779226425     0.0935662910     2.6847735607
  143      C       7.0835044190     2.9100585731    -0.5251194100
  144      C       3.2221953608    -1.6980526161     1.9127402303
  145      C       7.5714224463     0.3315293926     1.9365231847
  146      C       2.9077912128     3.3445918375    -1.4524187477
  147      C       2.5196451751     1.7057261442     3.9526113996
  148      C       6.9106884348    -0.5467692074    -0.3071301164
  149      C       1.2684984207     2.7595867780     0.2284218819
  150      C       7.8369277319     1.5611649235     1.3519477795
  151      C       5.4954968813    -1.3091111433     2.7641835504
  152      C       5.0179746404     4.9390104038     1.5186942319
  153      C       5.5707747389     4.6937193885     0.2363922514
  154      C       5.9200375009    -0.2459965907     3.5600589869
  155      C       3.9572646767     2.7534097297    -2.2004689894
  156      C       6.2531753407     1.2925484576    -1.8326883940
  157      C       3.3771217039     4.4934273882    -0.7691078611
  158      C       3.4531098309    -0.7577422506    -1.5668723810
  159      C       3.6756483070    -0.3503147979     3.9232446941
  160      C       7.0942418304     0.7503618095    -0.8245248167
  161      C       7.0000935757     0.5584957877     3.1507157465
  162      C       1.8175784173     2.5441574419    -1.0419034144
  163      C       4.8695377664     1.6896894851     4.5466590701
  164      C       0.9605710983     1.5180607085     0.8107643780
  165      C       3.9569110505     3.6285794465     3.7145778271
  166      C       4.1243182944    -1.3352549960     2.9778299446
  167      C       4.8535667038     0.3246127163     4.2363119408
  168      C       2.9106179692    -1.2584705514    -0.3493849072
  169      C       2.9563031695     0.5596068175    -1.9710265270
  170      C       3.6258004923     4.8651263021     1.6841218015
  171      C       2.4966968105     0.3408966075     3.7609666551
  172      C       7.5500696971     2.5828046289     2.2602945085
  173      C       4.7445246127     4.4516385747    -0.8954565055
  174      C       5.9190173962     4.3579320335     2.4355545701
  175      C       1.8885031940     1.1545425619    -1.2369422863
  176      C       1.7664457987     3.8200108812     1.0067984812
 ----------------------------------------------------------------

    9   -5804.2782028316      8.23E-06 Convergence criterion met
 Total energy in the final basis set = -5804.2782028316

                    Orbital Energies (a.u.)
 --------------------------------------------------------------

 Alpha MOs
 -- Occupied --
-19.207 -19.196 -19.136 -19.134 -10.318 -10.317 -10.249 -10.245
-10.244 -10.242 -10.237 -10.237 -10.236 -10.234 -10.234 -10.234
-10.231 -10.231 -10.231 -10.230 -10.227 -10.227 -10.226 -10.225
-10.225 -10.225 -10.224 -10.224 -10.224 -10.224 -10.223 -10.223
-10.223 -10.222 -10.222 -10.222 -10.222 -10.222 -10.221 -10.221
-10.221 -10.221 -10.221 -10.221 -10.221 -10.220 -10.220 -10.220
-10.220 -10.219 -10.219 -10.219 -10.219 -10.219 -10.219 -10.219
-10.218 -10.218 -10.218 -10.218 -10.218 -10.218 -10.218 -10.218
-10.217 -10.217 -10.217 -10.216 -10.216 -10.216 -10.216 -10.216
-10.216 -10.216 -10.216 -10.216 -10.216 -10.216 -10.216 -10.215
-10.215 -10.215 -10.215 -10.215 -10.215 -10.215 -10.214 -10.214
-10.214 -10.214 -10.214 -10.214 -10.214 -10.213 -10.213 -10.213
-10.213 -10.213 -10.213 -10.213 -10.213 -10.213 -10.213 -10.213
-10.213 -10.213 -10.213 -10.212 -10.212 -10.212 -10.212 -10.212
-10.212 -10.211 -10.211 -10.211 -10.210 -10.210 -10.210 -10.210
-10.209 -10.209 -10.209 -10.209 -10.208 -10.207 -10.207 -10.206
-10.206 -10.206 -10.205 -10.205 -10.205 -10.204 -10.203 -10.202
-10.202 -10.200 -10.199 -10.199 -10.199 -10.198 -10.198 -10.197
-10.195 -10.194 -10.193 -10.192  -1.115  -1.089  -1.010  -1.001
 -0.988  -0.981  -0.973  -0.967  -0.964  -0.963  -0.960  -0.959
 -0.940  -0.937  -0.934  -0.930  -0.925  -0.924  -0.923  -0.921
 -0.919  -0.918  -0.904  -0.895  -0.894  -0.890  -0.888  -0.884
 -0.880  -0.874  -0.866  -0.856  -0.845  -0.840  -0.839  -0.838
 -0.838  -0.836  -0.824  -0.819  -0.810  -0.807  -0.803  -0.799
 -0.798  -0.797  -0.795  -0.794  -0.792  -0.787  -0.787  -0.784
 -0.774  -0.774  -0.770  -0.768  -0.768  -0.767  -0.765  -0.763
 -0.761  -0.750  -0.748  -0.746  -0.739  -0.731  -0.721  -0.717
 -0.717  -0.716  -0.715  -0.713  -0.712  -0.711  -0.710  -0.709
 -0.709  -0.707  -0.705  -0.704  -0.703  -0.703  -0.678  -0.670
 -0.662  -0.661  -0.658  -0.655  -0.651  -0.643  -0.640  -0.631
 -0.629  -0.628  -0.627  -0.626  -0.622  -0.621  -0.620  -0.619
 -0.616  -0.615  -0.614  -0.614  -0.613  -0.613  -0.612  -0.611
 -0.606  -0.605  -0.605  -0.601  -0.578  -0.571  -0.571  -0.567
 -0.564  -0.563  -0.561  -0.559  -0.557  -0.556  -0.554  -0.553
 -0.544  -0.536  -0.535  -0.533  -0.532  -0.530  -0.528  -0.526
 -0.526  -0.522  -0.520  -0.520  -0.519  -0.516  -0.514  -0.512
 -0.512  -0.508  -0.507  -0.500  -0.497  -0.492  -0.490  -0.489
 -0.487  -0.486  -0.484  -0.482  -0.482  -0.480  -0.478  -0.478
 -0.475  -0.474  -0.474  -0.473  -0.471  -0.469  -0.469  -0.467
 -0.467  -0.466  -0.466  -0.465  -0.462  -0.462  -0.459  -0.458
 -0.458  -0.457  -0.454  -0.452  -0.448  -0.447  -0.446  -0.444
 -0.443  -0.442  -0.441  -0.439  -0.439  -0.438  -0.438  -0.437
 -0.433  -0.432  -0.431  -0.429  -0.428  -0.427  -0.426  -0.426
 -0.425  -0.424  -0.423  -0.422  -0.421  -0.421  -0.419  -0.418
 -0.417  -0.417  -0.416  -0.415  -0.415  -0.414  -0.413  -0.412
 -0.411  -0.411  -0.409  -0.407  -0.405  -0.402  -0.401  -0.397
 -0.396  -0.393  -0.392  -0.391  -0.390  -0.389  -0.388  -0.385
 -0.384  -0.378  -0.378  -0.374  -0.373  -0.371  -0.370  -0.367
 -0.367  -0.366  -0.364  -0.363  -0.362  -0.362  -0.361  -0.361
 -0.359  -0.356  -0.356  -0.355  -0.355  -0.354  -0.353  -0.353
 -0.353  -0.351  -0.349  -0.348  -0.348  -0.347  -0.347  -0.345
 -0.344  -0.344  -0.342  -0.342  -0.338  -0.337  -0.336  -0.335
 -0.333  -0.332  -0.331  -0.330  -0.329  -0.328  -0.327  -0.326
 -0.310  -0.308  -0.302  -0.301  -0.293  -0.284  -0.275  -0.272
 -0.271  -0.270  -0.269  -0.268  -0.268  -0.268  -0.266  -0.265
 -0.263  -0.263  -0.262  -0.259  -0.259  -0.258  -0.257  -0.252
 -0.252  -0.249  -0.248  -0.243  -0.227  -0.217  -0.216  -0.212
 -0.210  -0.209  -0.208  -0.205  -0.204  -0.201

          Ground-State Mulliken Net Atomic Charges

     Atom                 Charge (a.u.)
  ----------------------------------------
      1 O                    -0.470790
      2 C                    -0.083083
      3 H                     0.124055
      4 H                     0.125750
      5 H                     0.134667
      6 O                    -0.471241
      7 C                     0.590880
      8 C                    -0.242828
      9 H                     0.125893
     10 H                     0.133465
     11 C                    -0.199891
     12 H                     0.127031
     13 H                     0.117186
     14 C                    -0.180247
     15 H                     0.107637
     16 H                     0.106978
     17 C                     0.020356
     18 C                     0.083104
     19 C                    -0.103263
     20 H                     0.095803
     21 C                    -0.106051
     22 H                     0.089787
     23 C                    -0.078110
     24 H                     0.090603
     25 C                    -0.087743
     26 H                     0.088731
     27 C                    -0.096088
     28 H                     0.088518
     29 C                    -0.037320
     30 C                    -0.009387
     31 C                    -0.007583
     32 C                     0.007917
     33 C                     0.001343
     34 C                     0.024826
     35 C                    -0.016001
     36 C                     0.019884
     37 C                     0.027814
     38 C                    -0.000133
     39 C                    -0.115876
     40 C                     0.011698
     41 C                    -0.011971
     42 C                     0.022331
     43 C                     0.010196
     44 C                     0.003396
     45 C                    -0.068673
     46 C                     0.016218
     47 C                    -0.013330
     48 C                     0.013548
     49 C                    -0.007459
     50 C                    -0.002854
     51 C                    -0.001583
     52 C                    -0.006263
     53 C                     0.025956
     54 C                    -0.033461
     55 C                     0.005795
     56 C                    -0.011273
     57 C                    -0.035178
     58 C                    -0.006159
     59 C                     0.001660
     60 C                     0.058217
     61 C                    -0.019395
     62 C                    -0.016280
     63 C                    -0.010549
     64 C                    -0.015763
     65 C                     0.007843
     66 C                    -0.005209
     67 C                    -0.019475
     68 C                     0.006592
     69 C                     0.008586
     70 C                     0.028018
     71 C                     0.001395
     72 C                    -0.020657
     73 C                     0.006174
     74 C                     0.007124
     75 C                    -0.007556
     76 C                     0.016612
     77 C                    -0.011540
     78 C                    -0.012018
     79 C                     0.014387
     80 C                     0.003825
     81 C                     0.016559
     82 C                     0.031042
     83 C                     0.020291
     84 C                     0.013079
     85 C                    -0.022060
     86 C                    -0.015873
     87 C                     0.010387
     88 C                    -0.031708
     89 O                    -0.424865
     90 C                    -0.089195
     91 H                     0.132612
     92 H                     0.117411
     93 H                     0.124992
     94 O                    -0.503522
     95 C                     0.596013
     96 C                    -0.241882
     97 H                     0.131935
     98 H                     0.126468
     99 C                    -0.207150
    100 H                     0.111025
    101 H                     0.132745
    102 C                    -0.189167
    103 H                     0.115436
    104 H                     0.100559
    105 C                     0.003942
    106 C                     0.070741
    107 C                    -0.083614
    108 H                     0.091603
    109 C                    -0.092709
    110 H                     0.091466
    111 C                    -0.082612
    112 H                     0.096527
    113 C                    -0.099829
    114 H                     0.085029
    115 C                    -0.082508
    116 H                     0.091863
    117 C                    -0.023756
    118 C                     0.016199
    119 C                    -0.028029
    120 C                    -0.009399
    121 C                     0.019326
    122 C                     0.003258
    123 C                    -0.034172
    124 C                    -0.004282
    125 C                     0.012775
    126 C                     0.022233
    127 C                    -0.091757
    128 C                     0.015974
    129 C                     0.037403
    130 C                    -0.005720
    131 C                    -0.009444
    132 C                    -0.006149
    133 C                    -0.053704
    134 C                     0.034178
    135 C                    -0.007228
    136 C                    -0.005272
    137 C                     0.004978
    138 C                     0.003191
    139 C                    -0.023172
    140 C                    -0.015028
    141 C                     0.018471
    142 C                     0.011291
    143 C                    -0.024780
    144 C                    -0.043805
    145 C                    -0.010961
    146 C                     0.013100
    147 C                     0.038744
    148 C                     0.017595
    149 C                    -0.021386
    150 C                    -0.006400
    151 C                    -0.002284
    152 C                     0.007400
    153 C                     0.018048
    154 C                     0.011567
    155 C                     0.011492
    156 C                     0.001475
    157 C                    -0.028601
    158 C                     0.007613
    159 C                    -0.000193
    160 C                    -0.013813
    161 C                    -0.006684
    162 C                    -0.029065
    163 C                    -0.034341
    164 C                     0.012045
    165 C                     0.025715
    166 C                    -0.014338
    167 C                     0.027597
    168 C                     0.023868
    169 C                     0.000306
    170 C                    -0.004421
    171 C                     0.005046
    172 C                     0.002216
    173 C                     0.002308
    174 C                    -0.000623
    175 C                     0.030836
    176 C                    -0.001995
  ----------------------------------------
  Sum of atomic charges =     0.000000

                    Cartesian Multipole Moments
 -----------------------------------------------------------------
    Charge (ESU x 10^10)
                 0.0000
    Dipole Moment (Debye)
         X       0.0698      Y      -2.8212      Z      -3.2230
       Tot       4.2839
    Quadrupole Moments (Debye-Ang)
        XX    -835.0718     XY     -16.0422     YY    -813.7993
        XZ       3.4613     YZ      16.7698     ZZ    -790.9514

 Total job time:  856.55s(wall), 8213.60s(cpu)
        *  Thank you very much for using Q-Chem.  Have a nice day.  *
