 Q-Chem 4.4, Q-Chem, Inc., Pleasanton, CA (2016)
 Q-Chem 4.4.2 for Intel X86 Linux

User input:
--------------------------------------------------------------
$comment
SP
$end

$rem
MEM_STATIC 5000
MEM_TOTAL 20000
JOBTYPE SP
EXCHANGE B3LYP
BASIS 6-31g(d,p)
$end

$molecule
0 1
O         -17.377000    -12.772000     -1.885000
C         -18.610000    -13.357000     -2.345000
H         -18.917000    -14.127000     -1.628000
H         -18.368000    -13.732000     -3.347000
H         -19.460000    -12.673000     -2.461000
O         -17.980000    -12.416000      0.297000
C         -17.195000    -12.278000     -0.637000
C         -15.797000    -11.737000     -0.381000
H         -15.724000    -11.429000      0.669000
H         -15.760000    -10.827000     -0.992000
C         -14.700000    -12.683000     -0.965000
H         -14.883000    -13.630000     -0.443000
H         -14.790000    -13.013000     -2.007000
C         -13.335000    -12.024000     -0.667000
H         -13.420000    -11.052000     -1.168000
H         -13.276000    -11.763000      0.397000
C         -12.048000    -12.782000     -1.167000
C         -12.052000    -14.064000     -0.471000
C         -11.550000    -14.030000      0.812000
H         -10.963000    -13.152000      1.066000
C         -11.593000    -15.168000      1.619000
H         -11.087000    -15.300000      2.570000
C         -12.340000    -16.271000      1.218000
H         -12.357000    -17.152000      1.853000
C         -12.888000    -16.324000     -0.062000
H         -13.361000    -17.269000     -0.311000
C         -12.636000    -15.261000     -0.941000
H         -13.087000    -15.298000     -1.928000
C          -6.586000    -12.903000     -1.992000
C          -7.496000    -14.541000     -3.580000
C          -6.728000    -12.255000     -7.410000
C          -9.055000     -8.399000     -2.683000
C         -10.056000    -11.233000     -7.607000
C          -7.508000    -13.914000     -2.297000
C          -9.712000     -8.285000     -5.476000
C          -5.423000    -12.433000     -5.309000
C         -11.222000    -13.785000     -4.740000
C         -10.323000     -8.751000     -3.186000
C         -11.548000    -12.771000     -2.591000
C         -11.884000    -12.543000     -4.902000
C         -11.482000     -9.744000     -4.785000
C          -9.568000     -9.067000     -6.609000
C          -9.659000    -14.381000     -2.965000
C          -7.779000    -10.242000     -7.747000
C         -10.740000    -12.112000     -1.522000
C         -10.467000    -10.634000     -1.647000
C          -8.689000    -11.334000     -7.998000
C          -6.012000     -9.226000     -4.279000
C          -5.806000    -10.262000     -6.333000
C          -5.170000    -11.039000     -5.321000
C          -5.522000    -13.199000     -4.168000
C          -9.172000    -10.351000     -1.185000
C         -10.932000    -13.948000     -3.319000
C          -6.483000    -14.215000     -4.512000
C         -10.683000     -8.671000     -4.538000
C          -8.830000    -14.883000     -3.978000
C         -11.611000    -11.745000     -6.044000
C          -7.130000     -9.430000     -2.102000
C          -6.116000    -12.995000     -6.370000
C         -12.028000    -11.877000     -3.712000
C          -5.514000    -11.149000     -2.923000
C         -11.377000    -10.382000     -6.022000
C         -10.338000    -14.234000     -5.726000
C          -7.504000     -8.475000     -6.033000
C          -8.401000     -8.024000     -5.020000
C         -10.125000    -13.601000     -6.936000
C          -8.457000     -9.241000     -1.704000
C         -11.035000     -9.903000     -2.664000
C          -6.921000     -8.728000     -3.289000
C          -9.373000    -12.628000     -1.226000
C          -8.105000    -14.475000     -6.280000
C         -11.778000    -10.503000     -3.652000
C         -10.795000    -12.329000     -7.122000
C          -6.376000    -10.634000     -1.894000
C          -8.005000    -12.572000     -7.818000
C          -5.608000    -12.546000     -2.924000
C          -6.573000    -10.879000     -7.406000
C          -9.118000    -14.822000     -5.322000
C          -8.701000    -13.713000     -7.327000
C          -8.863000    -13.795000     -1.974000
C          -8.475000    -11.614000     -0.945000
C          -6.285000     -9.127000     -5.713000
C          -6.842000    -14.019000     -5.803000
C         -10.423000    -10.051000     -6.964000
C          -8.098000     -8.038000     -3.623000
C          -8.233000     -9.089000     -7.027000
C          -7.095000    -11.713000     -1.371000
C          -5.299000    -10.344000     -4.074000
O          -8.559000    -29.159000     -5.065000
C          -7.681000    -30.132000     -5.496000
H          -8.009000    -31.170000     -5.360000
H          -6.750000    -29.991000     -4.934000
H          -7.584000    -30.032000     -6.584000
O          -8.290000    -29.479000     -2.857000
C          -8.846000    -28.934000     -3.783000
C         -10.030000    -27.961000     -3.598000
H         -10.470000    -28.082000     -2.601000
H         -10.782000    -28.184000     -4.365000
C          -9.637000    -26.481000     -3.635000
H          -8.722000    -26.330000     -3.050000
H          -9.348000    -26.347000     -4.685000
C         -10.743000    -25.510000     -3.118000
H         -11.598000    -25.820000     -3.731000
H         -11.019000    -25.754000     -2.085000
C         -10.383000    -24.079000     -3.265000
C          -9.259000    -23.757000     -2.290000
C          -9.524000    -23.532000     -0.917000
H         -10.520000    -23.698000     -0.519000
C          -8.529000    -23.051000     -0.025000
H          -8.778000    -22.823000      1.007000
C          -7.284000    -22.788000     -0.484000
H          -6.528000    -22.372000      0.176000
C          -7.034000    -22.816000     -1.875000
H          -6.073000    -22.567000     -2.315000
C          -7.950000    -23.344000     -2.747000
H          -7.695000    -23.520000     -3.788000
C         -12.092000    -18.923000     -2.889000
C         -10.128000    -18.768000     -4.155000
C         -12.015000    -17.663000     -8.178000
C         -15.235000    -22.174000     -5.076000
C         -11.799000    -20.975000     -9.357000
C         -10.811000    -19.351000     -3.123000
C         -14.856000    -22.086000     -7.822000
C         -12.520000    -16.890000     -5.870000
C          -9.410000    -22.062000     -6.271000
C         -14.479000    -23.205000     -5.679000
C         -10.455000    -23.246000     -4.509000
C         -10.258000    -22.971000     -6.930000
C         -12.998000    -23.618000     -7.343000
C         -14.091000    -21.481000     -8.819000
C          -9.566000    -20.955000     -4.119000
C         -13.384000    -19.145000     -9.098000
C         -11.465000    -23.042000     -3.388000
C         -12.875000    -23.208000     -3.798000
C         -12.126000    -19.618000     -9.347000
C         -15.459000    -18.727000     -5.678000
C         -14.289000    -17.777000     -7.318000
C         -13.868000    -17.186000     -6.086000
C         -11.976000    -17.257000     -4.642000
C         -13.645000    -22.161000     -3.242000
C          -9.550000    -22.166000     -4.860000
C         -10.692000    -17.727000     -4.932000
C         -14.297000    -23.125000     -7.065000
C          -9.397000    -19.705000     -4.787000
C         -10.923000    -22.672000     -8.119000
C         -15.188000    -20.297000     -3.758000
C         -11.611000    -17.202000     -6.899000
C         -10.957000    -23.675000     -5.917000
C         -13.987000    -18.155000     -3.827000
C         -12.258000    -22.935000     -8.321000
C          -9.190000    -20.843000     -6.869000
C         -15.377000    -19.870000     -7.793000
C         -15.667000    -21.086000     -7.174000
C          -9.771000    -20.573000     -8.100000
C         -14.835000    -21.681000     -3.819000
C         -13.290000    -23.603000     -5.107000
C         -15.751000    -19.958000     -5.017000
C         -11.478000    -21.689000     -2.741000
C          -9.791000    -18.642000     -6.868000
C         -12.326000    -23.876000     -6.132000
C         -10.621000    -21.488000     -8.737000
C         -14.262000    -19.376000     -3.224000
C         -11.199000    -18.710000     -8.761000
C         -12.672000    -17.891000     -3.632000
C         -13.388000    -17.914000     -8.390000
C          -9.143000    -19.637000     -6.125000
C         -10.106000    -19.230000     -8.125000
C         -10.457000    -20.729000     -3.058000
C         -12.798000    -21.226000     -2.571000
C         -15.242000    -18.691000     -7.065000
C         -10.486000    -17.637000     -6.303000
C         -12.814000    -21.901000     -9.059000
C         -15.814000    -21.136000     -5.781000
C         -14.383000    -20.118000     -8.796000
C         -13.097000    -19.836000     -2.576000
C         -14.621000    -17.802000     -5.068000
$end

--------------------------------------------------------------

             Standard Nuclear Orientation (Angstroms)
    I     Atom           X                Y                Z
 ----------------------------------------------------------------
    1      O       3.2075733914    -7.4613792319    -0.6350114484
    2      C       2.4108170793    -8.4771995682     0.0032693861
    3      H       1.6675806920    -8.8381138409    -0.7168546034
    4      H       1.9919586629    -7.9722651061     0.8823551703
    5      H       2.9501072233    -9.3583525766     0.3727927498
    6      O       3.6545854212    -8.5768542436    -2.5862584198
    7      C       3.8268798193    -7.6263726445    -1.8282845613
    8      C       4.5872524280    -6.3999272981    -2.3081661179
    9      H       4.9904591629    -6.6027433675    -3.3076574739
   10      H       5.4377424391    -6.3412070253    -1.6182323017
   11      C       3.7667814036    -5.0906867313    -2.0799174892
   12      H       2.8508243650    -5.2659988952    -2.6570399619
   13      H       3.3400719838    -4.9033432594    -1.0871509030
   14      C       4.6421490111    -3.9202819663    -2.5801116892
   15      H       5.5451212685    -4.0118439445    -1.9642647062
   16      H       4.9981648458    -4.1338886627    -3.5956523849
   17      C       4.0420008415    -2.4696711057    -2.4517243628
   18      C       2.8369563463    -2.4690175775    -3.2738091136
   19      C       3.0529434784    -2.2750367168    -4.6210173322
   20      H       4.0260278104    -1.8741826001    -4.8900746867
   21      C       1.9934795202    -2.3549081818    -5.5261685186
   22      H       2.0183396296    -2.0620462449    -6.5709052610
   23      C       0.7626829803    -2.8494169873    -5.1066212404
   24      H      -0.0542542262    -2.8977980983    -5.8207275832
   25      C       0.5214625875    -3.0861586111    -3.7548523528
   26      H      -0.5004665613    -3.3695642058    -3.5222645550
   27      C       1.5316422427    -2.7787856436    -2.8322620194
   28      H       1.3452692770    -2.9893100790    -1.7835086739
   29      C       4.6558913959     3.0096403213    -2.8108826474
   30      C       2.7733432932     2.6899686782    -1.2659843720
   31      C       4.8146867487     4.0034144354     2.5540021646
   32      C       8.6730628016     0.2147708612    -1.1048648871
   33      C       5.3159017538     0.7028751779     3.5610280472
   34      C       3.4981642282     2.3130014307    -2.4372624374
   35      C       8.4522370994     0.1902586293     1.7580233677
   36      C       5.0090928494     4.8170912816     0.2196829366
   37      C       2.8723307354    -0.7466144151     0.7290870878
   38      C       8.0971400329    -0.8543806176    -0.3907464937
   39      C       4.0057308323    -1.6691884487    -1.1727368717
   40      C       3.9852730791    -1.5054894273     1.1678581618
   41      C       6.8127000165    -1.4928860620     1.2911142739
   42      C       7.6067759135     0.6806343577     2.7381641883
   43      C       2.6651148403     0.4416141810    -1.3908148855
   44      C       6.6154359035     2.8113203077     3.3328173367
   45      C       4.8645164626    -1.2096607064    -2.3046500730
   46      C       6.3506336787    -1.1025241195    -2.0709507543
   47      C       5.3842215280     2.1243237455     3.6421907118
   48      C       8.1702437301     3.6165529917    -0.2887488917
   49      C       7.0055673323     4.4046313228     1.5434927498
   50      C       6.4190593483     4.8901151258     0.3382198090
   51      C       4.3362933592     4.5618829047    -0.9553266507
   52      C       6.8590535451     0.0105208504    -2.7588447390
   53      C       2.8746956176    -0.7638063392    -0.7302308506
   54      C       3.1646014527     3.8368953766    -0.5362274255
   55      C       8.0085319613    -0.9099141415     1.0067400491
   56      C       2.2064663034     1.5322823753    -0.6388186024
   57      C       4.7151051727    -1.0858659926     2.3109934504
   58      C       7.9892373909     2.0743765416    -2.1913254347
   59      C       4.2634855546     4.4548118675     1.3308253164
   60      C       4.7212444406    -1.9941191962     0.1190592754
   61      C       6.4632025392     4.0349108720    -1.9305942122
   62      C       6.0946077794    -1.0349394516     2.3969471913
   63      C       2.4762867857     0.3845538907     1.4494067765
   64      C       8.5424292972     2.4728851863     1.8136504173
   65      C       8.9408200369     1.3228610277     1.0700724099
   66      C       3.0289302773     0.7820129884     2.6522240680
   67      C       8.0141153216     0.6790288555    -2.2775804253
   68      C       6.9013824239    -1.5154109924    -0.8803734784
   69      C       8.6112405306     2.4542008594    -1.0020821535
   70      C       4.5820460679     0.1099688829    -2.9381713617
   71      C       2.5201480680     2.6970483097     1.4910210790
   72      C       6.1171586447    -1.9376022384     0.1660206233
   73      C       4.1682285509     0.0170247072     3.1194203580
   74      C       6.9311662317     2.9071405892    -2.6897082824
   75      C       4.2799802937     2.8999376989     3.1817840526
   76      C       5.0725543941     4.1188614065    -2.0702224487
   77      C       6.1938616652     3.9803805874     2.6755052159
   78      C       2.1103967377     1.5469298153     0.7336088423
   79      C       3.0947896330     2.2599331612     2.7201615993
   80      C       3.4435877398     0.9161143997    -2.4528518374
   81      C       5.7371683587     0.7884030019    -3.2831070653
   82      C       8.1062049980     3.6610837676     1.1722788462
   83      C       3.1956254216     3.7541856995     0.8151328606
   84      C       6.4812722683     0.0565692775     3.1493701225
   85      C       9.0899027610     1.3049828098    -0.3515705519
   86      C       7.7459585520     2.0673183541     2.8613254130
   87      C       5.8064057029     2.2299971412    -3.1704592613
   88      C       7.1906436864     4.3996093002    -0.7657442503
   89      O     -11.9147655306     3.8215238124    -1.2786397749
   90      C     -12.7810823432     4.8882242396    -1.1560862002
   91      H     -13.8407337997     4.6704747993    -1.3384264647
   92      H     -12.4576479001     5.6447984834    -1.8809803818
   93      H     -12.7604305964     5.2128757399    -0.1085519961
   94      O     -12.0035486815     3.6276006436    -3.5157218826
   95      C     -11.6266305684     3.2292013818    -2.4373676902
   96      C     -10.8261390129     1.9217482605    -2.2568417773
   97      H     -10.9256219374     1.2885300950    -3.1464416326
   98      H     -11.2214326027     1.3943043027    -1.3798766417
   99      C      -9.3129544718     2.1249426064    -2.1335429426
  100      H      -8.9800691151     2.8596561775    -2.8762638239
  101      H      -9.2273492822     2.6224338679    -1.1592990325
  102      C      -8.4748443547     0.8188662024    -2.2919786034
  103      H      -8.9579748311     0.1682838419    -1.5529105856
  104      H      -8.6683832957     0.3514909450    -3.2650685515
  105      C      -7.0241185027     1.0208932541    -2.0605707977
  106      C      -6.4589506834     1.8490145707    -3.2062083587
  107      C      -6.1598731428     1.2576007490    -4.4579117246
  108      H      -6.4361844644     0.2265673838    -4.6543761062
  109      C      -5.4640067762     1.9597255092    -5.4776375804
  110      H      -5.1885048572     1.4596848559    -6.4012538631
  111      C      -5.0606612231     3.2329686535    -5.2630699684
  112      H      -4.4836414775     3.7640952064    -6.0148310994
  113      C      -5.1693252180     3.7892900886    -3.9681322877
  114      H      -4.8199206645     4.7855146772    -3.7140161192
  115      C      -5.8982014880     3.1649274227    -2.9897997039
  116      H      -6.1223376329     3.6662824279    -2.0527361269
  117      C      -2.1622862893    -1.3595236277    -1.4752537915
  118      C      -1.8280250761     0.8027381421    -0.6404062123
  119      C      -1.3572407563    -0.2594029299     3.7886502863
  120      C      -6.0134778150    -3.5020601819     0.9347835413
  121      C      -4.6893282873     0.6270428288     4.5079885948
  122      C      -2.4155699901    -0.0154584530    -1.5660126653
  123      C      -6.1036337049    -2.5324268718     3.5316247300
  124      C      -0.4741944812    -1.3604504370     1.7423507815
  125      C      -5.1479387127     2.3817822158     0.8854408503
  126      C      -6.9694592218    -2.5075612595     1.2432919580
  127      C      -6.3191553742     1.1254789865    -0.7419738873
  128      C      -6.2242510553     1.8231157174     1.5989599354
  129      C      -7.2996848598    -0.6521547629     2.5007671109
  130      C      -5.4793875538    -1.6455470633     4.4085625546
  131      C      -3.8976397615     1.6112385835    -1.0443011125
  132      C      -3.0969495789    -1.1916782338     4.7991753824
  133      C      -6.1716481616    -0.1270636108    -1.5950481303
  134      C      -6.5772670361    -1.3775234035    -0.9200817346
  135      C      -3.3992327975     0.1391342074     4.7226436769
  136      C      -2.7003836350    -4.0146974911     1.9619149564
  137      C      -1.7310626078    -2.6356154883     3.4177822496
  138      C      -0.9823804106    -2.5781318219     2.2010174425
  139      C      -0.6518768740    -1.0634537818     0.3937103720
  140      C      -5.6115570313    -2.3770404948    -1.1781801090
  141      C      -5.1514945419     1.9438106238    -0.4671511949
  142      C      -0.9508540059     0.3012874260     0.3518760525
  143      C      -6.9812629710    -2.0315851293     2.5600407552
  144      C      -2.6975013941     1.7678115752    -0.2877049207
  145      C      -6.1280684708     1.4089328392     2.9273230084
  146      C      -4.0451429439    -3.9860441028    -0.1394042447
  147      C      -0.7351917585    -0.2126190604     2.5148982249
  148      C      -6.9350031827     1.0088254887     0.6812732586
  149      C      -1.7634765447    -3.0774013148    -0.0786364353
  150      C      -6.6006357788     0.1965614531     3.3734550087
  151      C      -3.9649235259     2.5758674932     1.5598079408
  152      C      -3.9939059086    -3.3194610675     3.8671300212
  153      C      -5.1824771184    -3.5862818547     3.1874079112
  154      C      -3.8885284617     2.2558997501     2.9079942920
  155      C      -5.3623444010    -3.4582204839    -0.3130952021
  156      C      -7.1384313874    -1.4364772242     0.3926825314
  157      C      -3.9004737719    -4.2909723691     1.2401103740
  158      C      -4.7853735842    -0.4534541280    -2.0652598127
  159      C      -1.8841114924     1.7196425798     1.9375686840
  160      C      -7.3525692955    -0.2412509630     1.1542789736
  161      C      -4.9691843316     1.6911284317     3.5998831911
  162      C      -2.9561252511    -3.3255188226    -0.7465449360
  163      C      -2.3184749240     0.7906182683     4.0633107281
  164      C      -1.2934570519    -1.8829212337    -0.5136594372
  165      C      -1.8244158353    -1.5077682462     4.2538443128
  166      C      -2.7064799342     2.3041457832     0.9659493391
  167      C      -2.6163708025     1.7698374254     3.1567055837
  168      C      -3.7160385898     0.4843955155    -1.8615671125
  169      C      -4.5087522441    -1.8252743479    -1.9001570618
  170      C      -2.7504884294    -3.4991673867     3.2672395218
  171      C      -0.9480037222     0.7958569843     1.6501710220
  172      C      -5.7258835601    -0.3050059171     4.3253871118
  173      C      -5.1353697657    -4.0337416848     1.8599597586
  174      C      -4.1771322327    -2.1032822242     4.6039380934
  175      C      -3.1832892947    -2.2868864373    -1.6730265956
  176      C      -1.6139240286    -3.4567353094     1.2999083646
 ----------------------------------------------------------------

    9   -5804.2597921886      8.67E-06 Convergence criterion met
 Total energy in the final basis set = -5804.2597921886

                    Orbital Energies (a.u.)
 --------------------------------------------------------------

 Alpha MOs
 -- Occupied --
-19.196 -19.194 -19.133 -19.129 -10.318 -10.315 -10.250 -10.246
-10.244 -10.241 -10.241 -10.239 -10.238 -10.235 -10.232 -10.232
-10.231 -10.230 -10.230 -10.229 -10.228 -10.228 -10.228 -10.227
-10.226 -10.226 -10.225 -10.225 -10.224 -10.224 -10.224 -10.224
-10.222 -10.222 -10.222 -10.222 -10.222 -10.221 -10.221 -10.221
-10.221 -10.221 -10.221 -10.220 -10.220 -10.220 -10.220 -10.219
-10.219 -10.219 -10.219 -10.219 -10.218 -10.218 -10.218 -10.218
-10.218 -10.218 -10.218 -10.218 -10.217 -10.217 -10.217 -10.217
-10.217 -10.217 -10.217 -10.217 -10.216 -10.216 -10.216 -10.216
-10.216 -10.216 -10.216 -10.216 -10.216 -10.216 -10.216 -10.216
-10.216 -10.216 -10.215 -10.215 -10.215 -10.215 -10.215 -10.215
-10.215 -10.214 -10.214 -10.214 -10.214 -10.214 -10.214 -10.213
-10.213 -10.213 -10.213 -10.213 -10.212 -10.212 -10.212 -10.212
-10.212 -10.212 -10.212 -10.211 -10.211 -10.211 -10.211 -10.210
-10.210 -10.210 -10.210 -10.210 -10.209 -10.209 -10.209 -10.209
-10.208 -10.208 -10.208 -10.208 -10.208 -10.207 -10.207 -10.206
-10.206 -10.205 -10.205 -10.204 -10.203 -10.203 -10.203 -10.201
-10.200 -10.200 -10.199 -10.199 -10.198 -10.198 -10.197 -10.196
-10.195 -10.193 -10.191 -10.190  -1.115  -1.092  -1.019  -1.004
 -0.988  -0.982  -0.970  -0.967  -0.967  -0.965  -0.963  -0.957
 -0.940  -0.934  -0.931  -0.929  -0.929  -0.927  -0.924  -0.923
 -0.921  -0.918  -0.901  -0.900  -0.893  -0.887  -0.887  -0.884
 -0.877  -0.876  -0.856  -0.853  -0.846  -0.845  -0.842  -0.839
 -0.839  -0.836  -0.826  -0.819  -0.810  -0.807  -0.802  -0.799
 -0.798  -0.797  -0.795  -0.795  -0.793  -0.792  -0.786  -0.783
 -0.774  -0.774  -0.773  -0.771  -0.770  -0.768  -0.767  -0.763
 -0.754  -0.750  -0.748  -0.743  -0.738  -0.734  -0.722  -0.716
 -0.716  -0.715  -0.714  -0.713  -0.713  -0.712  -0.711  -0.711
 -0.709  -0.709  -0.707  -0.706  -0.704  -0.703  -0.677  -0.674
 -0.664  -0.660  -0.659  -0.657  -0.650  -0.646  -0.637  -0.631
 -0.630  -0.627  -0.626  -0.626  -0.622  -0.621  -0.619  -0.618
 -0.617  -0.616  -0.615  -0.614  -0.613  -0.612  -0.610  -0.610
 -0.609  -0.606  -0.605  -0.603  -0.575  -0.570  -0.567  -0.564
 -0.563  -0.562  -0.560  -0.560  -0.559  -0.557  -0.556  -0.554
 -0.541  -0.538  -0.536  -0.533  -0.529  -0.528  -0.527  -0.527
 -0.526  -0.524  -0.521  -0.520  -0.518  -0.517  -0.516  -0.512
 -0.512  -0.507  -0.504  -0.498  -0.496  -0.492  -0.490  -0.488
 -0.486  -0.486  -0.484  -0.484  -0.482  -0.482  -0.479  -0.476
 -0.475  -0.472  -0.472  -0.471  -0.469  -0.469  -0.469  -0.468
 -0.467  -0.465  -0.465  -0.464  -0.463  -0.463  -0.461  -0.459
 -0.458  -0.457  -0.456  -0.454  -0.450  -0.449  -0.446  -0.444
 -0.444  -0.442  -0.442  -0.442  -0.440  -0.438  -0.435  -0.433
 -0.431  -0.429  -0.429  -0.428  -0.427  -0.426  -0.425  -0.424
 -0.424  -0.423  -0.423  -0.422  -0.421  -0.421  -0.420  -0.420
 -0.419  -0.419  -0.418  -0.417  -0.417  -0.416  -0.415  -0.414
 -0.413  -0.412  -0.410  -0.407  -0.406  -0.404  -0.404  -0.399
 -0.398  -0.394  -0.393  -0.392  -0.391  -0.390  -0.388  -0.387
 -0.383  -0.382  -0.376  -0.374  -0.370  -0.369  -0.367  -0.366
 -0.365  -0.365  -0.363  -0.363  -0.362  -0.361  -0.359  -0.359
 -0.358  -0.357  -0.357  -0.356  -0.354  -0.354  -0.352  -0.351
 -0.350  -0.349  -0.348  -0.347  -0.347  -0.346  -0.345  -0.345
 -0.343  -0.342  -0.341  -0.339  -0.338  -0.337  -0.336  -0.335
 -0.335  -0.334  -0.331  -0.331  -0.330  -0.328  -0.326  -0.325
 -0.317  -0.310  -0.300  -0.298  -0.290  -0.289  -0.274  -0.271
 -0.271  -0.269  -0.269  -0.268  -0.267  -0.266  -0.265  -0.265
 -0.263  -0.261  -0.260  -0.260  -0.260  -0.257  -0.256  -0.254
 -0.251  -0.248  -0.246  -0.245  -0.225  -0.224  -0.214  -0.212
 -0.211  -0.210  -0.208  -0.204  -0.202  -0.198

          Ground-State Mulliken Net Atomic Charges

     Atom                 Charge (a.u.)
  ----------------------------------------
      1 O                    -0.461085
      2 C                    -0.083327
      3 H                     0.135917
      4 H                     0.127676
      5 H                     0.127181
      6 O                    -0.475087
      7 C                     0.573604
      8 C                    -0.245513
      9 H                     0.139541
     10 H                     0.123164
     11 C                    -0.190825
     12 H                     0.123874
     13 H                     0.122775
     14 C                    -0.173817
     15 H                     0.102298
     16 H                     0.115083
     17 C                     0.003638
     18 C                     0.106606
     19 C                    -0.107131
     20 H                     0.087296
     21 C                    -0.085770
     22 H                     0.087890
     23 C                    -0.083579
     24 H                     0.085428
     25 C                    -0.093558
     26 H                     0.095257
     27 C                    -0.114146
     28 H                     0.085995
     29 C                    -0.008528
     30 C                    -0.020144
     31 C                    -0.003348
     32 C                    -0.014302
     33 C                     0.002735
     34 C                    -0.000961
     35 C                    -0.013540
     36 C                     0.042066
     37 C                     0.005227
     38 C                     0.002099
     39 C                    -0.107660
     40 C                     0.003057
     41 C                    -0.003264
     42 C                     0.029764
     43 C                     0.031026
     44 C                    -0.012622
     45 C                    -0.092942
     46 C                     0.048478
     47 C                    -0.019161
     48 C                     0.030213
     49 C                     0.013937
     50 C                    -0.045241
     51 C                    -0.028412
     52 C                    -0.015956
     53 C                     0.006708
     54 C                    -0.020682
     55 C                    -0.015298
     56 C                     0.006411
     57 C                    -0.019350
     58 C                     0.012639
     59 C                     0.007456
     60 C                     0.038131
     61 C                     0.006303
     62 C                     0.000404
     63 C                     0.042209
     64 C                    -0.019844
     65 C                     0.016817
     66 C                    -0.021511
     67 C                    -0.003822
     68 C                    -0.018700
     69 C                     0.007997
     70 C                     0.029306
     71 C                    -0.007571
     72 C                     0.031658
     73 C                    -0.030354
     74 C                    -0.029892
     75 C                     0.028925
     76 C                     0.012476
     77 C                    -0.006227
     78 C                    -0.008335
     79 C                    -0.028165
     80 C                     0.002349
     81 C                    -0.001871
     82 C                    -0.005078
     83 C                     0.031999
     84 C                     0.016206
     85 C                    -0.018348
     86 C                     0.007011
     87 C                     0.011517
     88 C                    -0.015274
     89 O                    -0.431488
     90 C                    -0.084559
     91 H                     0.120130
     92 H                     0.127085
     93 H                     0.121196
     94 O                    -0.465687
     95 C                     0.571795
     96 C                    -0.240290
     97 H                     0.125836
     98 H                     0.118741
     99 C                    -0.198216
    100 H                     0.120726
    101 H                     0.112595
    102 C                    -0.187405
    103 H                     0.104372
    104 H                     0.115415
    105 C                     0.045458
    106 C                     0.063439
    107 C                    -0.114364
    108 H                     0.086912
    109 C                    -0.076427
    110 H                     0.093247
    111 C                    -0.082525
    112 H                     0.090581
    113 C                    -0.087003
    114 H                     0.090308
    115 C                    -0.103194
    116 H                     0.095180
    117 C                     0.015077
    118 C                     0.027274
    119 C                    -0.007885
    120 C                    -0.001220
    121 C                    -0.010553
    122 C                    -0.016146
    123 C                     0.004024
    124 C                    -0.014187
    125 C                     0.001854
    126 C                    -0.003198
    127 C                    -0.073746
    128 C                     0.001446
    129 C                    -0.042221
    130 C                     0.014183
    131 C                     0.022141
    132 C                     0.010873
    133 C                    -0.087297
    134 C                     0.031260
    135 C                     0.020430
    136 C                    -0.004547
    137 C                     0.034182
    138 C                    -0.032015
    139 C                     0.007701
    140 C                    -0.002934
    141 C                     0.013046
    142 C                    -0.016633
    143 C                    -0.001594
    144 C                     0.004350
    145 C                     0.027384
    146 C                    -0.026776
    147 C                     0.026180
    148 C                    -0.004198
    149 C                     0.006111
    150 C                     0.010427
    151 C                    -0.012038
    152 C                    -0.011141
    153 C                    -0.018934
    154 C                     0.015892
    155 C                    -0.006754
    156 C                     0.009444
    157 C                    -0.004659
    158 C                     0.036506
    159 C                    -0.020736
    160 C                     0.017228
    161 C                    -0.028364
    162 C                     0.003038
    163 C                    -0.034541
    164 C                     0.014076
    165 C                    -0.030055
    166 C                    -0.020097
    167 C                     0.026478
    168 C                    -0.010177
    169 C                     0.001755
    170 C                     0.025754
    171 C                     0.026009
    172 C                     0.003867
    173 C                     0.019577
    174 C                    -0.019304
    175 C                    -0.029641
    176 C                    -0.015945
  ----------------------------------------
  Sum of atomic charges =     0.000000

                    Cartesian Multipole Moments
 -----------------------------------------------------------------
    Charge (ESU x 10^10)
                 0.0000
    Dipole Moment (Debye)
         X      -2.0429      Y       0.6816      Z       0.5747
       Tot       2.2289
    Quadrupole Moments (Debye-Ang)
        XX    -805.1835     XY      -5.0890     YY    -817.6100
        XZ     -13.0617     YZ      -8.9405     ZZ    -812.3787

 Total job time:  856.49s(wall), 8211.04s(cpu)
        *  Thank you very much for using Q-Chem.  Have a nice day.  *
