 Q-Chem 4.4, Q-Chem, Inc., Pleasanton, CA (2016)
 Q-Chem 4.4.2 for Intel X86 Linux

User input:
--------------------------------------------------------------
$comment
SP
$end

$rem
MEM_STATIC 5000
MEM_TOTAL 20000
JOBTYPE SP
EXCHANGE B3LYP
BASIS 6-31g(d,p)
$end

$molecule
0 1
O           6.076000    -31.179000     12.934000
C           6.910000    -32.002000     13.749000
H           7.304000    -31.432000     14.600000
H           7.759000    -32.402000     13.181000
H           6.264000    -32.770000     14.192000
O           5.159000    -32.884000     11.719000
C           5.322000    -31.703000     11.920000
C           4.609000    -30.600000     11.227000
H           5.403000    -29.888000     10.970000
H           3.948000    -30.113000     11.954000
C           3.841000    -30.963000      9.829000
H           4.608000    -30.906000      9.046000
H           3.418000    -31.975000      9.834000
C           2.747000    -29.916000      9.579000
H           1.848000    -30.211000     10.134000
H           3.029000    -29.012000     10.132000
C           2.408000    -29.781000      8.090000
C           1.560000    -30.945000      7.657000
C           0.137000    -30.989000      7.886000
H          -0.349000    -30.148000      8.372000
C          -0.638000    -32.099000      7.488000
H          -1.697000    -32.151000      7.721000
C           0.039000    -33.167000      6.821000
H          -0.460000    -34.047000      6.425000
C           1.331000    -33.184000      6.645000
H           1.819000    -34.034000      6.176000
C           2.102000    -32.082000      6.988000
H           3.134000    -32.151000      6.654000
C           4.730000    -28.443000      3.259000
C           2.445000    -27.639000      2.978000
C           3.261000    -23.211000      3.305000
C           6.592000    -26.569000      7.549000
C           2.340000    -23.014000      6.778000
C           3.369000    -28.606000      3.505000
C           5.473000    -24.062000      8.042000
C           4.543000    -24.964000      2.181000
C           0.757000    -26.861000      6.599000
C           5.568000    -26.455000      8.447000
C           2.104000    -28.412000      7.588000
C           1.294000    -26.292000      7.828000
C           3.665000    -25.407000      8.965000
C           4.557000    -23.115000      7.558000
C           1.638000    -28.392000      5.046000
C           4.136000    -22.388000      5.226000
C           3.395000    -29.165000      7.196000
C           4.623000    -28.559000      7.696000
C           2.746000    -22.556000      5.513000
C           7.201000    -24.885000      4.476000
C           5.676000    -23.420000      3.659000
C           5.753000    -24.538000      2.799000
C           4.227000    -26.354000      2.082000
C           5.664000    -28.687000      6.715000
C           1.278000    -28.089000      6.401000
C           2.865000    -26.534000      2.260000
C           5.062000    -25.188000      8.746000
C           1.426000    -27.553000      3.948000
C           1.569000    -24.905000      7.887000
C           7.132000    -27.172000      5.475000
C           3.291000    -24.335000      2.444000
C           2.202000    -27.193000      8.351000
C           6.367000    -26.842000      3.196000
C           2.755000    -24.463000      8.492000
C           0.471000    -25.935000      5.536000
C           6.237000    -23.290000      6.000000
C           6.508000    -24.174000      7.085000
C           0.753000    -24.549000      5.637000
C           6.657000    -27.679000      6.683000
C           4.562000    -27.399000      8.542000
C           7.401000    -25.797000      5.533000
C           3.691000    -29.393000      5.797000
C           1.284000    -25.162000      3.476000
C           3.399000    -26.788000      8.931000
C           1.330000    -24.078000      6.837000
C           6.697000    -27.733000      4.253000
C           2.206000    -23.065000      4.288000
C           5.160000    -27.309000      2.579000
C           4.423000    -22.778000      3.915000
C           0.911000    -26.286000      4.255000
C           1.195000    -24.056000      4.375000
C           2.860000    -29.050000      4.727000
C           5.106000    -29.146000      5.538000
C           6.614000    -23.625000      4.683000
C           2.283000    -25.296000      2.502000
C           3.195000    -23.265000      7.828000
C           7.106000    -25.379000      6.840000
C           5.002000    -22.663000      6.288000
C           5.643000    -28.661000      4.317000
C           6.605000    -25.461000      3.314000
O           3.305000    -18.859000     -1.235000
C           3.402000    -19.913000     -2.242000
H           4.198000    -19.639000     -2.946000
H           2.508000    -19.978000     -2.874000
H           3.544000    -20.908000     -1.801000
O           3.255000    -17.123000     -2.689000
C           3.323000    -17.522000     -1.597000
C           3.349000    -16.553000     -0.416000
H           4.129000    -15.820000     -0.656000
H           3.663000    -17.054000      0.508000
C           2.057000    -15.749000     -0.277000
H           2.267000    -15.138000      0.610000
H           1.862000    -15.035000     -1.086000
C           0.851000    -16.681000      0.049000
H           0.339000    -16.991000     -0.871000
H           1.298000    -17.550000      0.549000
C          -0.323000    -16.033000      0.791000
C          -1.169000    -15.129000     -0.055000
C          -2.382000    -15.543000     -0.728000
H          -2.741000    -16.568000     -0.752000
C          -3.147000    -14.548000     -1.441000
H          -4.108000    -14.867000     -1.834000
C          -2.697000    -13.258000     -1.580000
H          -3.342000    -12.526000     -2.056000
C          -1.495000    -12.881000     -0.934000
H          -1.177000    -11.847000     -1.033000
C          -0.802000    -13.752000     -0.116000
H           0.024000    -13.350000      0.463000
C          -1.338000    -13.134000      5.440000
C          -3.374000    -14.428000      5.092000
C          -2.860000    -17.442000      8.560000
C           2.634000    -16.308000      5.439000
C          -1.608000    -19.882000      6.465000
C          -2.277000    -13.707000      4.558000
C           1.795000    -18.715000      6.518000
C          -2.369000    -15.044000      8.356000
C          -2.664000    -17.843000      3.170000
C           2.387000    -17.347000      4.567000
C          -0.895000    -16.722000      2.042000
C          -1.535000    -18.734000      3.147000
C           0.956000    -19.051000      4.247000
C           0.684000    -19.462000      7.030000
C          -2.719000    -15.495000      3.202000
C          -1.079000    -18.877000      8.657000
C          -0.001000    -15.522000      2.157000
C           1.311000    -15.755000      2.912000
C          -2.028000    -19.398000      7.750000
C           1.053000    -15.301000      8.485000
C          -0.720000    -16.463000      9.264000
C          -1.106000    -15.166000      9.005000
C          -2.527000    -14.109000      7.311000
C           1.524000    -14.773000      3.905000
C          -2.359000    -16.644000      2.509000
C          -3.502000    -14.639000      6.486000
C           1.916000    -18.545000      5.103000
C          -3.653000    -15.516000      4.287000
C          -1.364000    -19.590000      4.229000
C           1.763000    -14.375000      6.301000
C          -3.280000    -16.133000      8.258000
C          -0.444000    -17.995000      2.622000
C          -0.160000    -13.551000      7.386000
C          -0.097000    -19.843000      4.795000
C          -3.582000    -17.900000      4.203000
C           1.142000    -17.806000      8.467000
C           2.073000    -17.680000      7.397000
C          -3.401000    -18.808000      5.263000
C           2.189000    -15.008000      5.110000
C           1.664000    -17.071000      3.395000
C           1.925000    -15.248000      7.367000
C          -0.545000    -14.367000      3.007000
C          -4.154000    -16.921000      6.165000
C           0.739000    -18.100000      3.213000
C          -2.313000    -19.632000      5.316000
C           0.677000    -13.564000      6.331000
C          -3.175000    -18.536000      7.708000
C          -1.453000    -13.333000      6.816000
C          -1.582000    -17.615000      9.155000
C          -4.115000    -16.753000      4.790000
C          -3.805000    -18.266000      6.485000
C          -1.866000    -14.393000      3.432000
C           0.411000    -13.884000      3.930000
C           0.630000    -16.535000      8.949000
C          -3.943000    -15.860000      7.046000
C          -0.270000    -20.046000      6.110000
C           2.483000    -16.450000      6.862000
C           0.304000    -18.898000      8.244000
C          -0.007000    -13.374000      5.139000
C          -0.009000    -14.424000      8.511000
$end

--------------------------------------------------------------

             Standard Nuclear Orientation (Angstroms)
    I     Atom           X                Y                Z
 ----------------------------------------------------------------
    1      O     -11.8936451363    -4.1704603929    -2.4021306652
    2      C     -13.1229384217    -4.5073432873    -3.0443595448
    3      H     -12.9488814716    -5.2071826883    -3.8715632628
    4      H     -13.6237548169    -3.6180378041    -3.4465332583
    5      H     -13.7201585633    -5.0678909162    -2.3146311994
    6      O     -12.8359577789    -3.2003764062    -0.5595447263
    7      C     -11.8659993029    -3.4622588652    -1.2320989118
    8      C     -10.4526510061    -3.2246506848    -0.8432339679
    9      H     -10.0020872676    -2.7724690738    -1.7353960093
   10      H      -9.9747893285    -4.1992278228    -0.6868158766
   11      C     -10.1771255428    -2.1879675925     0.3918250935
   12      H     -10.1809453008    -1.1858734823    -0.0558576106
   13      H     -10.9594869998    -2.2333354424     1.1592560734
   14      C      -8.8006912940    -2.4945312038     0.9976241616
   15      H      -8.9123696063    -3.3090833169     1.7237672670
   16      H      -8.2107165438    -3.0022192474     0.2251400877
   17      C      -8.1907109574    -1.2708077221     1.6909435896
   18      C      -8.8607352153    -1.0565048662     3.0200902256
   19      C      -8.4890224689    -1.7990097825     4.1989973820
   20      H      -7.6861006287    -2.5277636616     4.1364889648
   21      C      -9.1428267810    -1.5956349341     5.4328156800
   22      H      -8.8994880169    -2.2034212990     6.2987579301
   23      C     -10.1696481219    -0.6018303739     5.4756225730
   24      H     -10.7057726826    -0.3231059978     6.3784515588
   25      C     -10.5669958804     0.0496981875     4.4181944229
   26      H     -11.3830502927     0.7646511937     4.4773754605
   27      C      -9.9052862038    -0.1037308381     3.2077838157
   28      H     -10.2243368835     0.6008484970     2.4441637372
   29      C      -6.5218083611     3.8858749110     0.6214215722
   30      C      -4.9657014194     3.1866072675     2.3638790175
   31      C      -1.2890198021     2.6739106307    -0.2049968929
   32      C      -6.5126186659     0.4284731938    -3.0431805775
   33      C      -1.6813772084    -0.8868806393    -0.5449971829
   34      C      -6.2830939416     3.1651560461     1.7888913764
   35      C      -3.9870055729    -0.7415712142    -3.2235512734
   36      C      -3.0234134137     4.3964325812    -0.2735966721
   37      C      -4.6137652118    -0.8680427644     2.4110279746
   38      C      -6.2974341714    -0.7963925795    -2.4762807005
   39      C      -6.7184510411    -1.0854498524     1.5618149755
   40      C      -4.5830761913    -1.8609477484     1.3453033963
   41      C      -4.8467781518    -2.1139507166    -1.4049849112
   42      C      -2.7012859063    -0.7542424274    -2.6606255417
   43      C      -5.9057664955     1.0709844610     2.7317102193
   44      C      -1.3131971946     1.1432010445    -1.8751880845
   45      C      -7.7305890522    -0.1493957205     0.8641522284
   46      C      -7.7104527932    -0.2161519227    -0.5919927302
   47      C      -1.0797987166     0.3744617303    -0.6931313949
   48      C      -4.4069400183     3.2829570599    -3.3041504826
   49      C      -2.3651225959     3.2852804077    -2.3191046889
   50      C      -3.1908351391     4.2356578472    -1.6784530530
   51      C      -4.1587411262     4.5314227606     0.5834713746
   52      C      -7.9230606487     1.0930120698    -1.1427318159
   53      C      -5.8528970569    -0.3451020259     2.5095888917
   54      C      -3.9180218550     3.8747806005     1.7792988312
   55      C      -5.0532298968    -1.4110189560    -2.6341291732
   56      C      -4.7957878461     1.9007909074     2.9156603741
   57      C      -3.4268686858    -1.9743286781     0.5370930468
   58      C      -6.7165580262     2.6081749691    -2.6382189642
   59      C      -2.1044328554     3.6081638810     0.4790129144
   60      C      -5.8341392300    -1.8925249275     0.7590968158
   61      C      -5.5895047514     4.3737052055    -1.4132210458
   62      C      -3.5685398882    -2.1341067848    -0.8494080268
   63      C      -3.4090482931    -0.1085528135     2.6136931182
   64      C      -3.0220230049     1.3317005062    -3.5696683302
   65      C      -4.1891277452     0.5414030476    -3.7827843833
   66      C      -2.2666466650    -0.2577486840     1.7870250395
   67      C      -7.3255819804     1.3788897114    -2.3935036636
   68      C      -6.8482809664    -1.1525658194    -1.2589453187
   69      C      -5.5690358282     2.4948573614    -3.4361550047
   70      C      -7.6830229903     1.2741202050     1.1251903093
   71      C      -2.4547844743     1.9996370090     2.2302687624
   72      C      -6.0067980827    -2.0208383016    -0.6145693003
   73      C      -2.3309984192    -1.1973939314     0.7345538234
   74      C      -6.7753845952     3.6322270809    -1.6660632631
   75      C      -1.0559220514     1.3555072609     0.3500778706
   76      C      -5.4606240393     4.5395136746     0.0050611241
   77      C      -1.4322210865     2.5015353015    -1.5686732248
   78      C      -3.5506308926     1.2754182201     2.7631606589
   79      C      -1.6458603968     1.0103183454     1.5928925637
   80      C      -6.8271163966     1.9027679025     2.0336703450
   81      C      -7.8598578832     2.0172966289    -0.1184869895
   82      C      -3.1191910179     2.7230659994    -3.3610935440
   83      C      -2.6607589237     3.2872171197     1.7161238562
   84      C      -2.4564645723    -1.4989103092    -1.5047811489
   85      C      -5.4208917476     1.1338847949    -3.7456788401
   86      C      -2.1167720601     0.5271245788    -2.8385894671
   87      C      -7.2880258062     3.2845201779    -0.4041223380
   88      C      -4.4414208140     4.1928679636    -2.2050102631
   89      O       3.8000173138     6.3488281004    -0.5924537606
   90      C       3.0629833572     7.4342502322     0.0502076918
   91      H       3.2270958788     8.3492286184    -0.5330500841
   92      H       3.4580969540     7.6847762167     1.0421789498
   93      H       1.9997867270     7.1997834246     0.1891617910
   94      O       5.7623196656     7.4613458760    -0.7973578338
   95      C       5.1016449152     6.5309536563    -1.0300984443
   96      C       5.6769126772     5.3421555880    -1.7983589176
   97      H       6.1469145361     5.7709681160    -2.6919511448
   98      H       4.8846335457     4.6709496102    -2.1521234057
   99      C       6.7995498026     4.6321022702    -1.0430370190
  100      H       7.0625353357     3.8248972742    -1.7383417751
  101      H       7.7173558567     5.2175831409    -0.9120935303
  102      C       6.2673749956     3.9868284947     0.2721617224
  103      H       6.3861717406     4.6749219847     1.1189548981
  104      H       5.2033102985     3.7985339188     0.0790776137
  105      C       7.0571679812     2.7858326885     0.8037443718
  106      C       8.3719229310     3.1371356328     1.4335488362
  107      C       8.5651148471     3.3458828982     2.8529837459
  108      H       7.7571223730     3.3528462037     3.5790565206
  109      C       9.9024082767     3.5949193927     3.3359393418
  110      H      10.0283090784     3.6304870089     4.4141855719
  111      C      10.9625457803     3.7408804108     2.4752856050
  112      H      11.9612494440     3.8484675027     2.8869177344
  113      C      10.7461284005     3.5571272777     1.0883294760
  114      H      11.6068389631     3.6465957967     0.4316303733
  115      C       9.5189290834     3.1698873486     0.5862925518
  116      H       9.4661902911     2.9027496989    -0.4648863559
  117      C       8.8575020966    -2.2081842655    -0.8892466904
  118      C       8.4397214452    -2.5052778929     1.4936151822
  119      C       4.6540360451    -5.1421603007     1.1921965056
  120      C       4.6598403629    -0.3342877217    -3.0616206712
  121      C       2.5493063259    -2.4583775109     1.7190283063
  122      C       8.8683317972    -1.6853201127     0.4201309462
  123      C       2.4749206078    -1.3592060774    -1.7060842356
  124      C       6.7250199225    -5.0512566624    -0.1253251481
  125      C       5.5832029782    -0.0704515670     2.8249047865
  126      C       4.0159131828     0.4954778401    -2.1684460528
  127      C       6.3037345130     1.5018177070     1.1917515060
  128      C       4.4059547138     0.4817341834     2.2099020051
  129      C       3.0184860440     0.4493180421    -0.1542997384
  130      C       2.0328213043    -2.1611879276    -0.6034295672
  131      C       7.7293442430    -0.3966080020     1.9277689821
  132      C       2.7365406599    -4.3900410716     0.1931353899
  133      C       7.0714902566     1.5927274137    -0.0946184033
  134      C       6.2363679335     1.4221012889    -1.3670630705
  135      C       2.8042774374    -3.8541036504     1.4980774611
  136      C       5.3297435529    -3.8473297659    -3.0230031634
  137      C       4.6612033799    -5.0957436535    -1.2637047799
  138      C       6.0337630272    -5.1560755261    -1.3672715683
  139      C       7.8911586052    -4.2610223082    -0.0424744502
  140      C       6.8091571559     0.4750618531    -2.2449986113
  141      C       6.7399699005     0.5108938450     2.2850207255
  142      C       7.9386160653    -3.8091596319     1.2635569090
  143      C       2.9463295358    -0.0338603903    -1.4472436818
  144      C       7.7448859270    -1.7433738855     2.4135694670
  145      C       3.2980699642    -0.3468606899     2.0730702933
  146      C       6.4884341583    -1.6821283453    -3.3404474722
  147      C       6.0595683546    -5.1772473810     1.1263723192
  148      C       4.8506512083     1.2890442119     1.1316986172
  149      C       7.5989860958    -3.5016818703    -2.3354453013
  150      C       2.5072393420    -0.3585375304     0.9051214167
  151      C       5.5738229645    -1.3591834598     3.3270443325
  152      C       3.0260276814    -3.5027383784    -2.0970334238
  153      C       3.1032171206    -2.1832246738    -2.6266204080
  154      C       4.4208782256    -2.1576834499     3.2089714950
  155      C       6.0722386043    -0.3529585579    -3.0940028794
  156      C       4.8009476522     1.2664676341    -1.2956433148
  157      C       5.3720861370    -2.4974279468    -3.4578470255
  158      C       8.0874524414     0.4708390299    -0.3429091468
  159      C       6.1586119266    -3.4922972004     2.8341785903
  160      C       4.2158725790     1.2052891665    -0.0301258894
  161      C       3.2989517161    -1.6986592974     2.5796013856
  162      C       7.5769528122    -2.2151022962    -2.7329255320
  163      C       3.9774660110    -4.3499770305     2.1600103593
  164      C       8.3675618912    -3.4920350624    -1.1298453735
  165      C       3.9250454417    -5.1857226664    -0.0259631804
  166      C       6.6451715046    -2.2344197533     3.1525715949
  167      C       4.7392156303    -3.4963216777     2.9702813363
  168      C       8.3924845916    -0.4152852908     0.6808491624
  169      C       7.9788032294    -0.0726838998    -1.6436520782
  170      C       4.2297223508    -4.2881808806    -2.3070529909
  171      C       6.8321615449    -4.3465091631     1.9606479185
  172      C       2.0481710696    -1.6077930997     0.7348867441
  173      C       4.2217848905    -1.6816009169    -3.3080928952
  174      C       2.3652715677    -3.4860016086    -0.8692067916
  175      C       8.2759246700    -1.4009071674    -1.8535253761
  176      C       6.4713952262    -4.3753250510    -2.4613080184
 ----------------------------------------------------------------

    9   -5804.2950426782      7.99E-06 Convergence criterion met
 Total energy in the final basis set = -5804.2950426782

                    Orbital Energies (a.u.)
 --------------------------------------------------------------

 Alpha MOs
 -- Occupied --
-19.186 -19.185 -19.136 -19.135 -10.314 -10.311 -10.245 -10.245
-10.239 -10.238 -10.237 -10.237 -10.237 -10.236 -10.229 -10.229
-10.229 -10.226 -10.224 -10.224 -10.223 -10.222 -10.222 -10.222
-10.222 -10.222 -10.221 -10.221 -10.221 -10.221 -10.221 -10.220
-10.220 -10.220 -10.220 -10.219 -10.219 -10.219 -10.219 -10.219
-10.219 -10.219 -10.218 -10.218 -10.218 -10.218 -10.218 -10.218
-10.218 -10.218 -10.218 -10.217 -10.217 -10.217 -10.217 -10.217
-10.217 -10.217 -10.217 -10.217 -10.217 -10.217 -10.216 -10.216
-10.216 -10.216 -10.216 -10.216 -10.216 -10.216 -10.216 -10.215
-10.215 -10.215 -10.215 -10.215 -10.215 -10.215 -10.215 -10.215
-10.215 -10.215 -10.215 -10.214 -10.214 -10.214 -10.214 -10.214
-10.214 -10.214 -10.214 -10.214 -10.213 -10.213 -10.213 -10.213
-10.213 -10.213 -10.213 -10.212 -10.212 -10.212 -10.212 -10.212
-10.212 -10.211 -10.211 -10.211 -10.211 -10.211 -10.211 -10.211
-10.210 -10.210 -10.210 -10.210 -10.210 -10.210 -10.210 -10.209
-10.209 -10.209 -10.209 -10.208 -10.208 -10.208 -10.207 -10.207
-10.206 -10.206 -10.206 -10.206 -10.205 -10.205 -10.204 -10.202
-10.201 -10.200 -10.200 -10.200 -10.200 -10.198 -10.198 -10.198
-10.198 -10.197 -10.189 -10.184  -1.098  -1.093  -1.020  -1.013
 -0.984  -0.982  -0.968  -0.965  -0.962  -0.961  -0.960  -0.958
 -0.937  -0.934  -0.926  -0.926  -0.923  -0.923  -0.922  -0.920
 -0.919  -0.918  -0.898  -0.895  -0.890  -0.888  -0.884  -0.883
 -0.873  -0.872  -0.857  -0.850  -0.843  -0.842  -0.839  -0.839
 -0.836  -0.836  -0.821  -0.820  -0.805  -0.800  -0.799  -0.797
 -0.796  -0.795  -0.794  -0.792  -0.791  -0.790  -0.785  -0.782
 -0.771  -0.771  -0.769  -0.769  -0.767  -0.766  -0.765  -0.761
 -0.753  -0.748  -0.745  -0.737  -0.735  -0.730  -0.720  -0.716
 -0.715  -0.714  -0.713  -0.712  -0.710  -0.709  -0.708  -0.708
 -0.707  -0.707  -0.704  -0.703  -0.702  -0.700  -0.674  -0.672
 -0.660  -0.659  -0.658  -0.655  -0.649  -0.647  -0.633  -0.631
 -0.630  -0.627  -0.627  -0.624  -0.620  -0.619  -0.617  -0.616
 -0.615  -0.614  -0.614  -0.614  -0.613  -0.610  -0.610  -0.607
 -0.606  -0.605  -0.602  -0.601  -0.567  -0.566  -0.562  -0.561
 -0.560  -0.558  -0.557  -0.556  -0.556  -0.553  -0.552  -0.552
 -0.538  -0.536  -0.534  -0.534  -0.531  -0.529  -0.527  -0.525
 -0.523  -0.521  -0.521  -0.520  -0.514  -0.513  -0.512  -0.511
 -0.507  -0.507  -0.503  -0.500  -0.492  -0.492  -0.487  -0.485
 -0.485  -0.484  -0.483  -0.480  -0.480  -0.475  -0.474  -0.474
 -0.472  -0.470  -0.469  -0.468  -0.467  -0.467  -0.466  -0.466
 -0.465  -0.464  -0.463  -0.462  -0.461  -0.460  -0.459  -0.456
 -0.456  -0.454  -0.453  -0.453  -0.451  -0.447  -0.447  -0.445
 -0.444  -0.441  -0.441  -0.438  -0.438  -0.438  -0.433  -0.432
 -0.431  -0.430  -0.429  -0.428  -0.427  -0.426  -0.426  -0.424
 -0.423  -0.422  -0.421  -0.420  -0.420  -0.419  -0.419  -0.419
 -0.416  -0.416  -0.415  -0.414  -0.414  -0.414  -0.413  -0.411
 -0.409  -0.409  -0.409  -0.408  -0.402  -0.400  -0.399  -0.399
 -0.397  -0.394  -0.391  -0.391  -0.390  -0.389  -0.385  -0.385
 -0.376  -0.376  -0.373  -0.370  -0.369  -0.368  -0.367  -0.365
 -0.364  -0.363  -0.362  -0.362  -0.361  -0.359  -0.359  -0.357
 -0.356  -0.355  -0.354  -0.353  -0.353  -0.352  -0.352  -0.349
 -0.348  -0.348  -0.347  -0.346  -0.346  -0.344  -0.343  -0.343
 -0.342  -0.341  -0.341  -0.339  -0.338  -0.336  -0.334  -0.334
 -0.332  -0.332  -0.330  -0.329  -0.328  -0.327  -0.325  -0.324
 -0.317  -0.307  -0.298  -0.298  -0.286  -0.284  -0.272  -0.270
 -0.270  -0.269  -0.268  -0.266  -0.266  -0.266  -0.264  -0.264
 -0.263  -0.261  -0.260  -0.259  -0.257  -0.257  -0.255  -0.253
 -0.250  -0.248  -0.247  -0.246  -0.221  -0.219  -0.214  -0.212
 -0.209  -0.208  -0.207  -0.204  -0.203  -0.199

          Ground-State Mulliken Net Atomic Charges

     Atom                 Charge (a.u.)
  ----------------------------------------
      1 O                    -0.472268
      2 C                    -0.078765
      3 H                     0.122384
      4 H                     0.124595
      5 H                     0.127832
      6 O                    -0.465900
      7 C                     0.590966
      8 C                    -0.277692
      9 H                     0.137352
     10 H                     0.138711
     11 C                    -0.172982
     12 H                     0.108560
     13 H                     0.135576
     14 C                    -0.204346
     15 H                     0.114144
     16 H                     0.113066
     17 C                     0.022569
     18 C                     0.093204
     19 C                    -0.118640
     20 H                     0.088944
     21 C                    -0.092085
     22 H                     0.097089
     23 C                    -0.079161
     24 H                     0.082807
     25 C                    -0.059960
     26 H                     0.091274
     27 C                    -0.125541
     28 H                     0.088391
     29 C                    -0.016631
     30 C                    -0.001720
     31 C                    -0.000954
     32 C                    -0.027211
     33 C                     0.021559
     34 C                     0.018876
     35 C                     0.017504
     36 C                    -0.016095
     37 C                    -0.020124
     38 C                     0.010314
     39 C                    -0.129289
     40 C                    -0.019661
     41 C                    -0.029418
     42 C                     0.008090
     43 C                    -0.003662
     44 C                    -0.015455
     45 C                    -0.063327
     46 C                     0.014761
     47 C                    -0.000389
     48 C                    -0.019590
     49 C                    -0.006031
     50 C                    -0.003361
     51 C                    -0.008966
     52 C                    -0.015284
     53 C                     0.083307
     54 C                     0.010412
     55 C                    -0.014487
     56 C                    -0.012636
     57 C                     0.012222
     58 C                     0.010954
     59 C                    -0.001330
     60 C                     0.082130
     61 C                     0.005445
     62 C                     0.001685
     63 C                    -0.004917
     64 C                    -0.004726
     65 C                     0.001472
     66 C                    -0.001262
     67 C                     0.006866
     68 C                     0.035099
     69 C                     0.024496
     70 C                     0.030673
     71 C                     0.012815
     72 C                    -0.031813
     73 C                    -0.003039
     74 C                    -0.034067
     75 C                    -0.015997
     76 C                     0.001659
     77 C                     0.028426
     78 C                    -0.002240
     79 C                    -0.016411
     80 C                    -0.014622
     81 C                     0.008674
     82 C                    -0.004698
     83 C                    -0.001475
     84 C                    -0.025662
     85 C                    -0.022486
     86 C                     0.006543
     87 C                     0.003227
     88 C                     0.021080
     89 O                    -0.490285
     90 C                    -0.088305
     91 H                     0.128236
     92 H                     0.124162
     93 H                     0.129858
     94 O                    -0.426560
     95 C                     0.590220
     96 C                    -0.264742
     97 H                     0.130892
     98 H                     0.121620
     99 C                    -0.180849
    100 H                     0.107580
    101 H                     0.125489
    102 C                    -0.190635
    103 H                     0.118109
    104 H                     0.120980
    105 C                     0.001164
    106 C                     0.069401
    107 C                    -0.110278
    108 H                     0.096609
    109 C                    -0.089778
    110 H                     0.090935
    111 C                    -0.073325
    112 H                     0.093848
    113 C                    -0.099678
    114 H                     0.089727
    115 C                    -0.090663
    116 H                     0.096340
    117 C                    -0.026353
    118 C                    -0.010044
    119 C                     0.012202
    120 C                    -0.010953
    121 C                     0.029255
    122 C                    -0.016490
    123 C                     0.008110
    124 C                    -0.011079
    125 C                     0.012960
    126 C                    -0.019692
    127 C                    -0.104393
    128 C                     0.000625
    129 C                    -0.012912
    130 C                    -0.016402
    131 C                     0.031717
    132 C                    -0.031519
    133 C                    -0.056809
    134 C                     0.003198
    135 C                    -0.009091
    136 C                     0.013375
    137 C                     0.021149
    138 C                    -0.025673
    139 C                     0.031066
    140 C                    -0.009404
    141 C                    -0.015931
    142 C                    -0.005479
    143 C                     0.000688
    144 C                    -0.012069
    145 C                    -0.032426
    146 C                    -0.014148
    147 C                    -0.004897
    148 C                     0.041632
    149 C                     0.008650
    150 C                     0.005283
    151 C                     0.017723
    152 C                    -0.020617
    153 C                    -0.004649
    154 C                    -0.016094
    155 C                     0.014993
    156 C                    -0.003528
    157 C                    -0.003922
    158 C                     0.001170
    159 C                     0.015341
    160 C                     0.036001
    161 C                     0.007848
    162 C                     0.028526
    163 C                    -0.010630
    164 C                    -0.023341
    165 C                     0.001247
    166 C                    -0.018534
    167 C                     0.009847
    168 C                     0.047112
    169 C                     0.001159
    170 C                     0.004508
    171 C                    -0.008586
    172 C                    -0.009761
    173 C                    -0.001874
    174 C                     0.025235
    175 C                     0.026213
    176 C                    -0.018991
  ----------------------------------------
  Sum of atomic charges =     0.000000

                    Cartesian Multipole Moments
 -----------------------------------------------------------------
    Charge (ESU x 10^10)
                 0.0000
    Dipole Moment (Debye)
         X      -0.6566      Y      -0.1871      Z       0.6079
       Tot       0.9142
    Quadrupole Moments (Debye-Ang)
        XX    -786.3515     XY      16.5946     YY    -811.9204
        XZ       8.6889     YZ       8.6502     ZZ    -790.5690

 Total job time:  824.54s(wall), 7862.02s(cpu)
        *  Thank you very much for using Q-Chem.  Have a nice day.  *
