 Q-Chem 4.4, Q-Chem, Inc., Pleasanton, CA (2016)
 Q-Chem 4.4.2 for Intel X86 Linux

User input:
--------------------------------------------------------------
$comment
SP
$end

$rem
MEM_STATIC 5000
MEM_TOTAL 20000
JOBTYPE SP
EXCHANGE B3LYP
BASIS 6-31g(d,p)
$end

$molecule
0 1
O          19.726000      9.814000      9.298000
C          18.419000      9.712000      9.997000
H          18.274000     10.509000     10.737000
H          18.386000      8.775000     10.567000
H          17.596000      9.701000      9.272000
O          19.459000      8.079000      7.780000
C          20.138000      9.014000      8.289000
C          21.573000      9.296000      7.837000
H          22.163000      9.128000      8.746000
H          21.562000     10.358000      7.561000
C          22.066000      8.464000      6.577000
H          22.028000      7.407000      6.867000
H          21.350000      8.671000      5.772000
C          23.494000      8.859000      6.091000
H          23.825000      9.808000      6.530000
H          24.190000      8.134000      6.530000
C          23.732000      8.918000      4.539000
C          23.713000      7.573000      3.845000
C          22.587000      7.152000      3.104000
H          21.732000      7.820000      3.064000
C          22.677000      5.907000      2.381000
H          21.879000      5.560000      1.731000
C          23.936000      5.260000      2.286000
H          23.950000      4.418000      1.601000
C          25.033000      5.735000      3.036000
H          25.880000      5.059000      2.969000
C          24.926000      6.865000      3.820000
H          25.828000      7.319000      4.220000
C          27.054000     10.907000      0.641000
C          24.808000     10.824000     -0.415000
C          24.239000     15.375000     -0.502000
C          26.774000     13.454000      5.029000
C          22.059000     15.304000      2.348000
C          25.773000     10.270000      0.446000
C          24.818000     15.458000      4.698000
C          26.295000     14.068000     -0.904000
C          21.930000     11.328000      2.280000
C          25.491000     13.268000      5.658000
C          23.267000     10.220000      3.868000
C          21.913000     12.041000      3.520000
C          23.298000     13.653000      5.275000
C          23.887000     15.989000      3.794000
C          23.634000      9.999000      1.343000
C          24.110000     16.460000      1.483000
C          24.758000      9.971000      4.022000
C          25.548000     10.919000      4.883000
C          22.851000     15.791000      1.275000
C          27.914000     15.019000      2.078000
C          26.360000     15.831000      0.667000
C          27.054000     14.849000     -0.030000
C          26.466000     12.660000     -0.872000
C          26.815000     11.143000      4.286000
C          22.848000     10.252000      2.449000
C          25.184000     11.977000     -1.158000
C          24.569000     14.293000      5.424000
C          23.559000     10.692000      0.150000
C          21.630000     13.410000      3.508000
C          28.117000     12.909000      3.307000
C          24.898000     14.277000     -1.108000
C          22.718000     11.410000      4.534000
C          28.097000     12.886000      0.848000
C          22.339000     14.214000      4.386000
C          21.817000     12.055000      1.055000
C          25.935000     16.289000      3.018000
C          26.139000     15.596000      4.198000
C          21.669000     13.400000      1.031000
C          27.407000     12.388000      4.371000
C          24.894000     11.961000      5.594000
C          28.053000     14.313000      3.308000
C          25.591000      9.890000      2.814000
C          23.005000     12.936000     -0.718000
C          23.501000     12.280000      5.306000
C          21.487000     14.067000      2.257000
C          28.235000     12.281000      2.088000
C          22.918000     15.221000      0.042000
C          27.382000     12.082000     -0.016000
C          24.988000     16.076000      0.476000
C          22.704000     11.802000      0.010000
C          22.345000     13.966000     -0.096000
C          25.062000      9.767000      1.537000
C          26.796000     10.532000      3.063000
C          26.805000     15.899000      1.971000
C          24.287000     13.051000     -1.294000
C          22.641000     15.379000      3.628000
C          27.149000     14.655000      4.395000
C          24.569000     16.560000      2.732000
C          27.504000     11.076000      1.936000
C          27.920000     14.286000      0.915000
O          15.929000     10.999000      7.096000
C          14.615000     10.521000      7.636000
H          13.962000     11.355000      7.922000
H          14.833000      9.993000      8.572000
H          14.096000      9.918000      6.881000
O          16.233000     12.110000      9.031000
C          16.562000     11.818000      7.897000
C          17.786000     12.368000      7.327000
H          17.398000     13.018000      6.533000
H          18.146000     11.488000      6.780000
C          18.841000     12.912000      8.298000
H          18.442000     13.797000      8.809000
H          19.107000     12.148000      9.039000
C          20.104000     13.322000      7.554000
H          20.650000     12.506000      7.064000
H          19.843000     14.028000      6.756000
C          21.182000     13.926000      8.524000
C          21.998000     12.899000      9.257000
C          21.460000     12.197000     10.360000
H          20.464000     12.343000     10.767000
C          22.225000     11.117000     10.825000
H          21.771000     10.529000     11.617000
C          23.596000     10.940000     10.524000
H          24.191000     10.248000     11.112000
C          24.136000     11.747000      9.554000
H          25.183000     11.621000      9.292000
C          23.357000     12.658000      8.886000
H          23.877000     13.350000      8.231000
C          22.237000     17.464000     12.559000
C          24.282000     17.480000     11.301000
C          23.770000     21.615000      9.484000
C          18.294000     18.405000      9.458000
C          22.643000     20.466000      6.356000
C          23.172000     16.815000     11.777000
C          19.231000     20.149000      7.443000
C          23.336000     20.792000     11.735000
C          23.520000     16.720000      7.443000
C          18.653000     17.921000      8.172000
C          21.824000     15.266000      8.109000
C          22.534000     16.922000      6.537000
C          20.012000     18.096000      6.386000
C          20.305000     20.869000      6.861000
C          23.707000     15.932000      9.765000
C          21.997000     22.077000      8.067000
C          20.861000     15.213000      9.216000
C          19.549000     15.902000      9.177000
C          22.984000     21.388000      7.339000
C          19.899000     20.917000     11.327000
C          21.611000     22.090000     10.490000
C          22.011000     21.349000     11.626000
C          23.429000     19.501000     12.297000
C          19.414000     16.542000     10.484000
C          23.222000     15.712000      8.406000
C          24.434000     18.843000     11.512000
C          19.049000     18.785000      7.204000
C          24.544000     17.000000     10.037000
C          22.404000     18.209000      5.876000
C          19.131000     18.690000     11.596000
C          24.168000     20.877000     10.641000
C          21.458000     16.228000      6.986000
C          21.069000     19.445000     12.802000
C          21.111000     18.815000      5.873000
C          24.509000     17.675000      7.653000
C          19.816000     21.623000      8.952000
C          18.901000     20.587000      8.709000
C          24.390000     18.935000      7.085000
C          18.687000     17.759000     10.626000
C          19.324000     16.672000      8.054000
C          18.956000     19.891000     11.031000
C          21.419000     15.439000     10.599000
C          25.216000     19.169000      9.224000
C          20.247000     16.836000      7.029000
C          23.310000     19.266000      6.194000
C          20.210000     18.385000     12.423000
C          24.106000     21.113000      8.177000
C          22.321000     18.819000     12.913000
C          22.478000     22.168000      9.390000
C          25.030000     17.767000      8.941000
C          24.836000     19.872000      8.045000
C          22.776000     15.802000     10.809000
C          20.489000     16.237000     11.283000
C          20.280000     21.798000     10.286000
C          24.912000     19.717000     10.457000
C          21.257000     20.159000      6.157000
C          18.422000     19.720000      9.720000
C          20.675000     21.770000      7.816000
C          20.924000     17.173000     12.306000
C          20.924000     20.705000     12.208000
$end

--------------------------------------------------------------

             Standard Nuclear Orientation (Angstroms)
    I     Atom           X                Y                Z
 ----------------------------------------------------------------
    1      O       0.2239974335    -6.5230126560     0.5999995784
    2      C      -0.5611455821    -7.6336017807     0.0021733151
    3      H      -1.6429128148    -7.4990978907     0.1267620701
    4      H      -0.3211695123    -8.5681526901     0.5246521028
    5      H      -0.3048509783    -7.7578660405    -1.0570464307
    6      O       2.3457742986    -7.1782363796    -0.0742279848
    7      C       1.5675149824    -6.3889911212     0.5305458232
    8      C       2.1014232820    -5.1967493699     1.3283895009
    9      H       1.7739591363    -5.4100132710     2.3530312635
   10      H       1.5654193571    -4.3349154511     0.9111568452
   11      C       3.6597787911    -4.9247327926     1.1855326183
   12      H       4.1686136595    -5.8164155823     1.5712551602
   13      H       3.8537617385    -4.8013914952     0.1128315693
   14      C       4.1380779228    -3.6418472589     1.9317495090
   15      H       3.2958302521    -3.0013622661     2.2203337000
   16      H       4.5361468938    -3.9683301222     2.9001048334
   17      C       5.2156695768    -2.7536400057     1.2115321095
   18      C       6.5895000620    -3.3813895160     1.1138471557
   19      C       7.0456220959    -3.9502854194    -0.0954948726
   20      H       6.3702389382    -3.9349550914    -0.9454781497
   21      C       8.4031949166    -4.4351500232    -0.1479958489
   22      H       8.8436862696    -4.8145945977    -1.0654391348
   23      C       9.2736630361    -4.1519597991     0.9358877011
   24      H      10.3104542878    -4.4150707527     0.7508970890
   25      C       8.7664160845    -3.5654731397     2.1149839348
   26      H       9.5171254142    -3.5413666296     2.8990300932
   27      C       7.4405569755    -3.1982739594     2.2163120408
   28      H       7.1268290565    -2.5717707742     3.0462449006
   29      C       7.4723239292     2.2545641380     1.1037759541
   30      C       7.5847121989     1.4525623197    -1.2437126956
   31      C       4.3952802817     4.3537010303    -2.8101893879
   32      C       2.7028390381     1.8508807149     2.8094155898
   33      C       1.8814371757     1.7928684498    -2.8618646499
   34      C       7.6607133025     1.1979832196     0.1379078435
   35      C       0.9972643773     2.3282599961     0.6151874571
   36      C       6.1530531715     4.7555410269    -1.1232548649
   37      C       4.5820273950    -1.0185879079    -2.0666498262
   38      C       2.0288619680     0.7272061190     2.2098855142
   39      C       4.6510847473    -1.7910744544     0.1549425346
   40      C       3.2569660549    -1.1033045012    -1.5343965560
   41      C       1.3854150388    -0.0301589464     0.1809603783
   42      C       0.9758158503     2.6053015443    -0.7591218026
   43      C       6.6129970592    -0.5781119068    -0.9580610316
   44      C       2.2825209825     4.1229622328    -2.0246330558
   45      C       5.1517611402    -1.2181304282     1.4701825478
   46      C       4.1594836592    -0.5214676156     2.3613454545
   47      C       2.5077913901     3.0621372457    -2.9732159938
   48      C       3.9690467200     4.9296508153     1.6367610049
   49      C       3.9174537173     5.2950416989    -0.5833760774
   50      C       5.2560181001     5.3127674793    -0.2096111918
   51      C       7.1349015644     3.8528690220    -0.6396372630
   52      C       4.7814422589     0.6051524027     2.9578090616
   53      C       5.4650144052    -1.3433905322    -0.9971180618
   54      C       7.4155929737     2.8056825126    -1.6478147015
   55      C       1.2231297473     1.0442677870     1.1118270061
   56      C       6.9273257332     0.4147310396    -1.8661267608
   57      C       2.2552679776    -0.2984774497    -2.0850764805
   58      C       4.6273845790     3.0024333669     2.9991758353
   59      C       5.7407148124     4.2293422093    -2.3842060463
   60      C       3.2350077783    -1.5699511133    -0.1719939820
   61      C       6.2974749803     4.1107442702     1.5743758518
   62      C       1.3253346510     0.2455185084    -1.2137135219
   63      C       4.8838263462    -0.0081043317    -3.0308921896
   64      C       1.8955796315     4.2958467839     0.3283391758
   65      C       1.6277551685     3.3797483399     1.3299871668
   66      C       3.9459638962     0.8595628156    -3.4770678795
   67      C       4.0541119909     1.7585827474     3.1775887722
   68      C       2.7825344956    -0.4818888890     2.0128551030
   69      C       3.6572550022     3.9457583381     2.6193079596
   70      C       6.2658893392    -0.2600640419     1.4469197970
   71      C       5.8318429613     2.0762166270    -3.3273793534
   72      C       2.3535964087    -0.8904183721     0.6808379188
   73      C       2.6132505011     0.6587537950    -3.0713096461
   74      C       5.9102451126     3.1921046966     2.5381306772
   75      C       3.7459144479     3.2707426194    -3.4959138910
   76      C       7.2162005199     3.5569941991     0.7063659201
   77      C       3.4792709325     4.8016501672    -1.8257329680
   78      C       6.0201583031     0.7843982219    -2.8776199284
   79      C       4.5213595774     2.1452295732    -3.7289444338
   80      C       7.0567283951    -0.0463318370     0.3268344734
   81      C       6.0154259159     0.7333935431     2.3831356377
   82      C       3.1210617218     4.9844322338     0.4993734549
   83      C       6.5178195477     3.1253709026    -2.6814409438
   84      C       1.1365762807     1.5733497632    -1.6872401170
   85      C       2.4273245947     3.1865935801     2.4559400839
   86      C       1.5056911630     3.8677343521    -0.9700828387
   87      C       6.6150776682     2.0212701778     2.1615040742
   88      C       5.2524424521     4.9588401755     1.1448897046
   89      O      -0.2020496109    -6.7624002639    -3.9201127531
   90      C      -0.6272664607    -8.0655693835    -4.5264302246
   91      H      -1.5761049089    -7.9742405628    -5.0696849031
   92      H      -0.8379749981    -8.7462963733    -3.6929935577
   93      H       0.1390709817    -8.4220205425    -5.2254756421
   94      O      -2.1720223016    -6.7144734204    -2.8302170627
   95      C      -1.1123748702    -6.2140731385    -3.1561125659
   96      C      -0.7419779152    -4.8962091108    -2.6544986703
   97      H      -0.7594813829    -4.2892099577    -3.5681318882
   98      H       0.3285537832    -5.0597850766    -2.4801031829
   99      C      -1.4574556453    -4.3866825242    -1.3974082697
  100      H      -2.5184709027    -4.2243866365    -1.6242422806
  101      H      -1.3626481096    -5.1155974059    -0.5830203852
  102      C      -0.8633619835    -3.0647053399    -0.9323985440
  103      H       0.1797398914    -3.1079758771    -0.5945551791
  104      H      -0.8789442703    -2.3471699515    -1.7620136106
  105      C      -1.6120678928    -2.5002714275     0.3280195691
  106      C      -1.1729158166    -3.1072440940     1.6305569529
  107      C      -1.5996535797    -4.4009727985     2.0087340549
  108      H      -2.2646163380    -5.0332883883     1.4282320954
  109      C      -0.9585680958    -4.9491305905     3.1296187222
  110      H      -1.2279432283    -5.9737244714     3.3678799596
  111      C      -0.2345168920    -4.1817218758     4.0721709589
  112      H       0.0110602941    -4.6093772278     5.0393502317
  113      C       0.0318994292    -2.8750950657     3.7473668291
  114      H       0.6003271674    -2.2678134872     4.4465291786
  115      C      -0.3617702210    -2.3587187126     2.5384972462
  116      H      -0.2360232921    -1.2886737066     2.4062838015
  117      C      -6.4238452970    -1.3179379443     2.6433121526
  118      C      -4.9871886819     0.3954925866     3.5179655614
  119      C      -6.7101211482     3.8365869357     1.0988269964
  120      C      -6.1203402131    -1.3924438149    -2.4509262144
  121      C      -4.1495677275     3.8616456550    -1.3131539820
  122      C      -5.1829016439    -0.8966345115     3.0786422194
  123      C      -5.6667180422     1.2676546032    -3.2862904056
  124      C      -7.7996590508     1.9854994836     2.2473340289
  125      C      -2.0903964831     1.2289682262     0.8804816628
  126      C      -4.8192704782    -0.9392781951    -2.7955875932
  127      C      -2.0514963261    -1.0223376936     0.2769947673
  128      C      -1.9037926959     1.2473893784    -0.4606654908
  129      C      -3.3343892961     0.7525889986    -2.7994957438
  130      C      -5.4472040883     2.6273261632    -2.9490859083
  131      C      -3.0699627557    -0.2899466086     2.5480981182
  132      C      -6.5847027188     3.8406266753    -1.2139885817
  133      C      -3.0447062734    -2.0984896602     0.1718380018
  134      C      -3.8686358221    -2.3195942717    -1.0405311043
  135      C      -5.3379268575     4.2376263394    -0.6974469875
  136      C      -8.6139737787     0.3762037597    -0.7093730579
  137      C      -8.3424492537     2.5193180559    -0.1256115094
  138      C      -8.4907395493     1.6975528267     1.0155672216
  139      C      -7.2777163832     0.8769268611     2.9472030112
  140      C      -5.2240133210    -2.5508511151    -0.5450050121
  141      C      -2.1452029486    -0.0818554218     1.4381326425
  142      C      -6.0081809341     1.3317278581     3.4377637072
  143      C      -4.6349160529     0.3271979273    -3.2454627729
  144      C      -3.7320503105     0.7880957779     3.1090274208
  145      C      -2.3670007201     2.3785907624    -1.2455296543
  146      C      -7.5121683726    -1.7218451813    -0.6323698874
  147      C      -6.8752074477     3.0061209053     2.2498133934
  148      C      -2.0516936125    -0.0338456979    -0.8820619766
  149      C      -8.2709686989    -0.6894768994     1.4020201428
  150      C      -3.1534770130     2.0934159827    -2.4027782817
  151      C      -2.5896482044     2.3402064944     1.5514088052
  152      C      -7.5126784276     1.9194499602    -2.3067113796
  153      C      -6.9146527522     0.8075545865    -2.9195930725
  154      C      -3.0941512519     3.4156776094     0.8350125770
  155      C      -6.3566152209    -2.1665870987    -1.3191730183
  156      C      -3.6975819507    -1.3876435881    -2.0439564859
  157      C      -7.9951217719    -0.7196044782    -1.3770312784
  158      C      -3.9683853041    -2.2734457880     1.3513872384
  159      C      -4.4553362741     3.0442245040     2.6575248337
  160      C      -2.8466032325    -0.2938960912    -1.9490795440
  161      C      -3.0325203589     3.4655647152    -0.6014953101
  162      C      -7.5484839198    -1.7246045515     0.7604217577
  163      C      -5.3894092682     4.2742854238     0.7283014731
  164      C      -7.5558633893    -0.4905937089     2.5939810788
  165      C      -7.3989703566     3.5570228727    -0.0975173114
  166      C      -3.3692622284     2.0953949587     2.6788476219
  167      C      -4.2464302844     3.8703165491     1.5162184679
  168      C      -3.9591338184    -1.3731483283     2.4498848005
  169      C      -5.2425925324    -2.5428765145     0.8285459402
  170      C      -8.3962268952     1.6800105279    -1.2169922123
  171      C      -5.7478729527     2.6903118417     2.9997291030
  172      C      -4.2126488967     2.9794099772    -2.4412173557
  173      C      -7.1502836729    -0.5263826164    -2.5092997530
  174      C      -6.5939555226     3.0174962972    -2.3218264607
  175      C      -6.4399502047    -2.1240540389     1.5376103510
  176      C      -8.7655198021     0.3837401903     0.6502985955
 ----------------------------------------------------------------

   10   -5804.2174912787      3.31E-06 Convergence criterion met
 Total energy in the final basis set = -5804.2174912787

                    Orbital Energies (a.u.)
 --------------------------------------------------------------

 Alpha MOs
 -- Occupied --
-19.205 -19.199 -19.129 -19.126 -10.320 -10.308 -10.256 -10.256
-10.243 -10.242 -10.238 -10.236 -10.235 -10.231 -10.230 -10.229
-10.227 -10.227 -10.227 -10.227 -10.226 -10.225 -10.223 -10.223
-10.222 -10.222 -10.222 -10.222 -10.221 -10.221 -10.221 -10.220
-10.220 -10.220 -10.220 -10.220 -10.220 -10.220 -10.220 -10.220
-10.219 -10.219 -10.219 -10.219 -10.218 -10.218 -10.217 -10.217
-10.217 -10.217 -10.217 -10.217 -10.217 -10.217 -10.216 -10.216
-10.216 -10.216 -10.216 -10.216 -10.216 -10.216 -10.216 -10.216
-10.216 -10.216 -10.215 -10.215 -10.215 -10.215 -10.215 -10.215
-10.215 -10.215 -10.215 -10.214 -10.214 -10.214 -10.214 -10.214
-10.214 -10.214 -10.213 -10.213 -10.213 -10.213 -10.213 -10.213
-10.213 -10.213 -10.213 -10.213 -10.212 -10.212 -10.212 -10.212
-10.212 -10.212 -10.212 -10.212 -10.212 -10.211 -10.211 -10.211
-10.211 -10.211 -10.211 -10.210 -10.210 -10.210 -10.210 -10.209
-10.209 -10.209 -10.209 -10.209 -10.209 -10.209 -10.208 -10.208
-10.208 -10.207 -10.207 -10.207 -10.207 -10.206 -10.206 -10.206
-10.206 -10.206 -10.205 -10.204 -10.204 -10.203 -10.202 -10.202
-10.200 -10.200 -10.200 -10.200 -10.199 -10.198 -10.197 -10.197
-10.196 -10.194 -10.192 -10.191  -1.112  -1.083  -1.011  -0.988
 -0.987  -0.982  -0.969  -0.967  -0.965  -0.963  -0.962  -0.959
 -0.936  -0.934  -0.930  -0.929  -0.927  -0.927  -0.923  -0.922
 -0.921  -0.918  -0.898  -0.894  -0.892  -0.890  -0.889  -0.886
 -0.872  -0.872  -0.855  -0.851  -0.845  -0.843  -0.840  -0.839
 -0.837  -0.835  -0.821  -0.820  -0.808  -0.802  -0.800  -0.796
 -0.796  -0.795  -0.794  -0.793  -0.791  -0.790  -0.786  -0.783
 -0.776  -0.772  -0.771  -0.770  -0.768  -0.765  -0.762  -0.762
 -0.753  -0.749  -0.748  -0.745  -0.733  -0.733  -0.722  -0.718
 -0.716  -0.714  -0.714  -0.712  -0.712  -0.711  -0.710  -0.709
 -0.707  -0.707  -0.706  -0.705  -0.704  -0.703  -0.673  -0.672
 -0.663  -0.661  -0.657  -0.655  -0.648  -0.647  -0.635  -0.631
 -0.628  -0.627  -0.624  -0.624  -0.621  -0.621  -0.620  -0.620
 -0.616  -0.615  -0.613  -0.612  -0.611  -0.610  -0.609  -0.607
 -0.606  -0.606  -0.605  -0.602  -0.566  -0.565  -0.562  -0.562
 -0.561  -0.560  -0.560  -0.559  -0.557  -0.556  -0.553  -0.551
 -0.537  -0.536  -0.532  -0.531  -0.530  -0.530  -0.528  -0.526
 -0.522  -0.521  -0.520  -0.519  -0.517  -0.515  -0.513  -0.512
 -0.508  -0.506  -0.505  -0.497  -0.494  -0.490  -0.489  -0.487
 -0.486  -0.485  -0.482  -0.481  -0.479  -0.479  -0.478  -0.476
 -0.474  -0.472  -0.471  -0.471  -0.470  -0.469  -0.468  -0.467
 -0.467  -0.466  -0.465  -0.462  -0.461  -0.461  -0.459  -0.457
 -0.456  -0.455  -0.453  -0.451  -0.449  -0.447  -0.446  -0.445
 -0.443  -0.443  -0.441  -0.440  -0.438  -0.436  -0.433  -0.432
 -0.431  -0.429  -0.428  -0.428  -0.427  -0.426  -0.425  -0.425
 -0.423  -0.423  -0.422  -0.421  -0.421  -0.420  -0.419  -0.418
 -0.418  -0.417  -0.417  -0.416  -0.415  -0.414  -0.413  -0.413
 -0.411  -0.410  -0.409  -0.406  -0.402  -0.401  -0.398  -0.397
 -0.393  -0.392  -0.392  -0.390  -0.387  -0.385  -0.384  -0.383
 -0.378  -0.375  -0.374  -0.372  -0.372  -0.369  -0.368  -0.366
 -0.366  -0.365  -0.364  -0.362  -0.362  -0.361  -0.359  -0.359
 -0.358  -0.357  -0.356  -0.356  -0.352  -0.351  -0.351  -0.350
 -0.349  -0.348  -0.348  -0.348  -0.345  -0.345  -0.344  -0.343
 -0.341  -0.341  -0.340  -0.339  -0.336  -0.336  -0.335  -0.334
 -0.333  -0.331  -0.330  -0.330  -0.327  -0.325  -0.324  -0.324
 -0.308  -0.308  -0.301  -0.296  -0.288  -0.287  -0.275  -0.274
 -0.270  -0.269  -0.268  -0.267  -0.265  -0.264  -0.264  -0.263
 -0.262  -0.261  -0.260  -0.258  -0.255  -0.255  -0.254  -0.252
 -0.251  -0.247  -0.246  -0.241  -0.221  -0.220  -0.216  -0.214
 -0.211  -0.208  -0.206  -0.204  -0.201  -0.197

          Ground-State Mulliken Net Atomic Charges

     Atom                 Charge (a.u.)
  ----------------------------------------
      1 O                    -0.471240
      2 C                    -0.094926
      3 H                     0.143338
      4 H                     0.129564
      5 H                     0.144062
      6 O                    -0.498436
      7 C                     0.584968
      8 C                    -0.265809
      9 H                     0.138417
     10 H                     0.138676
     11 C                    -0.171705
     12 H                     0.124882
     13 H                     0.114675
     14 C                    -0.195859
     15 H                     0.113175
     16 H                     0.106550
     17 C                     0.002536
     18 C                     0.086547
     19 C                    -0.103291
     20 H                     0.099008
     21 C                    -0.099532
     22 H                     0.092964
     23 C                    -0.081863
     24 H                     0.092910
     25 C                    -0.088090
     26 H                     0.092116
     27 C                    -0.101765
     28 H                     0.097005
     29 C                    -0.001487
     30 C                     0.005281
     31 C                    -0.027359
     32 C                    -0.011875
     33 C                    -0.013735
     34 C                    -0.012065
     35 C                     0.002915
     36 C                     0.014737
     37 C                    -0.008311
     38 C                    -0.035788
     39 C                    -0.088329
     40 C                    -0.014653
     41 C                     0.007699
     42 C                     0.040844
     43 C                     0.008924
     44 C                    -0.001032
     45 C                    -0.097788
     46 C                     0.031759
     47 C                     0.039061
     48 C                    -0.014186
     49 C                     0.019381
     50 C                    -0.033456
     51 C                    -0.023985
     52 C                    -0.020276
     53 C                     0.041787
     54 C                    -0.016464
     55 C                     0.002976
     56 C                     0.015596
     57 C                    -0.013897
     58 C                     0.038420
     59 C                     0.022408
     60 C                     0.031986
     61 C                    -0.001033
     62 C                    -0.003486
     63 C                    -0.017371
     64 C                    -0.006003
     65 C                     0.004983
     66 C                     0.015404
     67 C                     0.027626
     68 C                    -0.017550
     69 C                    -0.049471
     70 C                     0.055097
     71 C                     0.029456
     72 C                     0.014783
     73 C                    -0.007191
     74 C                    -0.013723
     75 C                    -0.034820
     76 C                     0.019680
     77 C                     0.012122
     78 C                    -0.009105
     79 C                    -0.006165
     80 C                    -0.020688
     81 C                     0.025537
     82 C                     0.007148
     83 C                    -0.008056
     84 C                    -0.008012
     85 C                    -0.003022
     86 C                    -0.024581
     87 C                    -0.018888
     88 C                     0.026792
     89 O                    -0.460975
     90 C                    -0.098232
     91 H                     0.140658
     92 H                     0.139703
     93 H                     0.132270
     94 O                    -0.512338
     95 C                     0.614096
     96 C                    -0.272251
     97 H                     0.135091
     98 H                     0.130443
     99 C                    -0.175645
    100 H                     0.124692
    101 H                     0.124101
    102 C                    -0.191999
    103 H                     0.112268
    104 H                     0.106937
    105 C                    -0.004264
    106 C                     0.052084
    107 C                    -0.068896
    108 H                     0.098896
    109 C                    -0.097065
    110 H                     0.079312
    111 C                    -0.086083
    112 H                     0.093426
    113 C                    -0.086346
    114 H                     0.090318
    115 C                    -0.101813
    116 H                     0.100661
    117 C                     0.008380
    118 C                     0.002883
    119 C                    -0.008404
    120 C                     0.008388
    121 C                     0.006783
    122 C                     0.002615
    123 C                    -0.006892
    124 C                    -0.011948
    125 C                     0.021774
    126 C                     0.011303
    127 C                    -0.096091
    128 C                     0.010497
    129 C                    -0.041435
    130 C                     0.002713
    131 C                    -0.021785
    132 C                     0.003757
    133 C                    -0.062467
    134 C                    -0.013896
    135 C                     0.005062
    136 C                     0.001586
    137 C                    -0.007045
    138 C                    -0.008775
    139 C                     0.006015
    140 C                     0.009752
    141 C                     0.003790
    142 C                    -0.030203
    143 C                    -0.006214
    144 C                     0.022081
    145 C                    -0.032952
    146 C                     0.008834
    147 C                     0.009910
    148 C                     0.034846
    149 C                    -0.012682
    150 C                     0.004647
    151 C                     0.009105
    152 C                    -0.008750
    153 C                     0.005843
    154 C                    -0.000526
    155 C                    -0.039359
    156 C                     0.027508
    157 C                     0.000333
    158 C                     0.027596
    159 C                    -0.013257
    160 C                     0.016000
    161 C                    -0.006775
    162 C                     0.004649
    163 C                    -0.016534
    164 C                    -0.021609
    165 C                     0.005840
    166 C                    -0.015109
    167 C                    -0.013043
    168 C                     0.018283
    169 C                     0.009423
    170 C                    -0.014666
    171 C                     0.028179
    172 C                     0.014273
    173 C                    -0.000531
    174 C                     0.010059
    175 C                    -0.002673
    176 C                     0.024433
  ----------------------------------------
  Sum of atomic charges =     0.000000

                    Cartesian Multipole Moments
 -----------------------------------------------------------------
    Charge (ESU x 10^10)
                 0.0000
    Dipole Moment (Debye)
         X       2.9329      Y      -3.1683      Z       0.2414
       Tot       4.3241
    Quadrupole Moments (Debye-Ang)
        XX    -814.4147     XY      -0.5569     YY    -796.3631
        XZ       5.5686     YZ       2.2571     ZZ    -790.4824

 Total job time:  975.10s(wall), 9379.21s(cpu)
        *  Thank you very much for using Q-Chem.  Have a nice day.  *
