 Q-Chem 4.4, Q-Chem, Inc., Pleasanton, CA (2016)
 Q-Chem 4.4.2 for Intel X86 Linux

User input:
--------------------------------------------------------------
$comment
SP
$end

$rem
MEM_STATIC 5000
MEM_TOTAL 20000
JOBTYPE SP
EXCHANGE B3LYP
BASIS 6-31g(d,p)
$end

$molecule
0 1
O          -3.027000    -29.201000     -8.014000
C          -2.329000    -30.447000     -7.751000
H          -1.243000    -30.292000     -7.791000
H          -2.639000    -31.215000     -8.470000
H          -2.507000    -30.880000     -6.759000
O          -4.953000    -30.203000     -7.759000
C          -4.321000    -29.182000     -7.883000
C          -4.884000    -27.755000     -7.931000
H          -4.114000    -26.974000     -7.944000
H          -5.373000    -27.730000     -6.949000
C          -5.858000    -27.512000     -9.116000
H          -5.528000    -27.750000    -10.135000
H          -6.698000    -28.208000     -8.998000
C          -6.571000    -26.150000     -9.153000
H          -7.297000    -26.065000     -8.336000
H          -5.803000    -25.375000     -9.038000
C          -7.332000    -25.892000    -10.493000
C          -8.321000    -26.980000    -10.829000
C          -9.620000    -26.830000    -10.354000
H          -9.785000    -25.950000     -9.738000
C         -10.666000    -27.706000    -10.634000
H         -11.638000    -27.438000    -10.231000
C         -10.471000    -28.756000    -11.567000
H         -11.272000    -29.425000    -11.868000
C          -9.119000    -29.022000    -11.914000
H          -8.799000    -29.801000    -12.600000
C          -8.077000    -28.147000    -11.607000
H          -7.096000    -28.239000    -12.064000
C          -6.429000    -24.778000    -15.805000
C          -8.754000    -24.013000    -15.407000
C          -7.898000    -19.577000    -15.735000
C          -3.304000    -22.549000    -12.573000
C          -7.767000    -19.041000    -12.324000
C          -7.737000    -24.921000    -15.158000
C          -4.302000    -19.947000    -11.958000
C          -7.063000    -21.432000    -17.095000
C          -9.245000    -22.858000    -11.648000
C          -4.047000    -22.351000    -11.389000
C          -7.651000    -24.498000    -10.944000
C          -8.352000    -22.185000    -10.771000
C          -5.752000    -21.208000    -10.450000
C          -5.330000    -19.057000    -12.275000
C          -8.902000    -24.596000    -13.198000
C          -6.483000    -18.513000    -14.358000
C          -6.510000    -25.177000    -11.592000
C          -5.203000    -24.526000    -11.547000
C          -7.767000    -18.689000    -13.668000
C          -3.876000    -21.271000    -15.737000
C          -5.510000    -19.761000    -16.201000
C          -5.735000    -20.926000    -16.938000
C          -7.316000    -22.832000    -16.997000
C          -4.511000    -24.662000    -12.786000
C          -8.856000    -24.148000    -11.845000
C          -8.524000    -22.968000    -16.326000
C          -4.493000    -21.051000    -11.056000
C          -9.452000    -23.844000    -14.214000
C          -8.049000    -20.835000    -10.959000
C          -3.524000    -23.373000    -14.639000
C          -8.061000    -20.796000    -16.391000
C          -7.356000    -23.135000    -10.332000
C          -4.984000    -23.240000    -16.606000
C          -6.780000    -20.311000    -10.730000
C          -9.890000    -22.051000    -12.659000
C          -4.195000    -19.449000    -14.173000
C          -3.602000    -20.229000    -13.130000
C          -9.511000    -20.714000    -12.767000
C          -3.571000    -23.719000    -13.270000
C          -4.957000    -23.311000    -10.898000
C          -3.275000    -21.998000    -14.730000
C          -6.562000    -25.531000    -13.040000
C          -9.719000    -21.488000    -14.881000
C          -6.068000    -22.579000    -10.391000
C          -8.708000    -20.042000    -11.858000
C          -4.382000    -23.995000    -15.596000
C          -8.617000    -19.342000    -14.578000
C          -6.288000    -23.723000    -16.763000
C          -6.575000    -19.078000    -15.638000
C          -9.936000    -22.580000    -13.954000
C          -9.452000    -20.361000    -14.087000
C          -7.755000    -25.269000    -13.785000
C          -5.309000    -25.319000    -13.686000
C          -4.338000    -19.994000    -15.433000
C          -9.010000    -21.726000    -16.039000
C          -6.550000    -19.218000    -11.617000
C          -3.100000    -21.483000    -13.451000
C          -5.265000    -18.706000    -13.630000
C          -5.285000    -24.910000    -15.060000
C          -4.705000    -21.829000    -16.699000
O          -8.559000    -29.159000     -5.065000
C          -7.681000    -30.132000     -5.496000
H          -8.009000    -31.170000     -5.360000
H          -6.750000    -29.991000     -4.934000
H          -7.584000    -30.032000     -6.584000
O          -8.290000    -29.479000     -2.857000
C          -8.846000    -28.934000     -3.783000
C         -10.030000    -27.961000     -3.598000
H         -10.470000    -28.082000     -2.601000
H         -10.782000    -28.184000     -4.365000
C          -9.637000    -26.481000     -3.635000
H          -8.722000    -26.330000     -3.050000
H          -9.348000    -26.347000     -4.685000
C         -10.743000    -25.510000     -3.118000
H         -11.598000    -25.820000     -3.731000
H         -11.019000    -25.754000     -2.085000
C         -10.383000    -24.079000     -3.265000
C          -9.259000    -23.757000     -2.290000
C          -9.524000    -23.532000     -0.917000
H         -10.520000    -23.698000     -0.519000
C          -8.529000    -23.051000     -0.025000
H          -8.778000    -22.823000      1.007000
C          -7.284000    -22.788000     -0.484000
H          -6.528000    -22.372000      0.176000
C          -7.034000    -22.816000     -1.875000
H          -6.073000    -22.567000     -2.315000
C          -7.950000    -23.344000     -2.747000
H          -7.695000    -23.520000     -3.788000
C         -12.092000    -18.923000     -2.889000
C         -10.128000    -18.768000     -4.155000
C         -12.015000    -17.663000     -8.178000
C         -15.235000    -22.174000     -5.076000
C         -11.799000    -20.975000     -9.357000
C         -10.811000    -19.351000     -3.123000
C         -14.856000    -22.086000     -7.822000
C         -12.520000    -16.890000     -5.870000
C          -9.410000    -22.062000     -6.271000
C         -14.479000    -23.205000     -5.679000
C         -10.455000    -23.246000     -4.509000
C         -10.258000    -22.971000     -6.930000
C         -12.998000    -23.618000     -7.343000
C         -14.091000    -21.481000     -8.819000
C          -9.566000    -20.955000     -4.119000
C         -13.384000    -19.145000     -9.098000
C         -11.465000    -23.042000     -3.388000
C         -12.875000    -23.208000     -3.798000
C         -12.126000    -19.618000     -9.347000
C         -15.459000    -18.727000     -5.678000
C         -14.289000    -17.777000     -7.318000
C         -13.868000    -17.186000     -6.086000
C         -11.976000    -17.257000     -4.642000
C         -13.645000    -22.161000     -3.242000
C          -9.550000    -22.166000     -4.860000
C         -10.692000    -17.727000     -4.932000
C         -14.297000    -23.125000     -7.065000
C          -9.397000    -19.705000     -4.787000
C         -10.923000    -22.672000     -8.119000
C         -15.188000    -20.297000     -3.758000
C         -11.611000    -17.202000     -6.899000
C         -10.957000    -23.675000     -5.917000
C         -13.987000    -18.155000     -3.827000
C         -12.258000    -22.935000     -8.321000
C          -9.190000    -20.843000     -6.869000
C         -15.377000    -19.870000     -7.793000
C         -15.667000    -21.086000     -7.174000
C          -9.771000    -20.573000     -8.100000
C         -14.835000    -21.681000     -3.819000
C         -13.290000    -23.603000     -5.107000
C         -15.751000    -19.958000     -5.017000
C         -11.478000    -21.689000     -2.741000
C          -9.791000    -18.642000     -6.868000
C         -12.326000    -23.876000     -6.132000
C         -10.621000    -21.488000     -8.737000
C         -14.262000    -19.376000     -3.224000
C         -11.199000    -18.710000     -8.761000
C         -12.672000    -17.891000     -3.632000
C         -13.388000    -17.914000     -8.390000
C          -9.143000    -19.637000     -6.125000
C         -10.106000    -19.230000     -8.125000
C         -10.457000    -20.729000     -3.058000
C         -12.798000    -21.226000     -2.571000
C         -15.242000    -18.691000     -7.065000
C         -10.486000    -17.637000     -6.303000
C         -12.814000    -21.901000     -9.059000
C         -15.814000    -21.136000     -5.781000
C         -14.383000    -20.118000     -8.796000
C         -13.097000    -19.836000     -2.576000
C         -14.621000    -17.802000     -5.068000
$end

--------------------------------------------------------------

             Standard Nuclear Orientation (Angstroms)
    I     Atom           X                Y                Z
 ----------------------------------------------------------------
    1      O       3.3932452405     8.2553068001    -1.7234248159
    2      C       3.7299191510     9.6678193345    -1.7420800592
    3      H       4.3265742547     9.9063278266    -2.6321010625
    4      H       4.2694227871     9.9417138543    -0.8273108978
    5      H       2.8727491410    10.3501057297    -1.7966863682
    6      O       2.2865119028     8.5233590171     0.1425318632
    7      C       2.5839751669     7.8286037250    -0.7987819477
    8      C       2.1157581389     6.3908056309    -1.0616725243
    9      H       2.4299122899     5.9922307360    -2.0340280265
   10      H       1.0335554723     6.5673456621    -1.1033978853
   11      C       2.5390484252     5.3882475311     0.0463223267
   12      H       3.5967228718     5.3231924658     0.3309231060
   13      H       2.0878332050     5.7290475341     0.9866415188
   14      C       1.9901217756     3.9568304164    -0.0741209260
   15      H       0.9084371063     3.9353706502     0.1027625232
   16      H       2.1978365195     3.6111293099    -1.0944244740
   17      C       2.6547576950     2.9585034038     0.9273216688
   18      C       2.5560966110     3.4094451230     2.3631763120
   19      C       1.4398958698     2.9992460859     3.0852280105
   20      H       0.7136597970     2.4217692477     2.5193811514
   21      C       1.2336530432     3.2699552021     4.4358102816
   22      H       0.3366437593     2.8479196501     4.8788422641
   23      C       2.2634832167     3.8833657838     5.1935643788
   24      H       2.1771380155     4.0563358483     6.2623903062
   25      C       3.3186638719     4.4599948578     4.4364899466
   26      H       4.1721096366     4.9797682424     4.8622867941
   27      C       3.5004869443     4.1989396719     3.0783925420
   28      H       4.4219479424     4.4533289201     2.5627669614
   29      C       7.3902898520     0.3165810958     1.8593789139
   30      C       5.6965738377    -1.0131011934     3.0892264949
   31      C       5.7948964793    -4.6237791408     0.3557756689
   32      C       6.0741745001     0.7463515678    -2.9637971892
   33      C       2.9581489619    -3.7439341274    -1.4100426331
   34      C       6.1684767916     0.2186839786     2.6640595958
   35      C       4.6528495026    -1.5992203775    -3.7529489496
   36      C       7.6395388902    -3.2565553323     1.2018509807
   37      C       2.1469253465    -0.7516284298     1.3465806379
   38      C       4.6625798994     0.7612187830    -2.9807868623
   39      C       2.6572826522     1.4830905854     0.6598358937
   40      C       1.8043202370    -0.6772490787    -0.0305890870
   41      C       2.8001231922    -0.4662494022    -2.6347061371
   42      C       4.2340226284    -2.8452773100    -3.2825244919
   43      C       3.8671478040     0.2687602450     2.5877231153
   44      C       5.2628618361    -4.5086587652    -1.8200314084
   45      C       3.9076234945     2.2236859870     0.3933922236
   46      C       4.4818676850     2.1490827544    -0.9477837407
   47      C       4.0230358184    -4.5535438278    -1.0348252082
   48      C       8.2082520181    -1.7469530995    -1.8681197808
   49      C       7.4957836638    -3.7939424631    -1.1843249362
   50      C       8.1529378517    -3.1573804358    -0.1288837210
   51      C       7.6223368586    -2.1130165874     2.0536938237
   52      C       5.9027181240     2.0422788786    -0.9002657220
   53      C       2.7049922855     0.4144811600     1.7743419220
   54      C       6.4335334276    -2.1722565794     2.7687029324
   55      C       3.9594818128    -0.3822157451    -3.4257762562
   56      C       4.3059330741    -0.9540455020     3.0486716934
   57      C       1.9303358150    -1.7943546871    -0.8587485727
   58      C       7.7880401312     0.5901603635    -1.5376131526
   59      C       6.4260049043    -3.8883631708     1.3576396850
   60      C       2.1132441461     0.6548906174    -0.4966436421
   61      C       8.6139352906    -0.7872296786     0.3168603193
   62      C       2.3495891739    -1.7042810372    -2.1829431802
   63      C       2.5224498057    -2.0533179019     1.8505458143
   64      C       6.4773208459    -2.8252922471    -3.1752551831
   65      C       6.0433303368    -1.5530493202    -3.6661199026
   66      C       2.6249258720    -3.1020077673     0.9380644600
   67      C       6.6762010312     1.3873969898    -1.8901944588
   68      C       3.9019020989     1.4439442494    -2.0081429288
   69      C       7.8008575620    -0.5307864178    -2.3767919340
   70      C       5.1319123755     1.9595384121     1.2033717262
   71      C       4.3779326452    -3.3148322843     2.3498041591
   72      C       2.7771555488     0.6153440534    -1.7332594752
   73      C       2.2073730362    -3.0466574453    -0.3830184182
   74      C       8.2086018364     0.4543560244    -0.1798274428
   75      C       4.4133500585    -4.6422194688     0.3130621850
   76      C       8.1101842737    -0.8975267363     1.6177920900
   77      C       6.3563926222    -4.5431144090    -0.9430523731
   78      C       3.6480781981    -2.1078619136     2.6805865802
   79      C       3.7015711185    -3.8824098129     1.2579045144
   80      C       5.0692441648     1.0294544813     2.2886986710
   81      C       6.3133498908     1.9792949411     0.4058229334
   82      C       7.5238858445    -2.8873998499    -2.2775256305
   83      C       5.7553458135    -3.2977621701     2.4020590652
   84      C       3.0531172308    -2.8923410821    -2.5405457569
   85      C       6.7600804525    -0.4244719631    -3.2917625592
   86      C       5.3432347559    -3.6350871231    -2.9519191148
   87      C       7.4079092858     1.1181507138     0.7465623508
   88      C       8.6394337173    -1.9290318918    -0.5623714683
   89      O      -2.0433290629     7.3690219534     1.2698255936
   90      C      -1.0727794495     8.3495043123     1.2619648232
   91      H      -1.2138220234     9.1714120672     1.9747752010
   92      H      -1.0572760594     8.7727706537     0.2504850907
   93      H      -0.1319211722     7.8866461514     1.5839912584
   94      O      -3.6847194393     8.5740119473     0.3191091547
   95      C      -3.2942014723     7.5600392233     0.8510791092
   96      C      -4.2256308028     6.3776345853     1.1933782098
   97      H      -5.2729402485     6.7020405491     1.1809808071
   98      H      -3.9627358698     6.0104751300     2.1931792843
   99      C      -4.1950098799     5.2385984160     0.1697195929
  100      H      -4.2086541589     5.6563378027    -0.8439660775
  101      H      -3.1870133594     4.8293332405     0.3126252638
  102      C      -5.3595973824     4.2113210483     0.3173785206
  103      H      -5.2675819391     3.9401890927     1.3761110746
  104      H      -6.3307172682     4.7127743319     0.2264292403
  105      C      -5.2484701121     3.0607827409    -0.6115360789
  106      C      -5.4975408157     3.5543420887    -2.0300028408
  107      C      -6.8120649525     3.7876313191    -2.5028468199
  108      H      -7.6556934605     3.7260504846    -1.8227918652
  109      C      -7.0846046773     4.0680297482    -3.8681851733
  110      H      -8.1079522410     4.1753500717    -4.2149575945
  111      C      -6.0699690225     4.1121526404    -4.7617413599
  112      H      -6.2695622054     4.2752961315    -5.8170795818
  113      C      -4.7768189997     3.6983671569    -4.3684099576
  114      H      -3.9291024999     3.6606754948    -5.0459629627
  115      C      -4.4715393083     3.4937917724    -3.0481155881
  116      H      -3.4449368706     3.3407601998    -2.7281925152
  117      C      -7.2207789738    -1.8106064004    -2.0348977998
  118      C      -5.1332371719    -1.7240717811    -3.0926113645
  119      C      -2.9707007219    -4.8622578921    -0.5545910659
  120      C      -6.6351498810    -0.9778031344     2.8838313334
  121      C      -1.4013511374    -2.4014886405     1.4171588098
  122      C      -6.2744524541    -1.0780020777    -2.7032225896
  123      C      -4.1646074343    -1.9578220012     3.6762226759
  124      C      -5.2690666064    -4.8286304089    -1.5010589490
  125      C      -2.5181774268     0.5450689857    -1.1289722149
  126      C      -5.5793506899    -0.0562458638     3.0685642894
  127      C      -4.3743042666     1.8523872323    -0.4624610322
  128      C      -2.2984018227     0.7708946409     0.2422926966
  129      C      -3.3406346470     0.1932857305     2.8262618695
  130      C      -3.0113669013    -2.5802883034     3.1989062443
  131      C      -4.5467243607     0.3582958336    -2.4446477549
  132      C      -2.7332165196    -4.4308080546     1.6074305092
  133      C      -5.8784678791     1.7433496205    -0.2527955224
  134      C      -6.2748452869     1.2286903489     1.0745201087
  135      C      -1.7803992552    -3.6736042605     0.9852764487
  136      C      -6.7501966496    -4.2310230118     1.5808679148
  137      C      -4.8943775314    -5.2477458531     0.8857347877
  138      C      -5.7743747708    -5.1367100783    -0.2357026449
  139      C      -5.9421698676    -3.8567069513    -2.2365219272
  140      C      -7.3014838526     0.2706896290     0.9117537847
  141      C      -3.7496925430     1.1183368957    -1.5485808682
  142      C      -4.9417371840    -3.1083445263    -2.8632149354
  143      C      -4.3424934432    -0.5846075273     3.4578432434
  144      C      -4.0803209704    -0.9027104096    -2.9238305301
  145      C      -1.7131747734    -0.1711736211     1.0880844502
  146      C      -7.9724387169    -2.0661474209     1.3706798924
  147      C      -3.8802449677    -4.6283799966    -1.6174214358
  148      C      -3.4151442687     1.5074850441     0.7120872125
  149      C      -7.5743557916    -3.4957481348    -0.5871499734
  150      C      -2.2278176031    -0.4975319080     2.3213042305
  151      C      -2.0779186081    -0.6448134419    -1.6603073077
  152      C      -4.7871040052    -4.0257877844     2.9558383767
  153      C      -5.2829695191    -2.8554062945     3.5305048540
  154      C      -1.4083833179    -1.5481347201    -0.8469468933
  155      C      -7.5331789394    -0.7810220178     1.8170984697
  156      C      -5.3557929024     0.9231432073     2.1250983584
  157      C      -7.2798454167    -3.0326340322     2.1473324213
  158      C      -6.6162190286     0.8274412407    -1.1835060474
  159      C      -2.7181735954    -2.7390034839    -2.3006545724
  160      C      -3.9462169344     1.1111342651     1.9456409745
  161      C      -1.2070833635    -1.3095641236     0.5198217041
  162      C      -8.0481381470    -2.3218180204    -0.0148796123
  163      C      -1.8968490615    -3.8981241575    -0.4158728148
  164      C      -7.0648330467    -3.1800050872    -1.8027316862
  165      C      -3.4992571239    -5.2161669265     0.7057463989
  166      C      -2.8427485484    -1.3770473938    -2.6032015765
  167      C      -1.7606954727    -2.8243808111    -1.2513860860
  168      C      -5.9400736363     0.2500518075    -2.3122127634
  169      C      -7.5354816419     0.0268326892    -0.4766459515
  170      C      -5.4873310883    -4.7097188222     1.9658028381
  171      C      -3.7058173261    -3.6310404205    -2.5033981667
  172      C      -2.0633645244    -1.8582140612     2.5321009639
  173      C      -6.5110583980    -2.3375878537     3.0966618317
  174      C      -3.3831875138    -3.8401661879     2.7319810381
  175      C      -7.8917095539    -1.2692072016    -0.9402279572
  176      C      -6.9369947840    -4.4926271327     0.2293359171
 ----------------------------------------------------------------

    9   -5804.2819810193      7.85E-06 Convergence criterion met
 Total energy in the final basis set = -5804.2819810193

                    Orbital Energies (a.u.)
 --------------------------------------------------------------

 Alpha MOs
 -- Occupied --
-19.203 -19.190 -19.135 -19.129 -10.319 -10.314 -10.252 -10.247
-10.245 -10.244 -10.241 -10.240 -10.239 -10.234 -10.231 -10.230
-10.230 -10.229 -10.227 -10.227 -10.227 -10.226 -10.224 -10.224
-10.223 -10.222 -10.222 -10.222 -10.222 -10.221 -10.221 -10.220
-10.220 -10.220 -10.220 -10.220 -10.220 -10.220 -10.219 -10.218
-10.218 -10.218 -10.218 -10.218 -10.217 -10.217 -10.217 -10.217
-10.217 -10.217 -10.217 -10.216 -10.216 -10.216 -10.216 -10.216
-10.216 -10.216 -10.216 -10.215 -10.215 -10.215 -10.215 -10.215
-10.215 -10.215 -10.215 -10.215 -10.214 -10.214 -10.214 -10.214
-10.214 -10.214 -10.214 -10.214 -10.213 -10.213 -10.213 -10.213
-10.213 -10.213 -10.212 -10.212 -10.212 -10.212 -10.212 -10.212
-10.212 -10.212 -10.212 -10.212 -10.211 -10.211 -10.211 -10.211
-10.211 -10.211 -10.211 -10.211 -10.211 -10.211 -10.210 -10.210
-10.210 -10.210 -10.210 -10.210 -10.210 -10.210 -10.209 -10.209
-10.209 -10.209 -10.209 -10.208 -10.208 -10.208 -10.208 -10.208
-10.208 -10.208 -10.208 -10.208 -10.207 -10.207 -10.207 -10.206
-10.206 -10.206 -10.206 -10.205 -10.203 -10.203 -10.203 -10.203
-10.202 -10.202 -10.202 -10.202 -10.200 -10.200 -10.198 -10.198
-10.197 -10.197 -10.196 -10.196  -1.123  -1.109  -1.017  -1.015
 -0.987  -0.983  -0.969  -0.966  -0.966  -0.964  -0.964  -0.960
 -0.939  -0.936  -0.930  -0.928  -0.927  -0.926  -0.925  -0.924
 -0.922  -0.920  -0.900  -0.899  -0.892  -0.888  -0.886  -0.886
 -0.876  -0.875  -0.855  -0.855  -0.845  -0.844  -0.840  -0.839
 -0.839  -0.837  -0.825  -0.824  -0.809  -0.808  -0.801  -0.798
 -0.797  -0.796  -0.795  -0.795  -0.794  -0.793  -0.785  -0.783
 -0.774  -0.773  -0.771  -0.769  -0.769  -0.767  -0.766  -0.766
 -0.753  -0.753  -0.751  -0.746  -0.738  -0.737  -0.721  -0.715
 -0.714  -0.714  -0.713  -0.713  -0.712  -0.712  -0.712  -0.711
 -0.709  -0.709  -0.708  -0.706  -0.705  -0.705  -0.676  -0.676
 -0.663  -0.660  -0.659  -0.658  -0.650  -0.648  -0.637  -0.632
 -0.628  -0.627  -0.625  -0.625  -0.620  -0.620  -0.618  -0.618
 -0.617  -0.616  -0.616  -0.614  -0.613  -0.611  -0.610  -0.608
 -0.606  -0.605  -0.605  -0.603  -0.575  -0.570  -0.568  -0.566
 -0.563  -0.562  -0.561  -0.558  -0.558  -0.557  -0.556  -0.554
 -0.540  -0.540  -0.537  -0.533  -0.528  -0.527  -0.526  -0.523
 -0.523  -0.521  -0.521  -0.520  -0.517  -0.515  -0.515  -0.513
 -0.511  -0.510  -0.505  -0.501  -0.496  -0.494  -0.490  -0.489
 -0.488  -0.487  -0.485  -0.484  -0.483  -0.482  -0.481  -0.479
 -0.475  -0.474  -0.472  -0.471  -0.470  -0.469  -0.469  -0.468
 -0.467  -0.466  -0.465  -0.464  -0.463  -0.461  -0.460  -0.459
 -0.457  -0.456  -0.456  -0.455  -0.453  -0.451  -0.446  -0.444
 -0.443  -0.442  -0.441  -0.441  -0.439  -0.436  -0.434  -0.434
 -0.431  -0.430  -0.428  -0.428  -0.427  -0.427  -0.425  -0.423
 -0.422  -0.422  -0.421  -0.421  -0.421  -0.420  -0.420  -0.419
 -0.419  -0.417  -0.417  -0.416  -0.416  -0.416  -0.415  -0.414
 -0.413  -0.413  -0.411  -0.411  -0.406  -0.404  -0.403  -0.401
 -0.397  -0.396  -0.392  -0.391  -0.391  -0.389  -0.387  -0.386
 -0.383  -0.380  -0.376  -0.373  -0.371  -0.369  -0.368  -0.367
 -0.366  -0.364  -0.363  -0.363  -0.361  -0.360  -0.359  -0.358
 -0.357  -0.357  -0.356  -0.355  -0.354  -0.353  -0.352  -0.351
 -0.350  -0.349  -0.348  -0.348  -0.347  -0.346  -0.345  -0.344
 -0.343  -0.342  -0.340  -0.339  -0.339  -0.337  -0.337  -0.335
 -0.335  -0.333  -0.332  -0.331  -0.330  -0.328  -0.327  -0.326
 -0.316  -0.313  -0.307  -0.294  -0.291  -0.288  -0.275  -0.273
 -0.271  -0.269  -0.268  -0.267  -0.267  -0.266  -0.265  -0.264
 -0.263  -0.262  -0.261  -0.259  -0.259  -0.258  -0.256  -0.255
 -0.252  -0.250  -0.247  -0.245  -0.226  -0.224  -0.212  -0.212
 -0.209  -0.208  -0.207  -0.204  -0.202  -0.196

          Ground-State Mulliken Net Atomic Charges

     Atom                 Charge (a.u.)
  ----------------------------------------
      1 O                    -0.422786
      2 C                    -0.096544
      3 H                     0.125170
      4 H                     0.137001
      5 H                     0.132146
      6 O                    -0.485141
      7 C                     0.576253
      8 C                    -0.254311
      9 H                     0.124301
     10 H                     0.137046
     11 C                    -0.191600
     12 H                     0.109607
     13 H                     0.132536
     14 C                    -0.172142
     15 H                     0.111255
     16 H                     0.102264
     17 C                    -0.011847
     18 C                     0.097834
     19 C                    -0.105348
     20 H                     0.089163
     21 C                    -0.092130
     22 H                     0.095372
     23 C                    -0.087061
     24 H                     0.099735
     25 C                    -0.095476
     26 H                     0.092361
     27 C                    -0.108871
     28 H                     0.093031
     29 C                    -0.024699
     30 C                     0.015060
     31 C                     0.018237
     32 C                    -0.025785
     33 C                    -0.008978
     34 C                    -0.032915
     35 C                    -0.000661
     36 C                    -0.020227
     37 C                     0.003903
     38 C                     0.007189
     39 C                    -0.076139
     40 C                     0.005241
     41 C                    -0.010677
     42 C                     0.017867
     43 C                     0.004455
     44 C                    -0.017255
     45 C                    -0.059249
     46 C                     0.025527
     47 C                    -0.010253
     48 C                     0.017444
     49 C                     0.013466
     50 C                    -0.020513
     51 C                     0.002443
     52 C                     0.016117
     53 C                     0.039168
     54 C                     0.017911
     55 C                    -0.013118
     56 C                     0.019618
     57 C                     0.051645
     58 C                    -0.024832
     59 C                     0.029065
     60 C                    -0.016211
     61 C                    -0.004684
     62 C                    -0.017450
     63 C                    -0.020403
     64 C                    -0.013123
     65 C                     0.000616
     66 C                     0.031386
     67 C                     0.009336
     68 C                    -0.020856
     69 C                     0.012256
     70 C                     0.002294
     71 C                    -0.029505
     72 C                     0.023212
     73 C                    -0.036625
     74 C                    -0.012598
     75 C                    -0.015555
     76 C                    -0.008726
     77 C                    -0.000599
     78 C                    -0.019492
     79 C                     0.031761
     80 C                    -0.002680
     81 C                    -0.007823
     82 C                    -0.002996
     83 C                    -0.004922
     84 C                     0.000412
     85 C                     0.006497
     86 C                    -0.001360
     87 C                     0.033269
     88 C                    -0.000292
     89 O                    -0.433732
     90 C                    -0.091532
     91 H                     0.117126
     92 H                     0.121498
     93 H                     0.138397
     94 O                    -0.467504
     95 C                     0.570923
     96 C                    -0.239682
     97 H                     0.124923
     98 H                     0.118196
     99 C                    -0.197790
    100 H                     0.119787
    101 H                     0.109235
    102 C                    -0.187256
    103 H                     0.104181
    104 H                     0.115705
    105 C                     0.045499
    106 C                     0.063900
    107 C                    -0.114024
    108 H                     0.087745
    109 C                    -0.076488
    110 H                     0.093937
    111 C                    -0.082554
    112 H                     0.090222
    113 C                    -0.087232
    114 H                     0.089169
    115 C                    -0.103130
    116 H                     0.093411
    117 C                     0.012859
    118 C                     0.029491
    119 C                    -0.006484
    120 C                    -0.000249
    121 C                    -0.008621
    122 C                    -0.017305
    123 C                     0.004224
    124 C                    -0.018740
    125 C                     0.000567
    126 C                    -0.005333
    127 C                    -0.073257
    128 C                    -0.002072
    129 C                    -0.045730
    130 C                     0.013993
    131 C                     0.023829
    132 C                     0.011395
    133 C                    -0.088107
    134 C                     0.030675
    135 C                     0.021247
    136 C                    -0.004256
    137 C                     0.034396
    138 C                    -0.023998
    139 C                     0.005415
    140 C                    -0.002949
    141 C                     0.011549
    142 C                    -0.023990
    143 C                    -0.002214
    144 C                     0.003484
    145 C                     0.021733
    146 C                    -0.025904
    147 C                     0.022353
    148 C                    -0.006677
    149 C                     0.011385
    150 C                     0.007657
    151 C                    -0.015966
    152 C                    -0.012131
    153 C                    -0.019682
    154 C                     0.026262
    155 C                    -0.007606
    156 C                     0.009906
    157 C                    -0.003892
    158 C                     0.035782
    159 C                    -0.005556
    160 C                     0.018784
    161 C                    -0.025974
    162 C                     0.004806
    163 C                    -0.032646
    164 C                     0.013989
    165 C                    -0.029885
    166 C                    -0.021469
    167 C                     0.023668
    168 C                    -0.010695
    169 C                     0.002999
    170 C                     0.027613
    171 C                     0.014515
    172 C                     0.004213
    173 C                     0.019419
    174 C                    -0.019320
    175 C                    -0.023048
    176 C                    -0.013386
  ----------------------------------------
  Sum of atomic charges =     0.000000

                    Cartesian Multipole Moments
 -----------------------------------------------------------------
    Charge (ESU x 10^10)
                 0.0000
    Dipole Moment (Debye)
         X       0.3188      Y       2.3119      Z      -0.7596
       Tot       2.4543
    Quadrupole Moments (Debye-Ang)
        XX    -810.7459     XY      20.6299     YY    -816.3386
        XZ       4.4311     YZ      -7.9699     ZZ    -793.1763

 Total job time:  869.60s(wall), 8310.04s(cpu)
        *  Thank you very much for using Q-Chem.  Have a nice day.  *
