 Q-Chem 4.4, Q-Chem, Inc., Pleasanton, CA (2016)
 Q-Chem 4.4.2 for Intel X86 Linux

User input:
--------------------------------------------------------------
$comment
SP
$end

$rem
MEM_STATIC 5000
MEM_TOTAL 20000
JOBTYPE SP
EXCHANGE B3LYP
BASIS 6-31g(d,p)
$end

$molecule
0 1
O          19.161000      8.508000     -1.816000
C          19.432000      9.918000     -1.483000
H          19.510000     10.076000     -0.401000
H          18.601000     10.548000     -1.824000
H          20.376000     10.258000     -1.926000
O          21.251000      7.794000     -1.049000
C          20.184000      7.607000     -1.531000
C          19.756000      6.268000     -2.032000
H          20.596000      6.031000     -2.696000
H          18.960000      6.356000     -2.781000
C          19.321000      5.169000     -0.988000
H          20.153000      5.165000     -0.272000
H          18.418000      5.489000     -0.453000
C          19.223000      3.838000     -1.743000
H          18.458000      3.923000     -2.525000
H          20.156000      3.692000     -2.301000
C          18.833000      2.704000     -0.723000
C          19.774000      2.726000      0.493000
C          21.131000      2.345000      0.429000
H          21.652000      2.165000     -0.507000
C          21.858000      2.147000      1.605000
H          22.864000      1.742000      1.566000
C          21.343000      2.412000      2.891000
H          21.907000      2.287000      3.811000
C          20.010000      2.883000      2.906000
H          19.660000      3.011000      3.926000
C          19.178000      3.004000      1.765000
H          18.117000      3.218000      1.854000
C          18.590000     -2.686000     -0.417000
C          16.860000     -2.097000      1.145000
C          13.525000     -3.543000     -1.626000
C          18.016000     -0.642000     -4.926000
C          12.822000     -0.276000     -2.814000
C          18.091000     -1.775000      0.549000
C          15.358000     -0.342000     -5.528000
C          15.589000     -4.612000     -1.087000
C          15.252000      1.374000     -0.051000
C          17.430000      0.598000     -4.683000
C          17.362000      2.081000     -0.772000
C          15.079000      1.949000     -1.382000
C          15.563000      1.667000     -4.033000
C          14.026000     -0.556000     -4.950000
C          17.053000      0.205000      0.881000
C          13.243000     -2.544000     -3.661000
C          18.604000      1.321000     -1.272000
C          18.736000      1.011000     -2.763000
C          12.812000     -1.666000     -2.663000
C          16.928000     -3.860000     -4.224000
C          14.884000     -4.314000     -3.435000
C          15.805000     -4.697000     -2.483000
C          16.692000     -4.124000     -0.229000
C          19.302000     -0.217000     -2.963000
C          16.570000      1.346000      0.289000
C          16.150000     -3.270000      0.747000
C          16.101000      0.727000     -4.986000
C          16.200000     -0.877000      1.248000
C          14.015000      1.525000     -2.175000
C          18.853000     -2.452000     -3.860000
C          14.461000     -3.959000     -0.631000
C          16.322000      2.354000     -1.820000
C          18.166000     -4.028000     -2.152000
C          14.241000      1.332000     -3.561000
C          14.395000      0.378000      0.392000
C          15.100000     -2.629000     -5.258000
C          15.960000     -1.590000     -5.730000
C          13.312000     -0.043000     -0.421000
C          18.944000     -1.097000     -4.012000
C          17.765000      1.453000     -3.616000
C          17.787000     -2.847000     -4.668000
C          18.992000      0.050000     -0.645000
C          14.101000     -1.927000      0.609000
C          16.607000      2.124000     -3.168000
C          13.138000      0.513000     -1.711000
C          19.073000     -3.065000     -2.568000
C          12.922000     -2.271000     -1.466000
C          17.962000     -3.873000     -0.800000
C          13.686000     -3.726000     -3.027000
C          14.822000     -0.772000      1.005000
C          13.188000     -1.470000     -0.276000
C          18.230000     -0.418000      0.444000
C          19.443000     -0.824000     -1.684000
C          15.550000     -3.777000     -4.516000
C          14.761000     -3.163000      0.455000
C          13.502000      0.252000     -3.999000
C          17.289000     -1.730000     -5.363000
C          13.895000     -1.993000     -4.787000
C          19.303000     -2.183000     -1.522000
C          17.092000     -4.428000     -2.970000
O          16.552000      0.230000     -9.034000
C          15.815000      1.435000     -9.316000
H          15.924000      2.106000     -8.456000
H          14.741000      1.224000     -9.398000
H          16.128000      1.877000    -10.270000
O          17.118000     -0.146000    -11.299000
C          17.090000     -0.504000    -10.126000
C          17.585000     -1.857000     -9.712000
H          17.738000     -2.399000    -10.654000
H          16.834000     -2.330000     -9.068000
C          18.821000     -1.842000     -8.762000
H          18.644000     -1.035000     -8.040000
H          18.916000     -2.799000     -8.235000
C          20.058000     -1.588000     -9.616000
H          20.484000     -2.489000    -10.076000
H          19.662000     -0.914000    -10.385000
C          21.093000     -0.919000     -8.744000
C          21.825000     -1.922000     -7.853000
C          21.344000     -2.298000     -6.575000
H          20.544000     -1.677000     -6.181000
C          22.091000     -3.217000     -5.810000
H          21.766000     -3.399000     -4.790000
C          23.299000     -3.737000     -6.308000
H          23.886000     -4.463000     -5.752000
C          23.669000     -3.552000     -7.685000
H          24.552000     -4.038000     -8.089000
C          22.953000     -2.617000     -8.429000
H          23.354000     -2.389000     -9.412000
C          21.700000      2.993000     -4.848000
C          23.990000      2.725000     -5.796000
C          23.890000      6.760000     -7.945000
C          18.302000      3.794000     -8.458000
C          23.128000      5.352000    -11.044000
C          22.730000      2.210000     -5.421000
C          19.524000      5.270000    -10.470000
C          23.069000      6.189000     -5.759000
C          23.825000      1.606000     -9.615000
C          18.782000      3.114000     -9.616000
C          21.799000      0.381000     -9.094000
C          22.876000      1.788000    -10.625000
C          20.432000      3.129000    -11.131000
C          20.748000      5.827000    -10.868000
C          23.466000      1.122000     -7.280000
C          22.389000      7.124000     -9.537000
C          20.736000      0.465000     -8.044000
C          19.536000      1.245000     -8.270000
C          23.432000      6.360000    -10.084000
C          19.643000      6.472000     -6.612000
C          21.637000      7.413000     -7.220000
C          21.826000      6.793000     -6.006000
C          23.153000      4.942000     -5.110000
C          19.109000      1.945000     -7.125000
C          23.159000      0.809000     -8.645000
C          24.135000      4.143000     -5.654000
C          19.385000      3.851000    -10.625000
C          24.376000      2.107000     -6.984000
C          22.826000      3.086000    -11.225000
C          18.779000      4.273000     -6.339000
C          24.099000      6.140000     -6.722000
C          21.654000      1.198000    -10.362000
C          20.652000      5.025000     -5.013000
C          21.613000      3.698000    -11.508000
C          24.756000      2.652000     -9.276000
C          20.028000      6.971000     -9.011000
C          19.119000      5.929000     -9.314000
C          24.658000      3.893000     -9.894000
C          18.526000      3.216000     -7.245000
C          19.439000      1.879000     -9.512000
C          18.753000      5.465000     -6.995000
C          21.104000      0.999000     -6.673000
C          25.251000      4.279000     -7.794000
C          20.463000      1.908000    -10.482000
C          23.708000      4.093000    -10.866000
C          19.736000      4.060000     -5.382000
C          24.404000      6.169000     -9.119000
C          21.895000      4.395000     -4.731000
C          22.642000      7.378000     -8.205000
C          25.077000      2.858000     -7.978000
C          24.981000      4.912000     -9.059000
C          22.452000      1.203000     -6.336000
C          20.047000      1.761000     -6.108000
C          20.252000      7.211000     -7.638000
C          24.690000      4.863000     -6.672000
C          21.847000      5.048000    -11.429000
C          18.507000      5.126000     -8.323000
C          21.049000      6.922000     -9.962000
C          20.373000      2.819000     -5.262000
C          20.605000      6.243000     -5.637000
$end

--------------------------------------------------------------

             Standard Nuclear Orientation (Angstroms)
    I     Atom           X                Y                Z
 ----------------------------------------------------------------
    1      O      -1.5642276172    -7.2192728214    -2.2285765466
    2      C      -2.2215027380    -8.4972651207    -2.5559220804
    3      H      -1.6387501728    -9.3585992689    -2.2091153145
    4      H      -2.3062551817    -8.6048573629    -3.6444912940
    5      H      -3.2103298829    -8.5687413251    -2.0867770819
    6      O      -1.8574964859    -7.5130712224     0.0722626199
    7      C      -1.4835573781    -6.9047763254    -0.8742725680
    8      C      -0.8853263073    -5.5420119269    -0.7642781128
    9      H      -1.6644019395    -5.0337312642    -0.1834537613
   10      H      -0.9777862670    -4.9865875589    -1.7051903973
   11      C       0.6034142476    -5.4033701976    -0.2628880140
   12      H       0.6111450812    -6.0016437567     0.6573863922
   13      H       1.2905376223    -5.8748907300    -0.9767254293
   14      C       0.8481211334    -3.9183215050     0.0302653939
   15      H       0.7184044593    -3.3424856588    -0.8946998285
   16      H       0.0399044865    -3.5603811863     0.6797525607
   17      C       2.3141471868    -3.7442898889     0.5770163495
   18      C       2.5747818171    -4.7167208638     1.7393711097
   19      C       1.9745808079    -4.5840534053     3.0093569734
   20      H       1.1656966252    -3.8880028991     3.2122290312
   21      C       2.4410091763    -5.3418188131     4.0859001281
   22      H       2.0645324007    -5.1610707383     5.0874875536
   23      C       3.4316755616    -6.3382456516     3.9635904048
   24      H       3.7838441266    -6.9519145742     4.7879136153
   25      C       3.9402749500    -6.5055431896     2.6550441902
   26      H       4.7357546591    -7.2447206227     2.6444255803
   27      C       3.5946307817    -5.7019202035     1.5399360317
   28      H       4.1324757622    -5.7718442838     0.5990474092
   29      C       5.4181710336    -0.0425842460     2.9992459612
   30      C       7.0979872452    -1.2944486261     1.8199588592
   31      C       7.8828073346     2.0878651068    -1.1525137210
   32      C       1.7397206919     1.6369172348     0.0860396761
   33      C       5.8185830268     0.6430020988    -3.6485487558
   34      C       5.8589083199    -1.2878777164     2.4824550780
   35      C       2.6691672790     2.1935367956    -2.4326249912
   36      C       7.6373227130     2.2082746451     1.2178484547
   37      C       5.4266492696    -2.7572323406    -1.5163286248
   38      C       1.5871896859     0.6593370622    -0.8943257140
   39      C       3.4196122354    -3.0622652545    -0.3541981395
   40      C       4.3573674786    -2.2405775024    -2.3659280772
   41      C       2.5004080875    -0.2978667507    -2.7111204222
   42      C       3.8971246108     2.1353110191    -3.2343946278
   43      C       5.6355784193    -2.7967507380     0.8146739292
   44      C       6.1960987963     2.7939560462    -2.5218931030
   45      C       2.7930203710    -2.3443060672     0.8549673747
   46      C       1.9043059960    -1.1236565214     0.6166263456
   47      C       6.6369181284     1.5413317002    -2.9569328301
   48      C       4.4563629572     3.6217386822     0.9300838839
   49      C       6.3412007114     3.6894706182    -0.2738147935
   50      C       6.6484395273     3.1909176600     0.9744973701
   51      C       7.3345257847     1.1224340973     2.1771092769
   52      C       2.0898940856    -0.1812729538     1.5891541203
   53      C       4.9308575353    -3.1483637825    -0.3102130618
   54      C       7.8349773318    -0.0828095930     1.6550059385
   55      C       2.0613938255     0.9541145270    -2.1444967744
   56      C       6.9053398814    -2.1521881646     0.7421003911
   57      C       4.6481018183    -1.2503661252    -3.3017036764
   58      C       2.9012390699     2.0985996135     1.9703829142
   59      C       8.2267710012     1.5817129396     0.1377095077
   60      C       3.1722602084    -2.4029729545    -1.6803141367
   61      C       5.2090973885     2.1623863414     2.7070851843
   62      C       3.7156802656    -0.1982138416    -3.4830503613
   63      C       6.7041319756    -2.2257550373    -1.6073440739
   64      C       4.1639132295     3.6898228518    -1.4856848763
   65      C       2.8437170300     3.1467613351    -1.4218790480
   66      C       6.9908102783    -1.2214876536    -2.5666988428
   67      C       2.0552183080     1.2150850212     1.3612352838
   68      C       1.6592557751    -0.7281646203    -0.6676440875
   69      C       3.1683818854     3.0784418421     1.0144598403
   70      C       3.6401956857    -1.9100757242     1.9742760879
   71      C       8.1934861328    -0.6755108828    -0.6989844227
   72      C       2.2508989500    -1.3581346588    -1.7834420549
   73      C       5.9586452057    -0.7189587612    -3.3947157359
   74      C       3.9384311325     1.6294378395     2.8634410618
   75      C       7.6690300008     1.1461238423    -2.1891504183
   76      C       6.1265902216     1.1577290769     2.9130358627
   77      C       6.9715645475     3.1519029105    -1.3967904806
   78      C       7.4583229442    -1.8743396181    -0.5172517906
   79      C       7.8875817576    -0.2769166539    -1.9532523981
   80      C       5.0159084352    -2.2113902495     1.9272336846
   81      C       3.1594070374    -0.6351259585     2.4103304084
   82      C       4.9886183168     3.9487903370    -0.3351348511
   83      C       8.3610161265     0.2284783535     0.3695422086
   84      C       4.3948630372     0.9777312673    -3.7284660568
   85      C       2.4169984232     2.8162997439    -0.1454636112
   86      C       4.8146892445     3.0757677418    -2.6160781265
   87      C       4.0412490003     0.2511334258     2.9844593628
   88      C       5.4767178221     3.1537275465     1.7436424415
   89      O      -0.5799473527     4.0076014019    -2.8767868026
   90      C      -0.9737605794     3.4334075115    -4.1377112725
   91      H      -0.8168883974     2.3500718269    -4.0785765718
   92      H      -0.3221360315     3.7874421709    -4.9468873402
   93      H      -1.9983591470     3.7226689663    -4.4022383715
   94      O      -2.1818699771     5.7438074062    -2.9835089462
   95      C      -1.2156479770     5.2060929015    -2.4523261547
   96      C      -0.5250388011     5.8298142582    -1.2771407926
   97      H      -0.9473770785     6.8405031260    -1.2087639557
   98      H       0.5562486964     5.8337281330    -1.4595360485
   99      C      -0.5986167449     5.0034025000     0.0427269629
  100      H      -0.4428843889     3.9552334980    -0.2417922397
  101      H       0.1847053370     5.3198330005     0.7419274022
  102      C      -1.9747424330     5.2338159808     0.6568838796
  103      H      -2.0492956426     6.1371833652     1.2759526865
  104      H      -2.6036001161     5.3268277310    -0.2366147655
  105      C      -2.3235837609     4.0175150057     1.4803470944
  106      C      -1.6326817795     4.0322446925     2.8434873984
  107      C      -0.3368425108     3.4977038107     3.0461882508
  108      H       0.0462456643     2.8916817530     2.2295746851
  109      C       0.2202093188     3.5357980181     4.3408067623
  110      H       1.1610503843     3.0161956026     4.4956628867
  111      C      -0.5094746165     4.0843976399     5.4105113054
  112      H      -0.0992741648     4.1478472792     6.4147476983
  113      C      -1.7102222114     4.8388941947     5.1734582270
  114      H      -2.2153233093     5.3433084059     5.9917125789
  115      C      -2.2789935573     4.7707602860     3.9037047365
  116      H      -3.2615140021     5.2217106335     3.8018648636
  117      C      -2.1239010541    -1.5330626417     1.4331920748
  118      C      -3.8784677983    -1.0066842303     3.1240644261
  119      C      -7.3004950436    -2.4315411007     0.4465770906
  120      C      -3.0068315611     0.8130942515    -2.9183693176
  121      C      -8.1794334821     0.7961272220    -0.5416199648
  122      C      -2.6685849246    -0.7199331789     2.4551793340
  123      C      -5.7593352727     0.9553909155    -3.2697650732
  124      C      -5.1220112255    -3.3979950023     0.7609862351
  125      C      -5.7082684032     2.4221849587     2.2529543122
  126      C      -3.6811841031     2.0256087608    -2.5884887123
  127      C      -3.6125354915     3.2246033740     1.3360190639
  128      C      -5.9346017427     3.1086433162     1.0565542358
  129      C      -5.5961099741     2.8219052891    -1.7417769860
  130      C      -6.9858233412     0.6590041494    -2.6576287300
  131      C      -3.7338190842     1.2286755843     2.9547001777
  132      C      -7.6940087376    -1.4042933305    -1.4795251890
  133      C      -2.3786227333     2.5938333441     0.7711177677
  134      C      -2.2602060805     2.3503097847    -0.6523111108
  135      C      -8.2386822347    -0.6243137328    -0.4471896773
  136      C      -3.9211181683    -2.5534761465    -2.4623377895
  137      C      -5.9100400854    -3.0879873800    -1.4675170271
  138      C      -4.9030109363    -3.4947550854    -0.6223251397
  139      C      -4.1038496051    -2.9545737518     1.6270061595
  140      C      -1.6340781280     1.1250400007    -0.9523640120
  141      C      -4.2946749605     2.4254957407     2.3992677343
  142      C      -4.5946836676    -2.1431469047     2.6266708008
  143      C      -5.0544375741     2.1006105112    -2.7712690230
  144      C      -4.5520446247     0.1944833142     3.3379681170
  145      C      -6.9658276658     2.5905244839     0.2107233004
  146      C      -2.1328602091    -1.0399239426    -2.0525583403
  147      C      -6.2986970518    -2.8471658937     1.3111387224
  148      C      -4.7805170632     3.5204555498     0.4169823190
  149      C      -2.6932591468    -2.7394226005    -0.4309645742
  150      C      -6.7911403296     2.5084434804    -1.1635943643
  151      C      -6.5413932710     1.3119613947     2.6390949506
  152      C      -5.9595563002    -1.3307040875    -3.1708753496
  153      C      -5.1171799304    -0.2508796859    -3.5289749353
  154      C      -7.5284290270     0.8536473633     1.7746195808
  155      C      -2.0414821857     0.3720260522    -2.0644440124
  156      C      -3.3438550472     2.7535395626    -1.4378298333
  157      C      -3.1595737603    -1.4469217314    -2.8475980145
  158      C      -1.9612757265     1.2256454252     1.2752053539
  159      C      -6.6835631497    -0.9353460337     2.7727925492
  160      C      -4.5618526583     3.2538495465    -0.9313826601
  161      C      -7.7386143842     1.5014092641     0.5815099315
  162      C      -1.9296913881    -1.6690712530    -0.8525737188
  163      C      -8.0499215996    -1.2767799476     0.7574460607
  164      C      -2.8760243580    -2.6478025167     0.9760448919
  165      C      -7.0944059856    -2.5288342724    -0.9516680019
  166      C      -5.9771445464     0.2358378871     3.2339584418
  167      C      -7.6855953378    -0.4921466465     1.8382767403
  168      C      -2.5948833427     0.6655904977     2.3964407738
  169      C      -1.3960289056     0.4367513711     0.2382578130
  170      C      -5.3098456395    -2.4691505977    -2.6467373899
  171      C      -5.9384128914    -2.0432430933     2.4095072647
  172      C      -7.5630619204     1.4516762091    -1.5769670677
  173      C      -3.7167853720    -0.2649193009    -3.3286452824
  174      C      -7.1233967768    -0.7868224553    -2.6241477068
  175      C      -1.5677072046    -0.9449974181     0.2897635924
  176      C      -3.7007423440    -3.1840577394    -1.2448356947
 ----------------------------------------------------------------

    9   -5804.2204088303      8.54E-06 Convergence criterion met
 Total energy in the final basis set = -5804.2204088303

                    Orbital Energies (a.u.)
 --------------------------------------------------------------

 Alpha MOs
 -- Occupied --
-19.191 -19.189 -19.146 -19.139 -10.323 -10.310 -10.253 -10.245
-10.242 -10.240 -10.239 -10.238 -10.234 -10.233 -10.232 -10.231
-10.230 -10.229 -10.227 -10.227 -10.225 -10.225 -10.225 -10.225
-10.225 -10.225 -10.224 -10.224 -10.223 -10.223 -10.222 -10.222
-10.222 -10.222 -10.221 -10.221 -10.221 -10.221 -10.221 -10.220
-10.220 -10.220 -10.220 -10.219 -10.219 -10.219 -10.219 -10.219
-10.219 -10.219 -10.219 -10.218 -10.218 -10.218 -10.218 -10.218
-10.218 -10.218 -10.218 -10.218 -10.218 -10.218 -10.217 -10.217
-10.217 -10.217 -10.217 -10.217 -10.217 -10.216 -10.216 -10.216
-10.216 -10.216 -10.216 -10.216 -10.215 -10.215 -10.215 -10.215
-10.214 -10.214 -10.214 -10.214 -10.213 -10.213 -10.213 -10.213
-10.213 -10.213 -10.213 -10.213 -10.213 -10.213 -10.213 -10.213
-10.212 -10.212 -10.212 -10.212 -10.212 -10.212 -10.212 -10.212
-10.211 -10.211 -10.211 -10.211 -10.211 -10.211 -10.211 -10.211
-10.211 -10.210 -10.210 -10.210 -10.210 -10.210 -10.209 -10.209
-10.209 -10.209 -10.208 -10.208 -10.207 -10.207 -10.206 -10.205
-10.205 -10.205 -10.203 -10.203 -10.203 -10.202 -10.202 -10.202
-10.202 -10.202 -10.201 -10.201 -10.201 -10.200 -10.199 -10.199
-10.199 -10.198 -10.198 -10.188  -1.087  -1.078  -1.019  -1.012
 -0.988  -0.987  -0.971  -0.968  -0.968  -0.967  -0.963  -0.963
 -0.936  -0.936  -0.931  -0.931  -0.931  -0.928  -0.926  -0.925
 -0.925  -0.924  -0.899  -0.897  -0.895  -0.894  -0.892  -0.890
 -0.875  -0.871  -0.850  -0.848  -0.846  -0.845  -0.843  -0.841
 -0.839  -0.838  -0.827  -0.824  -0.812  -0.803  -0.801  -0.800
 -0.799  -0.798  -0.798  -0.797  -0.796  -0.795  -0.786  -0.785
 -0.776  -0.774  -0.773  -0.770  -0.769  -0.768  -0.762  -0.761
 -0.750  -0.746  -0.740  -0.737  -0.735  -0.732  -0.721  -0.720
 -0.718  -0.717  -0.716  -0.715  -0.713  -0.713  -0.712  -0.711
 -0.710  -0.710  -0.709  -0.706  -0.699  -0.695  -0.674  -0.673
 -0.663  -0.662  -0.661  -0.658  -0.651  -0.649  -0.636  -0.635
 -0.630  -0.629  -0.627  -0.626  -0.622  -0.622  -0.620  -0.619
 -0.618  -0.617  -0.616  -0.614  -0.614  -0.613  -0.609  -0.608
 -0.608  -0.606  -0.605  -0.604  -0.567  -0.566  -0.566  -0.564
 -0.562  -0.562  -0.561  -0.560  -0.559  -0.558  -0.556  -0.554
 -0.537  -0.537  -0.535  -0.535  -0.534  -0.531  -0.530  -0.525
 -0.524  -0.522  -0.522  -0.522  -0.520  -0.518  -0.516  -0.515
 -0.509  -0.506  -0.503  -0.499  -0.492  -0.491  -0.489  -0.487
 -0.485  -0.485  -0.484  -0.483  -0.479  -0.477  -0.476  -0.475
 -0.475  -0.473  -0.473  -0.472  -0.471  -0.470  -0.469  -0.468
 -0.466  -0.466  -0.465  -0.464  -0.464  -0.462  -0.460  -0.457
 -0.456  -0.455  -0.453  -0.452  -0.452  -0.450  -0.448  -0.446
 -0.445  -0.445  -0.442  -0.441  -0.437  -0.436  -0.435  -0.434
 -0.434  -0.432  -0.430  -0.429  -0.429  -0.428  -0.427  -0.426
 -0.425  -0.425  -0.424  -0.424  -0.423  -0.422  -0.422  -0.421
 -0.420  -0.419  -0.418  -0.418  -0.417  -0.416  -0.415  -0.415
 -0.414  -0.413  -0.412  -0.409  -0.407  -0.402  -0.401  -0.400
 -0.397  -0.395  -0.394  -0.390  -0.390  -0.388  -0.387  -0.387
 -0.380  -0.380  -0.377  -0.374  -0.372  -0.370  -0.369  -0.368
 -0.366  -0.365  -0.364  -0.362  -0.362  -0.361  -0.360  -0.360
 -0.358  -0.357  -0.357  -0.356  -0.354  -0.353  -0.353  -0.352
 -0.350  -0.349  -0.349  -0.348  -0.347  -0.347  -0.345  -0.345
 -0.343  -0.342  -0.342  -0.341  -0.340  -0.338  -0.337  -0.335
 -0.335  -0.334  -0.333  -0.331  -0.330  -0.326  -0.324  -0.321
 -0.309  -0.303  -0.300  -0.296  -0.291  -0.289  -0.275  -0.275
 -0.272  -0.272  -0.271  -0.271  -0.269  -0.268  -0.268  -0.265
 -0.264  -0.263  -0.262  -0.261  -0.259  -0.256  -0.256  -0.255
 -0.249  -0.247  -0.246  -0.245  -0.229  -0.223  -0.215  -0.213
 -0.210  -0.209  -0.208  -0.205  -0.203  -0.201

          Ground-State Mulliken Net Atomic Charges

     Atom                 Charge (a.u.)
  ----------------------------------------
      1 O                    -0.477964
      2 C                    -0.095505
      3 H                     0.125773
      4 H                     0.123580
      5 H                     0.131196
      6 O                    -0.444280
      7 C                     0.583156
      8 C                    -0.258641
      9 H                     0.128734
     10 H                     0.114263
     11 C                    -0.187243
     12 H                     0.135451
     13 H                     0.112194
     14 C                    -0.187143
     15 H                     0.112057
     16 H                     0.120864
     17 C                     0.006481
     18 C                     0.054372
     19 C                    -0.093448
     20 H                     0.096226
     21 C                    -0.091973
     22 H                     0.087610
     23 C                    -0.073380
     24 H                     0.098796
     25 C                    -0.101531
     26 H                     0.082846
     27 C                    -0.095292
     28 H                     0.098810
     29 C                     0.007038
     30 C                    -0.017289
     31 C                    -0.001838
     32 C                    -0.004464
     33 C                    -0.014241
     34 C                    -0.002195
     35 C                     0.007280
     36 C                    -0.036121
     37 C                     0.013501
     38 C                     0.011095
     39 C                    -0.092012
     40 C                     0.024801
     41 C                    -0.034532
     42 C                    -0.008503
     43 C                     0.023686
     44 C                     0.013532
     45 C                    -0.096573
     46 C                     0.050013
     47 C                     0.040514
     48 C                    -0.027854
     49 C                     0.012353
     50 C                     0.023403
     51 C                    -0.019780
     52 C                     0.009689
     53 C                     0.014730
     54 C                     0.005892
     55 C                    -0.005753
     56 C                    -0.015010
     57 C                    -0.012087
     58 C                    -0.001971
     59 C                     0.015409
     60 C                     0.038105
     61 C                     0.021458
     62 C                    -0.004491
     63 C                     0.002327
     64 C                    -0.004947
     65 C                    -0.009156
     66 C                    -0.021064
     67 C                    -0.006361
     68 C                     0.012099
     69 C                     0.005224
     70 C                     0.042814
     71 C                     0.017807
     72 C                    -0.011919
     73 C                     0.006194
     74 C                    -0.041754
     75 C                    -0.014991
     76 C                    -0.009067
     77 C                    -0.031585
     78 C                    -0.006929
     79 C                    -0.021174
     80 C                     0.015008
     81 C                    -0.009672
     82 C                     0.006601
     83 C                     0.016692
     84 C                     0.011609
     85 C                     0.012482
     86 C                    -0.023397
     87 C                     0.009460
     88 C                     0.020313
     89 O                    -0.491495
     90 C                    -0.090482
     91 H                     0.125075
     92 H                     0.114983
     93 H                     0.139318
     94 O                    -0.470485
     95 C                     0.617568
     96 C                    -0.257849
     97 H                     0.133156
     98 H                     0.128594
     99 C                    -0.198271
    100 H                     0.134871
    101 H                     0.114433
    102 C                    -0.189426
    103 H                     0.121193
    104 H                     0.122891
    105 C                     0.018105
    106 C                     0.072681
    107 C                    -0.096426
    108 H                     0.096145
    109 C                    -0.102421
    110 H                     0.095118
    111 C                    -0.085539
    112 H                     0.088584
    113 C                    -0.091163
    114 H                     0.095232
    115 C                    -0.102232
    116 H                     0.090252
    117 C                    -0.020964
    118 C                    -0.034616
    119 C                    -0.020991
    120 C                    -0.002900
    121 C                    -0.002148
    122 C                    -0.002455
    123 C                    -0.005673
    124 C                    -0.003043
    125 C                     0.008901
    126 C                    -0.032343
    127 C                    -0.090955
    128 C                    -0.012102
    129 C                     0.022085
    130 C                    -0.017922
    131 C                    -0.005135
    132 C                     0.003774
    133 C                    -0.071778
    134 C                     0.014094
    135 C                     0.003548
    136 C                     0.020455
    137 C                    -0.028405
    138 C                     0.037412
    139 C                    -0.013417
    140 C                     0.028043
    141 C                     0.033416
    142 C                     0.018557
    143 C                    -0.011696
    144 C                     0.026743
    145 C                    -0.012200
    146 C                    -0.019990
    147 C                    -0.009310
    148 C                     0.009596
    149 C                    -0.018451
    150 C                     0.018737
    151 C                     0.007775
    152 C                     0.017689
    153 C                    -0.011447
    154 C                     0.037443
    155 C                     0.000009
    156 C                     0.014246
    157 C                    -0.005846
    158 C                     0.010171
    159 C                    -0.048637
    160 C                     0.018098
    161 C                    -0.007730
    162 C                     0.021830
    163 C                    -0.006975
    164 C                    -0.009607
    165 C                     0.027389
    166 C                    -0.020505
    167 C                     0.004922
    168 C                     0.001257
    169 C                    -0.006149
    170 C                    -0.025794
    171 C                     0.039842
    172 C                    -0.010434
    173 C                     0.016454
    174 C                    -0.017228
    175 C                     0.003425
    176 C                    -0.001884
  ----------------------------------------
  Sum of atomic charges =     0.000000

                    Cartesian Multipole Moments
 -----------------------------------------------------------------
    Charge (ESU x 10^10)
                 0.0000
    Dipole Moment (Debye)
         X       1.9246      Y      -0.4541      Z       1.0864
       Tot       2.2563
    Quadrupole Moments (Debye-Ang)
        XX    -824.6302     XY      -3.8314     YY    -798.0384
        XZ       0.4817     YZ      21.3859     ZZ    -794.4996

 Total job time:  915.22s(wall), 8811.93s(cpu)
        *  Thank you very much for using Q-Chem.  Have a nice day.  *
