 Q-Chem 4.4, Q-Chem, Inc., Pleasanton, CA (2016)
 Q-Chem 4.4.2 for Intel X86 Linux

User input:
--------------------------------------------------------------
$comment
SP
$end

$rem
MEM_STATIC 5000
MEM_TOTAL 20000
JOBTYPE SP
EXCHANGE B3LYP
BASIS 6-31g(d,p)
$end

$molecule
0 1
O          14.164000     15.734000      0.525000
C          15.261000     16.777000      0.468000
H          14.922000     17.691000      0.970000
H          15.674000     16.961000     -0.532000
H          16.086000     16.434000      1.104000
O          12.435000     17.114000      0.042000
C          12.833000     16.019000      0.282000
C          12.010000     14.761000      0.299000
H          11.180000     14.894000     -0.405000
H          11.495000     14.818000      1.266000
C          12.745000     13.467000     -0.041000
H          13.666000     13.402000      0.552000
H          12.120000     12.638000      0.313000
C          13.211000     13.359000     -1.507000
H          12.316000     13.331000     -2.141000
H          13.772000     14.246000     -1.825000
C          14.314000     12.342000     -1.787000
C          15.634000     12.863000     -1.342000
C          16.339000     13.729000     -2.241000
H          15.934000     14.096000     -3.179000
C          17.528000     14.379000     -1.826000
H          17.918000     15.101000     -2.537000
C          18.207000     13.827000     -0.691000
H          19.145000     14.232000     -0.321000
C          17.649000     12.819000      0.116000
H          18.292000     12.487000      0.926000
C          16.339000     12.342000     -0.135000
H          15.886000     11.588000      0.502000
C          16.042000      8.918000     -5.796000
C          16.756000      7.781000     -3.727000
C          13.644000      4.421000     -3.999000
C          11.162000      9.987000     -5.622000
C          11.464000      5.970000     -1.686000
C          16.539000      8.941000     -4.441000
C           9.850000      8.034000     -4.161000
C          14.979000      5.397000     -5.721000
C          14.203000      8.673000     -0.734000
C          10.730000     10.322000     -4.327000
C          13.974000     10.841000     -1.688000
C          12.833000      9.014000     -0.660000
C          10.665000      9.276000     -2.317000
C          10.029000      6.853000     -3.451000
C          15.864000      9.277000     -2.333000
C          11.430000      5.004000     -3.922000
C          14.159000     11.484000     -3.055000
C          12.933000     11.462000     -3.931000
C          11.962000      5.076000     -2.597000
C          12.324000      7.045000     -7.290000
C          12.611000      5.106000     -6.090000
C          13.837000      5.602000     -6.470000
C          15.949000      6.427000     -5.649000
C          13.293000     11.068000     -5.246000
C          14.893000      9.694000     -1.389000
C          16.413000      6.504000     -4.325000
C          10.121000      9.310000     -3.619000
C          16.376000      7.931000     -2.376000
C          11.849000      7.966000     -0.749000
C          12.866000      9.416000     -6.972000
C          14.882000      4.845000     -4.468000
C          12.635000     10.209000     -1.303000
C          14.616000      7.807000     -7.189000
C          10.706000      8.102000     -1.557000
C          14.647000      7.378000     -0.796000
C          10.585000      6.457000     -5.704000
C          10.178000      7.770000     -5.531000
C          13.701000      6.406000     -0.916000
C          12.411000     10.385000     -6.083000
C          11.704000     10.921000     -3.436000
C          11.922000      8.404000     -7.116000
C          15.220000     10.927000     -3.992000
C          15.377000      5.729000     -2.240000
C          11.515000     10.351000     -2.165000
C          12.300000      6.668000     -0.840000
C          14.224000      9.161000     -7.075000
C          13.299000      4.765000     -2.667000
C          15.743000      7.669000     -6.380000
C          12.508000      4.594000     -4.795000
C          15.715000      6.940000     -1.630000
C          14.169000      5.440000     -1.810000
C          16.078000      9.893000     -3.572000
C          14.698000     10.795000     -5.301000
C          11.627000      6.027000     -6.578000
C          15.782000      5.548000     -3.593000
C          10.495000      6.893000     -2.135000
C          10.831000      8.765000     -6.272000
C          10.516000      5.963000     -4.391000
C          15.117000      9.874000     -6.246000
C          13.689000      6.753000     -7.258000
O          16.552000      0.230000     -9.034000
C          15.815000      1.435000     -9.316000
H          15.924000      2.106000     -8.456000
H          14.741000      1.224000     -9.398000
H          16.128000      1.877000    -10.270000
O          17.118000     -0.146000    -11.299000
C          17.090000     -0.504000    -10.126000
C          17.585000     -1.857000     -9.712000
H          17.738000     -2.399000    -10.654000
H          16.834000     -2.330000     -9.068000
C          18.821000     -1.842000     -8.762000
H          18.644000     -1.035000     -8.040000
H          18.916000     -2.799000     -8.235000
C          20.058000     -1.588000     -9.616000
H          20.484000     -2.489000    -10.076000
H          19.662000     -0.914000    -10.385000
C          21.093000     -0.919000     -8.744000
C          21.825000     -1.922000     -7.853000
C          21.344000     -2.298000     -6.575000
H          20.544000     -1.677000     -6.181000
C          22.091000     -3.217000     -5.810000
H          21.766000     -3.399000     -4.790000
C          23.299000     -3.737000     -6.308000
H          23.886000     -4.463000     -5.752000
C          23.669000     -3.552000     -7.685000
H          24.552000     -4.038000     -8.089000
C          22.953000     -2.617000     -8.429000
H          23.354000     -2.389000     -9.412000
C          21.700000      2.993000     -4.848000
C          23.990000      2.725000     -5.796000
C          23.890000      6.760000     -7.945000
C          18.302000      3.794000     -8.458000
C          23.128000      5.352000    -11.044000
C          22.730000      2.210000     -5.421000
C          19.524000      5.270000    -10.470000
C          23.069000      6.189000     -5.759000
C          23.825000      1.606000     -9.615000
C          18.782000      3.114000     -9.616000
C          21.799000      0.381000     -9.094000
C          22.876000      1.788000    -10.625000
C          20.432000      3.129000    -11.131000
C          20.748000      5.827000    -10.868000
C          23.466000      1.122000     -7.280000
C          22.389000      7.124000     -9.537000
C          20.736000      0.465000     -8.044000
C          19.536000      1.245000     -8.270000
C          23.432000      6.360000    -10.084000
C          19.643000      6.472000     -6.612000
C          21.637000      7.413000     -7.220000
C          21.826000      6.793000     -6.006000
C          23.153000      4.942000     -5.110000
C          19.109000      1.945000     -7.125000
C          23.159000      0.809000     -8.645000
C          24.135000      4.143000     -5.654000
C          19.385000      3.851000    -10.625000
C          24.376000      2.107000     -6.984000
C          22.826000      3.086000    -11.225000
C          18.779000      4.273000     -6.339000
C          24.099000      6.140000     -6.722000
C          21.654000      1.198000    -10.362000
C          20.652000      5.025000     -5.013000
C          21.613000      3.698000    -11.508000
C          24.756000      2.652000     -9.276000
C          20.028000      6.971000     -9.011000
C          19.119000      5.929000     -9.314000
C          24.658000      3.893000     -9.894000
C          18.526000      3.216000     -7.245000
C          19.439000      1.879000     -9.512000
C          18.753000      5.465000     -6.995000
C          21.104000      0.999000     -6.673000
C          25.251000      4.279000     -7.794000
C          20.463000      1.908000    -10.482000
C          23.708000      4.093000    -10.866000
C          19.736000      4.060000     -5.382000
C          24.404000      6.169000     -9.119000
C          21.895000      4.395000     -4.731000
C          22.642000      7.378000     -8.205000
C          25.077000      2.858000     -7.978000
C          24.981000      4.912000     -9.059000
C          22.452000      1.203000     -6.336000
C          20.047000      1.761000     -6.108000
C          20.252000      7.211000     -7.638000
C          24.690000      4.863000     -6.672000
C          21.847000      5.048000    -11.429000
C          18.507000      5.126000     -8.323000
C          21.049000      6.922000     -9.962000
C          20.373000      2.819000     -5.262000
C          20.605000      6.243000     -5.637000
$end

--------------------------------------------------------------

             Standard Nuclear Orientation (Angstroms)
    I     Atom           X                Y                Z
 ----------------------------------------------------------------
    1      O      11.1201418620     4.3456611397    -0.8925735582
    2      C      11.1051500518     5.8403126499    -0.6470147895
    3      H      12.1335799856     6.2206439763    -0.6479911954
    4      H      10.5269446016     6.1602135725     0.2292082740
    5      H      10.6597992755     6.3221267735    -1.5258138771
    6      O      12.8643846235     3.8526136333     0.4645009960
    7      C      12.0123464401     3.4852044447    -0.2798580720
    8      C      11.7013844995     2.0579603170    -0.6354686335
    9      H      11.9822567049     1.4308778817     0.2189805596
   10      H      12.4847642206     1.8101659325    -1.3624329762
   11      C      10.2545884982     1.7555785289    -1.0170542527
   12      H       9.9129975369     2.4829173359    -1.7643218587
   13      H      10.2530482210     0.7905042329    -1.5384094396
   14      C       9.2454205235     1.8775059061     0.1425533160
   15      H       9.4920572072     1.1061237284     0.8827592887
   16      H       9.3400634103     2.8347858854     0.6691193283
   17      C       7.7812383502     2.0389544598    -0.2566996465
   18      C       7.5124921713     3.4273254290    -0.7172075653
   19      C       7.2463215957     4.4158023165     0.2864102243
   20      H       7.3157803403     4.2356084868     1.3547096517
   21      C       7.1286422171     5.7831332264    -0.0671484648
   22      H       7.0448934257     6.4607793618     0.7770593622
   23      C       6.8584811083     6.0764529503    -1.4437190277
   24      H       6.7142054854     7.0912341704    -1.8045134569
   25      C       6.9009172502     5.0992374939    -2.4546226461
   26      H       6.6516645126     5.4688280508    -3.4451017690
   27      C       7.2787770830     3.7683046626    -2.1505342621
   28      H       7.3471711023     3.0139272002    -2.9288214214
   29      C       2.6995452011     0.7245065708     1.5406490914
   30      C       2.4420520056     0.7765484645    -0.9117609265
   31      C       2.0290926818    -3.7678586952    -1.3871093918
   32      C       6.4611873874    -2.2954176782     2.8511995837
   33      C       5.4060630454    -4.1832455523    -2.3490319055
   34      C       3.0145349493     1.2701783431     0.2419625335
   35      C       6.6389350923    -4.3763113106     1.0323094155
   36      C       1.0825041688    -2.3213231041     0.2595812199
   37      C       5.9210262403    -0.2655809081    -2.6673880637
   38      C       7.5216613610    -2.2659580818     1.9290276456
   39      C       7.0525458969     0.8343166246    -0.8861891179
   40      C       7.0149935066    -1.0845061965    -2.3050981352
   41      C       7.7739165543    -2.7564845846    -0.2696519735
   42      C       6.0741945902    -4.9127450478    -0.1184333928
   43      C       4.5867395258     1.2062544975    -1.3506050510
   44      C       3.7988838949    -5.0757260565    -0.7507635526
   45      C       6.7501653749     1.2316911308     0.5515252214
   46      C       7.0953487264     0.1846046076     1.5788490588
   47      C       4.1111070238    -4.4755107030    -2.0101646989
   48      C       3.0842824818    -3.4714927472     2.8857349431
   49      C       2.1765794046    -4.3536263860     0.9674009350
   50      C       1.5812438565    -3.1454534762     1.2491558021
   51      C       1.1942193517    -0.9173061973     0.4120287293
   52      C       6.0314545221     0.0604067974     2.5098512210
   53      C       5.8740858968     0.8376206949    -1.8139779470
   54      C       1.5508657181    -0.3658623568    -0.8301121887
   55      C       7.5485536394    -3.2957184654     1.0151571090
   56      C       3.3747873201     0.7340476614    -1.9702029489
   57      C       6.8925031273    -2.5125758785    -2.4468517608
   58      C       4.4437837952    -1.5116261072     3.4577558628
   59      C       1.3396934048    -2.6064083655    -1.0582587137
   60      C       7.6303730429    -0.5461170649    -1.2041334812
   61      C       2.2250128320    -1.2270670057     2.6243582804
   62      C       7.3204658590    -3.3880615192    -1.4328587661
   63      C       4.7755322136    -0.7592657802    -3.2349474718
   64      C       4.4709490616    -4.9940610692     1.6034703443
   65      C       5.6550496111    -4.4482368887     2.0720094065
   66      C       4.6656372962    -2.1134108951    -3.3261292404
   67      C       5.7516348161    -1.1412513148     3.1600055976
   68      C       7.7143779756    -1.0416245709     1.1772126681
   69      C       4.2958286762    -2.8924303613     3.3711250669
   70      C       5.3193948882     1.5805138384     0.9325206717
   71      C       2.6076879001    -1.4155984344    -2.7800678402
   72      C       8.0241136606    -1.4063041175    -0.1445795371
   73      C       5.7278388413    -3.0060904301    -2.9913574892
   74      C       3.4004275793    -0.6503009403     3.1588833758
   75      C       3.0587155069    -3.6621791077    -2.3567967966
   76      C       1.8059776122    -0.3649425920     1.6120317619
   77      C       2.4822998876    -4.6130819313    -0.3701325436
   78      C       3.4641545155    -0.3177118290    -2.8982834834
   79      C       3.3495645020    -2.4725234670    -3.0254524018
   80      C       4.3060325894     1.6229003746    -0.0437068802
   81      C       4.9689790334     0.9514832857     2.1510929069
   82      C       3.1628746818    -4.5717219577     1.9844048424
   83      C       1.6385092491    -1.3740161922    -1.7377825340
   84      C       6.4018734543    -4.3842527414    -1.3690070387
   85      C       5.5754194062    -3.3994666512     2.9989695023
   86      C       4.7756547050    -5.2141029069     0.2501403548
   87      C       3.6895550023     0.5779637256     2.5257718188
   88      C       2.0726451118    -2.6132566567     2.4503803239
   89      O      -4.7330727287    -4.7865673284     0.7594044519
   90      C      -3.6204802055    -4.6122393508     1.6574387683
   91      H      -2.8653352347    -4.0050087726     1.1448481928
   92      H      -3.1378491208    -5.5747588990     1.8703809093
   93      H      -3.9484103343    -4.1990067223     2.6192857548
   94      O      -6.3347163624    -4.8488607533     2.4980286781
   95      C      -6.0286325395    -4.9666894713     1.3159516558
   96      C      -7.0310409810    -5.4050249244     0.2912227418
   97      H      -7.8987328763    -5.7394952177     0.8741270201
   98      H      -6.5935928159    -6.2067531925    -0.3156849010
   99      C      -7.3539293269    -4.3464691077    -0.8067862286
  100      H      -6.3964591827    -3.8861170557    -1.0809921932
  101      H      -7.8024821805    -4.8247418043    -1.6857962202
  102      C      -8.3254257383    -3.3373270979    -0.2052647188
  103      H      -9.3798641532    -3.6383282090    -0.2546100362
  104      H      -7.9855277658    -3.2960527957     0.8364736362
  105      C      -8.1327563008    -2.0240096845    -0.9244627856
  106      C      -8.8388176826    -2.0050700422    -2.2797607658
  107      C      -8.2205489812    -2.4679670901    -3.4669806847
  108      H      -7.1496886383    -2.6379561362    -3.3946007828
  109      C      -8.9370643770    -2.3982036028    -4.6792239538
  110      H      -8.4024741475    -2.6474909699    -5.5909355831
  111      C     -10.2378966843    -1.8644512679    -4.7039576034
  112      H     -10.8235754523    -1.8171449528    -5.6180273454
  113      C     -10.9571974866    -1.6190121644    -3.4834577049
  114      H     -11.9950780256    -1.3008338327    -3.5092944206
  115      C     -10.2398311508    -1.6525870415    -2.2898600893
  116      H     -10.7743650840    -1.3118879789    -1.4082299951
  117      C      -4.2110808986     1.3690210861    -2.9141394502
  118      C      -6.2097973984     2.8378084093    -2.6642911916
  119      C      -4.4698991986     5.0916911294     0.9137240317
  120      C      -3.2180360795    -1.1164749585     1.3351282985
  121      C      -6.3052217199     3.2656279956     3.2512427319
  122      C      -5.6083054362     1.5910436524    -2.9422031563
  123      C      -3.8980396030     0.5299841707     3.4674443032
  124      C      -3.3662846862     4.3472150102    -1.0878923941
  125      C      -8.5424662901     1.5702732188     0.3049102806
  126      C      -4.4722465093    -1.3138142903     1.9845722036
  127      C      -7.8712117247    -0.6965814790    -0.2313071075
  128      C      -8.2931778734     0.8493412598     1.4762075937
  129      C      -6.1472423934    -0.2162815221     2.9884450097
  130      C      -4.4603148380     1.7734845336     3.7905269668
  131      C      -7.5982286142     1.2502069266    -1.8908435262
  132      C      -4.0234130141     4.0005523746     2.7925607209
  133      C      -6.6979286363    -1.3356682219    -0.9054732070
  134      C      -5.5548313852    -1.7788960063    -0.1332337327
  135      C      -5.4045851702     4.2475126955     2.7464296562
  136      C      -1.4656066962     1.8197169962     0.5072097867
  137      C      -2.3416466494     3.8714281214     1.0114086157
  138      C      -2.3212493267     3.7566883826    -0.3598447312
  139      C      -3.9432250340     3.6894444382    -2.1914066485
  140      C      -4.3257718178    -1.5298616284    -0.7741303379
  141      C      -8.2234175366     0.6634709931    -0.7417905441
  142      C      -5.3086115089     3.8679289931    -2.2416464528
  143      C      -4.8093447148    -0.4976581784     3.0546717321
  144      C      -7.3793586042     2.6049429236    -1.9430670576
  145      C      -7.6818695142     1.5710344314     2.5498765632
  146      C      -2.2522667862    -0.2097118091    -0.4515449406
  147      C      -4.4577257414     4.9932102411    -0.4697366008
  148      C      -7.8138692885    -0.4288160602     1.2591128083
  149      C      -2.3156609205     1.8463749525    -1.7166130860
  150      C      -6.6660080118     1.0044382626     3.3068416809
  151      C      -8.2774150945     2.9847192903     0.2349947991
  152      C      -2.4444784959     2.1619820901     2.7604500325
  153      C      -2.7043275009     0.7708992371     2.7953927069
  154      C      -7.6820114867     3.6314716715     1.3114774516
  155      C      -3.1920521767    -1.1778769577    -0.0254537943
  156      C      -5.6348466810    -1.5882334052     1.2492185540
  157      C      -1.7498705792     0.4564451936     0.6234940815
  158      C      -5.9629712463    -0.5609166819    -1.9824219922
  159      C      -6.8564506352     4.5652798417    -0.5207606829
  160      C      -6.6747680807    -0.8978924644     1.9067213053
  161      C      -7.4034098201     2.9255130029     2.4565920614
  162      C      -2.5503324407     0.4916159730    -1.5901244097
  163      C      -5.6938855497     4.9751945551     1.6065724714
  164      C      -3.3620840544     2.4242613061    -2.4863656353
  165      C      -3.4184515763     4.5048148009     1.6600899424
  166      C      -7.7605773580     3.5064228149    -0.9012204915
  167      C      -6.8415323901     4.6208224805     0.9181647707
  168      C      -6.5041353730     0.6346702981    -2.4824241535
  169      C      -4.5665170465    -0.8178052848    -1.9501433048
  170      C      -1.8126468511     2.6398141528     1.5919594281
  171      C      -5.6314644148     4.6356447267    -1.1603844339
  172      C      -5.8917898443     2.0520109921     3.7389002482
  173      C      -2.4128749459    -0.0961980218     1.7162116507
  174      C      -3.5250641817     2.8024622863     3.3698453835
  175      C      -3.6974851802     0.1999204633    -2.3379240634
  176      C      -1.7691626623     2.5166811653    -0.6549454191
 ----------------------------------------------------------------

    9   -5804.2087917699      9.33E-06 Convergence criterion met
 Total energy in the final basis set = -5804.2087917699

                    Orbital Energies (a.u.)
 --------------------------------------------------------------

 Alpha MOs
 -- Occupied --
-19.190 -19.182 -19.146 -19.132 -10.323 -10.312 -10.249 -10.244
-10.242 -10.240 -10.239 -10.238 -10.237 -10.231 -10.231 -10.231
-10.228 -10.226 -10.226 -10.226 -10.225 -10.225 -10.225 -10.223
-10.223 -10.222 -10.221 -10.221 -10.221 -10.220 -10.220 -10.220
-10.219 -10.218 -10.218 -10.218 -10.218 -10.217 -10.217 -10.217
-10.217 -10.217 -10.217 -10.216 -10.216 -10.216 -10.216 -10.216
-10.216 -10.216 -10.215 -10.215 -10.215 -10.215 -10.215 -10.215
-10.215 -10.215 -10.215 -10.214 -10.214 -10.214 -10.214 -10.214
-10.214 -10.213 -10.213 -10.213 -10.213 -10.213 -10.213 -10.213
-10.213 -10.213 -10.213 -10.213 -10.212 -10.212 -10.212 -10.212
-10.212 -10.212 -10.211 -10.211 -10.211 -10.211 -10.211 -10.210
-10.210 -10.210 -10.210 -10.210 -10.210 -10.210 -10.210 -10.210
-10.210 -10.210 -10.209 -10.209 -10.209 -10.209 -10.209 -10.209
-10.209 -10.208 -10.208 -10.208 -10.208 -10.208 -10.208 -10.208
-10.207 -10.207 -10.207 -10.207 -10.207 -10.207 -10.207 -10.206
-10.206 -10.206 -10.206 -10.206 -10.206 -10.205 -10.205 -10.205
-10.204 -10.204 -10.204 -10.204 -10.204 -10.203 -10.203 -10.203
-10.202 -10.202 -10.202 -10.202 -10.202 -10.202 -10.201 -10.200
-10.200 -10.200 -10.199 -10.194  -1.082  -1.077  -1.011  -1.003
 -0.985  -0.985  -0.968  -0.966  -0.965  -0.965  -0.962  -0.960
 -0.933  -0.933  -0.929  -0.928  -0.928  -0.928  -0.926  -0.924
 -0.922  -0.921  -0.897  -0.897  -0.894  -0.893  -0.887  -0.886
 -0.874  -0.873  -0.849  -0.848  -0.842  -0.842  -0.840  -0.837
 -0.836  -0.835  -0.825  -0.824  -0.811  -0.807  -0.800  -0.797
 -0.797  -0.796  -0.795  -0.795  -0.792  -0.791  -0.785  -0.783
 -0.773  -0.770  -0.770  -0.767  -0.767  -0.766  -0.764  -0.761
 -0.752  -0.752  -0.737  -0.736  -0.731  -0.730  -0.718  -0.717
 -0.715  -0.714  -0.713  -0.712  -0.712  -0.711  -0.710  -0.708
 -0.706  -0.706  -0.706  -0.705  -0.703  -0.698  -0.673  -0.670
 -0.659  -0.658  -0.657  -0.655  -0.652  -0.649  -0.634  -0.633
 -0.632  -0.629  -0.626  -0.625  -0.620  -0.619  -0.618  -0.617
 -0.615  -0.614  -0.614  -0.612  -0.611  -0.610  -0.608  -0.607
 -0.606  -0.604  -0.604  -0.602  -0.566  -0.565  -0.565  -0.563
 -0.560  -0.560  -0.559  -0.558  -0.556  -0.556  -0.555  -0.551
 -0.537  -0.536  -0.535  -0.532  -0.530  -0.528  -0.527  -0.522
 -0.522  -0.521  -0.520  -0.519  -0.516  -0.515  -0.514  -0.513
 -0.506  -0.504  -0.502  -0.497  -0.490  -0.489  -0.487  -0.487
 -0.485  -0.483  -0.481  -0.479  -0.478  -0.476  -0.474  -0.473
 -0.472  -0.472  -0.471  -0.470  -0.468  -0.467  -0.466  -0.466
 -0.465  -0.464  -0.463  -0.462  -0.462  -0.460  -0.459  -0.455
 -0.455  -0.454  -0.454  -0.451  -0.450  -0.446  -0.443  -0.443
 -0.443  -0.440  -0.439  -0.438  -0.436  -0.435  -0.434  -0.434
 -0.431  -0.431  -0.431  -0.428  -0.426  -0.426  -0.425  -0.425
 -0.424  -0.423  -0.422  -0.421  -0.421  -0.419  -0.419  -0.419
 -0.418  -0.418  -0.417  -0.416  -0.415  -0.414  -0.413  -0.412
 -0.412  -0.410  -0.410  -0.408  -0.405  -0.404  -0.400  -0.398
 -0.396  -0.393  -0.393  -0.389  -0.388  -0.385  -0.385  -0.384
 -0.378  -0.375  -0.374  -0.372  -0.370  -0.369  -0.369  -0.366
 -0.366  -0.364  -0.363  -0.362  -0.361  -0.360  -0.359  -0.359
 -0.358  -0.358  -0.355  -0.355  -0.352  -0.352  -0.351  -0.350
 -0.350  -0.349  -0.349  -0.348  -0.346  -0.346  -0.344  -0.344
 -0.343  -0.340  -0.340  -0.340  -0.337  -0.336  -0.336  -0.334
 -0.331  -0.330  -0.330  -0.328  -0.328  -0.325  -0.324  -0.324
 -0.309  -0.301  -0.297  -0.295  -0.288  -0.287  -0.275  -0.272
 -0.269  -0.268  -0.267  -0.267  -0.265  -0.265  -0.263  -0.262
 -0.262  -0.261  -0.260  -0.259  -0.258  -0.256  -0.255  -0.253
 -0.250  -0.246  -0.245  -0.243  -0.225  -0.221  -0.212  -0.212
 -0.207  -0.205  -0.204  -0.202  -0.200  -0.199

          Ground-State Mulliken Net Atomic Charges

     Atom                 Charge (a.u.)
  ----------------------------------------
      1 O                    -0.495159
      2 C                    -0.086903
      3 H                     0.134420
      4 H                     0.130751
      5 H                     0.129546
      6 O                    -0.451531
      7 C                     0.598450
      8 C                    -0.271054
      9 H                     0.134239
     10 H                     0.137415
     11 C                    -0.181136
     12 H                     0.125346
     13 H                     0.099074
     14 C                    -0.174712
     15 H                     0.107051
     16 H                     0.114924
     17 C                     0.002347
     18 C                     0.066865
     19 C                    -0.100221
     20 H                     0.096391
     21 C                    -0.095263
     22 H                     0.097313
     23 C                    -0.089986
     24 H                     0.088689
     25 C                    -0.083074
     26 H                     0.096817
     27 C                    -0.101859
     28 H                     0.103195
     29 C                    -0.005753
     30 C                    -0.018512
     31 C                     0.002689
     32 C                     0.003343
     33 C                    -0.002739
     34 C                     0.016200
     35 C                    -0.001014
     36 C                    -0.007986
     37 C                     0.007436
     38 C                    -0.031726
     39 C                    -0.089336
     40 C                     0.027129
     41 C                     0.012526
     42 C                     0.015983
     43 C                     0.009186
     44 C                    -0.024203
     45 C                    -0.083283
     46 C                     0.024636
     47 C                     0.010706
     48 C                    -0.015381
     49 C                    -0.005476
     50 C                     0.036153
     51 C                    -0.025172
     52 C                    -0.015247
     53 C                     0.013940
     54 C                     0.014578
     55 C                     0.006583
     56 C                    -0.002546
     57 C                    -0.028311
     58 C                     0.005172
     59 C                    -0.019669
     60 C                     0.020679
     61 C                    -0.001312
     62 C                     0.004681
     63 C                    -0.001746
     64 C                     0.039166
     65 C                    -0.019117
     66 C                     0.008229
     67 C                     0.019585
     68 C                    -0.002696
     69 C                     0.013134
     70 C                     0.017789
     71 C                    -0.000248
     72 C                    -0.009601
     73 C                    -0.002734
     74 C                    -0.007780
     75 C                    -0.002047
     76 C                    -0.006064
     77 C                    -0.007596
     78 C                    -0.043094
     79 C                     0.033495
     80 C                     0.010545
     81 C                     0.025720
     82 C                    -0.030460
     83 C                     0.014942
     84 C                    -0.002317
     85 C                    -0.020970
     86 C                    -0.007833
     87 C                    -0.012690
     88 C                     0.010539
     89 O                    -0.492112
     90 C                    -0.090735
     91 H                     0.126115
     92 H                     0.114647
     93 H                     0.140266
     94 O                    -0.470513
     95 C                     0.619216
     96 C                    -0.256635
     97 H                     0.133709
     98 H                     0.127418
     99 C                    -0.193649
    100 H                     0.132052
    101 H                     0.112728
    102 C                    -0.190315
    103 H                     0.120778
    104 H                     0.124456
    105 C                     0.017505
    106 C                     0.077292
    107 C                    -0.101678
    108 H                     0.096886
    109 C                    -0.096252
    110 H                     0.095006
    111 C                    -0.085172
    112 H                     0.088868
    113 C                    -0.090856
    114 H                     0.096021
    115 C                    -0.101824
    116 H                     0.091540
    117 C                    -0.007160
    118 C                    -0.034870
    119 C                    -0.021457
    120 C                    -0.001880
    121 C                    -0.002236
    122 C                    -0.000481
    123 C                    -0.005194
    124 C                    -0.005899
    125 C                     0.007965
    126 C                    -0.032515
    127 C                    -0.089317
    128 C                    -0.012082
    129 C                     0.021704
    130 C                    -0.018626
    131 C                    -0.005633
    132 C                     0.003423
    133 C                    -0.075084
    134 C                     0.020807
    135 C                     0.003615
    136 C                     0.017468
    137 C                    -0.029138
    138 C                     0.036971
    139 C                    -0.013852
    140 C                     0.015141
    141 C                     0.031850
    142 C                     0.016848
    143 C                    -0.013466
    144 C                     0.027090
    145 C                    -0.012506
    146 C                    -0.011168
    147 C                    -0.011558
    148 C                     0.007619
    149 C                    -0.001573
    150 C                     0.018001
    151 C                     0.007995
    152 C                     0.018168
    153 C                    -0.010759
    154 C                     0.037239
    155 C                    -0.000612
    156 C                     0.013387
    157 C                    -0.000626
    158 C                     0.017636
    159 C                    -0.049108
    160 C                     0.018806
    161 C                    -0.008629
    162 C                     0.025348
    163 C                    -0.007752
    164 C                    -0.016091
    165 C                     0.026531
    166 C                    -0.021748
    167 C                     0.004374
    168 C                    -0.000778
    169 C                    -0.012519
    170 C                    -0.025192
    171 C                     0.039457
    172 C                    -0.010564
    173 C                     0.014517
    174 C                    -0.017857
    175 C                    -0.003646
    176 C                    -0.007183
  ----------------------------------------
  Sum of atomic charges =     0.000000

                    Cartesian Multipole Moments
 -----------------------------------------------------------------
    Charge (ESU x 10^10)
                 0.0000
    Dipole Moment (Debye)
         X      -0.7425      Y       0.6448      Z      -3.9486
       Tot       4.0692
    Quadrupole Moments (Debye-Ang)
        XX    -806.2116     XY      25.1655     YY    -787.7031
        XZ       3.8534     YZ       2.8590     ZZ    -808.1111

 Total job time:  865.65s(wall), 8291.89s(cpu)
        *  Thank you very much for using Q-Chem.  Have a nice day.  *
