 Q-Chem 4.4, Q-Chem, Inc., Pleasanton, CA (2016)
 Q-Chem 4.4.2 for Intel X86 Linux

User input:
--------------------------------------------------------------
$comment
SP
$end

$rem
MEM_STATIC 5000
MEM_TOTAL 20000
JOBTYPE SP
EXCHANGE B3LYP
BASIS 6-31g(d,p)
$end

$molecule
0 1
O           7.617000    -14.510000     -2.674000
C           6.378000    -14.555000     -3.409000
H           5.563000    -14.715000     -2.693000
H           6.454000    -15.444000     -4.046000
H           6.115000    -13.638000     -3.951000
O           8.578000    -13.523000     -4.448000
C           8.634000    -13.895000     -3.332000
C           9.942000    -13.900000     -2.437000
H           9.942000    -14.930000     -2.059000
H           9.680000    -13.245000     -1.597000
C          11.184000    -13.295000     -3.160000
H          11.540000    -13.838000     -4.044000
H          10.820000    -12.350000     -3.583000
C          12.354000    -13.093000     -2.188000
H          12.074000    -12.306000     -1.478000
H          12.465000    -13.969000     -1.537000
C          13.702000    -12.496000     -2.725000
C          13.629000    -11.482000     -3.872000
C          13.813000    -10.127000     -3.618000
H          13.858000     -9.825000     -2.576000
C          13.683000     -9.240000     -4.666000
H          13.845000     -8.171000     -4.562000
C          13.397000     -9.659000     -5.981000
H          13.317000     -8.959000     -6.807000
C          13.304000    -11.003000     -6.260000
H          13.096000    -11.441000     -7.232000
C          13.414000    -11.935000     -5.161000
H          13.326000    -12.988000     -5.409000
C          18.895000    -13.879000     -4.183000
C          19.161000    -11.637000     -3.220000
C          21.158000    -12.963000      0.705000
C          16.435000    -16.871000     -0.817000
C          18.238000    -12.737000      2.719000
C          18.418000    -12.548000     -3.977000
C          17.110000    -15.983000      1.679000
C          21.427000    -13.724000     -1.600000
C          16.319000    -11.053000     -0.499000
C          15.517000    -16.098000     -0.145000
C          14.818000    -12.344000     -1.728000
C          15.649000    -11.864000      0.435000
C          15.322000    -14.390000      1.400000
C          17.808000    -15.117000      2.513000
C          16.963000    -11.292000     -2.751000
C          20.107000    -14.261000      2.230000
C          14.922000    -13.457000     -2.723000
C          14.971000    -14.811000     -2.143000
C          19.611000    -12.943000      2.408000
C          20.003000    -16.813000     -0.930000
C          21.218000    -15.284000      0.245000
C          21.395000    -15.072000     -1.128000
C          20.837000    -13.293000     -2.799000
C          15.955000    -15.548000     -2.841000
C          15.899000    -11.299000     -1.784000
C          20.335000    -12.028000     -2.580000
C          15.845000    -15.675000      1.181000
C          18.253000    -10.849000     -2.452000
C          16.223000    -12.170000      1.675000
C          18.036000    -16.856000     -2.437000
C          21.339000    -12.686000     -0.709000
C          14.749000    -12.671000     -0.210000
C          19.962000    -15.549000     -3.022000
C          16.138000    -13.458000      2.177000
C          17.590000    -10.573000     -0.125000
C          19.315000    -16.304000      1.284000
C          18.004000    -16.729000      0.950000
C          18.203000    -10.929000      1.074000
C          16.670000    -16.562000     -2.129000
C          14.831000    -15.049000     -0.762000
C          18.680000    -17.259000     -1.249000
C          16.141000    -13.437000     -3.655000
C          19.781000    -10.823000     -0.572000
C          14.649000    -14.006000      0.231000
C          17.536000    -11.779000      1.960000
C          18.682000    -16.015000     -3.382000
C          20.292000    -12.127000      1.481000
C          20.049000    -14.280000     -3.548000
C          21.070000    -14.254000      1.160000
C          18.584000    -10.485000     -1.127000
C          19.551000    -11.112000      0.821000
C          17.084000    -12.386000     -3.641000
C          16.668000    -14.734000     -3.696000
C          20.352000    -16.382000      0.338000
C          20.717000    -11.617000     -1.339000
C          17.337000    -13.857000      2.720000
C          17.661000    -17.258000     -0.319000
C          19.202000    -15.271000      2.249000
C          17.986000    -14.965000     -4.030000
C          20.634000    -15.958000     -1.843000
O          21.029000    -15.026000      7.233000
C          20.424000    -14.027000      8.003000
H          21.247000    -13.617000      8.602000
H          19.618000    -14.510000      8.570000
H          20.017000    -13.213000      7.390000
O          19.457000    -15.126000      5.563000
C          20.443000    -15.595000      6.071000
C          21.185000    -16.896000      5.675000
H          21.249000    -17.428000      6.632000
H          22.273000    -16.787000      5.581000
C          20.498000    -17.768000      4.630000
H          19.425000    -17.775000      4.856000
H          20.673000    -17.345000      3.633000
C          21.027000    -19.255000      4.625000
H          22.111000    -19.184000      4.469000
H          20.820000    -19.669000      5.619000
C          20.425000    -20.177000      3.669000
C          18.915000    -20.382000      3.809000
C          17.974000    -19.690000      3.060000
H          18.294000    -18.964000      2.318000
C          16.576000    -19.918000      3.255000
H          15.855000    -19.271000      2.764000
C          16.152000    -20.849000      4.226000
H          15.089000    -21.021000      4.367000
C          17.078000    -21.465000      5.075000
H          16.768000    -22.165000      5.846000
C          18.446000    -21.208000      4.855000
H          19.099000    -21.790000      5.498000
C          21.143000    -25.043000      1.271000
C          19.891000    -23.748000     -0.459000
C          23.344000    -23.344000     -3.309000
C          25.251000    -22.567000      2.550000
C          24.136000    -20.015000     -2.276000
C          20.170000    -24.092000      0.890000
C          26.277000    -21.079000      0.425000
C          22.635000    -25.311000     -2.011000
C          20.723000    -19.857000     -0.109000
C          25.047000    -21.205000      2.565000
C          20.974000    -20.154000      2.259000
C          21.889000    -19.201000      0.266000
C          24.573000    -19.607000      1.147000
C          26.050000    -20.731000     -0.912000
C          19.753000    -21.857000      0.819000
C          25.262000    -22.169000     -2.780000
C          21.365000    -21.280000      3.127000
C          22.831000    -21.475000      3.491000
C          24.284000    -21.182000     -3.042000
C          25.399000    -24.989000      0.064000
C          24.997000    -24.489000     -2.067000
C          23.987000    -25.392000     -1.583000
C          21.561000    -25.393000     -1.118000
C          23.026000    -22.904000      3.436000
C          20.267000    -20.543000      1.005000
C          20.619000    -24.433000     -1.477000
C          25.566000    -20.497000      1.473000
C          19.652000    -22.364000     -0.476000
C          22.941000    -19.075000     -0.602000
C          24.408000    -24.576000      2.278000
C          22.326000    -24.257000     -2.863000
C          22.178000    -19.380000      1.652000
C          23.159000    -25.878000      0.643000
C          24.279000    -19.215000     -0.182000
C          20.639000    -20.366000     -1.403000
C          26.481000    -22.948000     -0.808000
C          26.483000    -22.424000      0.519000
C          21.689000    -20.242000     -2.291000
C          24.260000    -23.420000      3.040000
C          23.812000    -20.651000      2.929000
C          25.463000    -24.419000      1.361000
C          20.902000    -22.679000      2.857000
C          20.844000    -22.289000     -2.594000
C          23.497000    -19.687000      2.002000
C          22.870000    -19.552000     -1.884000
C          23.295000    -25.324000      1.907000
C          23.091000    -21.944000     -3.347000
C          21.812000    -25.684000      0.206000
C          24.712000    -23.439000     -2.953000
C          20.138000    -21.625000     -1.630000
C          21.845000    -21.425000     -3.037000
C          20.085000    -22.928000      1.673000
C          21.890000    -23.657000      3.113000
C          25.875000    -24.237000     -1.009000
C          21.050000    -23.670000     -2.571000
C          25.022000    -19.812000     -1.220000
C          26.001000    -23.164000      1.544000
C          26.082000    -21.933000     -1.682000
C          22.065000    -24.806000      2.277000
C          24.265000    -25.723000     -0.282000
$end

--------------------------------------------------------------

             Standard Nuclear Orientation (Angstroms)
    I     Atom           X                Y                Z
 ----------------------------------------------------------------
    1      O      10.2821028211     4.4064289229     5.4305575582
    2      C      11.1853915792     5.4246222598     5.9046068681
    3      H      11.4485076813     5.1897418306     6.9429141930
    4      H      10.6005943285     6.3519099311     5.9006381966
    5      H      12.1408889524     5.4965568397     5.3701237665
    6      O      10.7465067863     5.0414681181     3.3267942213
    7      C      10.2163920447     4.3049561331     4.0774635604
    8      C       9.2005428948     3.1597274136     3.6670787598
    9      H       8.3614843530     3.3612765682     4.3446794547
   10      H       9.6909331650     2.2440364564     4.0196357820
   11      C       8.9960436308     3.0426011454     2.1257223804
   12      H       8.5372760364     3.9081871925     1.6324333278
   13      H      10.0137737098     3.0374441076     1.7150535461
   14      C       8.2073069196     1.7781357498     1.7603326381
   15      H       8.8326733644     0.9083342418     1.9932084557
   16      H       7.3583042394     1.6473527657     2.4426729198
   17      C       7.8926881050     1.4802895240     0.2522926429
   18      C       8.9167269177     1.9314369969    -0.7950585245
   19      C       9.7560661451     0.9997379714    -1.3965928852
   20      H       9.7482041891    -0.0051034479    -0.9852233290
   21      C      10.7029120232     1.4519320706    -2.2915657227
   22      H      11.3731304500     0.7892705577    -2.8314805120
   23      C      10.8314362482     2.8131188969    -2.6339601551
   24      H      11.5639943641     3.1617883069    -3.3553922373
   25      C       9.9468907643     3.7300426605    -2.1146759373
   26      H       9.9443976659     4.7982087307    -2.3119245897
   27      C       8.9694587215     3.2652960190    -1.1569901011
   28      H       8.2918649748     4.0123582321    -0.7559642114
   29      C       3.8251583481     1.6519129591    -3.5465820686
   30      C       5.1325980906    -0.3155577488    -4.2131773979
   31      C       2.1026257554    -3.4818051201    -2.8181665622
   32      C       2.5199729640     1.2045145734     1.3960837908
   33      C       3.7467762595    -4.2713658250     0.2325767920
   34      C       5.0792204363     0.9854695482    -3.7037681338
   35      C       2.2602916721    -1.4676849462     1.9119329488
   36      C       1.8150111343    -1.3329579944    -3.9425512207
   37      C       6.8547680593    -1.8776581216    -0.9858202710
   38      C       3.5508147101     0.5795010093     2.0583226744
   39      C       7.0964937154     0.2377743720    -0.0389110505
   40      C       6.4988175727    -2.0153546411     0.3681796993
   41      C       4.6430230759    -1.4455467857     2.2787230235
   42      C       2.2940125907    -2.7941453862     1.4971057548
   43      C       6.7045565975    -0.1502820845    -2.5786069934
   44      C       1.5133891961    -3.7334583380    -0.6491804084
   45      C       6.3972370026     1.5553507852    -0.1599170214
   46      C       5.2466483061     1.7372706782     0.7429494162
   47      C       2.7754232037    -4.3647184544    -0.8028190394
   48      C       0.3008336770     0.1084455234    -1.1770097681
   49      C       0.4295798094    -1.9876043160    -2.0628373495
   50      C       0.7418226746    -1.0404532449    -3.0461029503
   51      C       2.7470409956    -0.3850113814    -4.3944135409
   52      C       4.2053752567     2.3441337025     0.0039658532
   53      C       7.1917586156    -0.5823143989    -1.2967270174
   54      C       3.9655343297    -1.0213572268    -4.4970193872
   55      C       3.3962257469    -0.8061793397     2.3757832590
   56      C       6.1494401578    -1.0287388253    -3.5112963805
   57      C       5.6618982831    -3.0527319015     0.7972793642
   58      C       1.8224037476     1.9856284147    -0.6265591226
   59      C       2.4686053956    -2.5348238939    -3.8565169174
   60      C       6.6013572621    -0.8049768467     1.0020134369
   61      C       1.6746211829     1.1894450142    -2.8858072955
   62      C       4.6613627368    -2.7967704392     1.7200931864
   63      C       6.3246634469    -2.8287284475    -1.8803432362
   64      C       0.6872359514    -1.7068134337     0.3027703510
   65      C       1.2760034981    -0.8021249127     1.2224406483
   66      C       5.4336315315    -3.8210519051    -1.4785195422
   67      C       2.8552425454     2.0358264539     0.3623696789
   68      C       4.8898383052     0.7844358416     1.7167036960
   69      C       0.8787529500     1.0152499406    -0.2311128060
   70      C       5.8136270011     1.9023765844    -1.5361282918
   71      C       4.8234737656    -3.0562487904    -3.5409015864
   72      C       5.5874143053    -0.4717461949     1.9226561543
   73      C       5.0561555226    -3.9017619179    -0.1356186685
   74      C       2.2181561346     2.1252413256    -1.9835817029
   75      C       3.1266795586    -4.2387087654    -2.1628508521
   76      C       2.6644453459     0.9615683710    -3.8147455936
   77      C       1.1109577609    -3.1854315641    -1.9180514007
   78      C       5.9492904060    -2.3855522832    -3.1697128371
   79      C       4.4840489028    -3.9644494084    -2.4746781577
   80      C       5.9880335075     1.0676157966    -2.6616516357
   81      C       4.5206021629     2.4025810137    -1.3373789606
   82      C       0.1500672960    -1.2411457549    -0.9100661790
   83      C       3.7840525703    -2.3500165397    -4.2589966962
   84      C       3.4912871119    -3.4284064895     1.3685111449
   85      C       1.3503125189     0.5945505839     0.9952254933
   86      C       1.3386737306    -2.9578686451     0.4496467547
   87      C       3.5703770036     2.3579702414    -2.3359394373
   88      C       0.7103435592     0.2201946268    -2.5121385238
   89      O      -0.6220009914    -7.6973284122     1.8394257841
   90      C       0.3572321644    -8.6143634130     2.2357529645
   91      H       0.0180097133    -9.5672185727     1.8100474636
   92      H       0.4036955450    -8.5728745773     3.3314417117
   93      H       1.3422559137    -8.3876295297     1.8087471571
   94      O       0.6361566343    -5.7887285845     2.0500678658
   95      C      -0.4427278710    -6.2884718401     1.8590550318
   96      C      -1.8070644406    -5.5693952425     1.7124413498
   97      H      -2.4301348910    -6.1013475377     2.4416731165
   98      H      -2.4042844356    -5.9004655285     0.8532663133
   99      C      -1.8110920045    -4.0731319126     2.0049440441
  100      H      -1.1734624632    -3.9037420440     2.8808376681
  101      H      -1.4142080918    -3.5328549551     1.1365276871
  102      C      -3.2535903108    -3.5091561271     2.3085308518
  103      H      -3.8643781170    -3.7701508987     1.4348873405
  104      H      -3.6227148517    -4.0410460578     3.1934721917
  105      C      -3.3665603877    -2.0877784997     2.6140589223
  106      C      -2.5794749385    -1.6095660274     3.8361613432
  107      C      -1.3166668660    -1.0395209325     3.7605944090
  108      H      -0.8372774301    -0.9014019684     2.7956338292
  109      C      -0.6291116967    -0.6307881101     4.9457603760
  110      H       0.4090455858    -0.3184336126     4.8809905939
  111      C      -1.2389356579    -0.8192125869     6.2035317992
  112      H      -0.7137041546    -0.5032212619     7.1000335284
  113      C      -2.4551976023    -1.5025542991     6.3106951647
  114      H      -2.9273335981    -1.6801384923     7.2730321409
  115      C      -3.0971193214    -1.8956223098     5.1193484286
  116      H      -4.0731236640    -2.3406472711     5.2865318821
  117      C      -6.9733773648     2.0104043650     2.9877600076
  118      C      -4.8719287888     3.1770670893     2.3093493869
  119      C      -6.2260296930     4.1587336769    -1.8633795106
  120      C      -8.0134868660    -1.5752317286    -0.2838553471
  121      C      -4.4613990235     1.4289872208    -3.3503754372
  122      C      -5.5694972332     2.1661596279     3.0216992799
  123      C      -7.1499420280    -0.9243421853    -2.8554459279
  124      C      -7.4869515697     4.3085640072     0.2447478321
  125      C      -2.5820140941     0.7094261332     0.1595485119
  126      C      -6.8738827892    -2.1913245543    -0.7514205066
  127      C      -3.4256763421    -1.1385534067     1.4369832973
  128      C      -2.9143280626    -0.2949590024    -0.7411706040
  129      C      -5.1063138954    -1.6784407156    -1.9353353573
  130      C      -6.4850357178     0.0580163135    -3.5991349613
  131      C      -3.6281223637     1.2591075530     2.2584986839
  132      C      -6.6842493131     2.5303367932    -3.4374024992
  133      C      -4.6820477015    -1.4125189445     2.1585474950
  134      C      -5.8365485829    -2.0866802540     1.4289508643
  135      C      -5.2736534870     2.5738853020    -3.3501102161
  136      C      -9.4223757035     1.5764727974    -0.6711211781
  137      C      -8.3774869220     3.1821755107    -1.8036807708
  138      C      -8.4962636467     3.5636361190    -0.4216008549
  139      C      -7.0346232784     3.9764556158     1.5264467567
  140      C      -7.0123606508    -1.4023865314     1.9109250153
  141      C      -3.0172408154     0.2953316644     1.4080001416
  142      C      -5.6481981733     4.0999448078     1.5469613234
  143      C      -6.4669393837    -1.8262861694    -2.0414720724
  144      C      -3.6873243743     2.5873614438     1.8383657008
  145      C      -3.3247615607     0.0024500352    -2.0136077176
  146      C      -8.9133131569    -0.0931383858     1.0631509518
  147      C      -6.3396956613     4.5784056876    -0.4923344890
  148      C      -3.5029317508    -1.4201942380    -0.0900566642
  149      C      -8.7618313115     2.2737865148     1.6137413311
  150      C      -4.3673841333    -0.7024359505    -2.6478930778
  151      C      -2.6537809610     2.0323353473    -0.2709555278
  152      C      -8.4284427131     0.9250100440    -2.8354877116
  153      C      -8.2994760990    -0.4053028464    -2.3363442190
  154      C      -3.0605153668     2.3475319467    -1.5522198358
  155      C      -8.1084504686    -1.2293926720     1.0656509556
  156      C      -5.7426724390    -2.3568470772     0.0595063940
  157      C      -9.2930688821     0.2276182953    -0.2527000051
  158      C      -5.3723336086    -0.3556325511     2.9653724561
  159      C      -3.9812420382     3.8740128258    -0.2038276368
  160      C      -4.6438004788    -1.9801914774    -0.6742926073
  161      C      -3.3834188899     1.2956978848    -2.4610038701
  162      C      -8.6840650439     0.9360755312     1.9709383805
  163      C      -5.0164748547     3.5826628974    -2.3435592169
  164      C      -7.6700073692     2.9687531691     2.2203349581
  165      C      -7.2419302740     3.4736524710    -2.5745719957
  166      C      -3.2241174071     2.9979393536     0.5227297004
  167      C      -3.8936837244     3.4815515022    -1.5391379570
  168      C      -4.8031242436     0.9885462599     2.9883946828
  169      C      -6.7814734679    -0.4020115038     2.8636972404
  170      C      -8.9589215758     1.9184782482    -1.9406295645
  171      C      -5.1436617703     4.4681136137     0.2921064519
  172      C      -5.0839705949     0.1884197299    -3.4717753508
  173      C      -8.7408022097    -0.7124955920    -1.0948077189
  174      C      -7.2482481717     1.2610423215    -3.5044609195
  175      C      -7.5839741626     0.7817983573     2.7980554257
  176      C      -9.1741621845     2.5854253948     0.2588426413
 ----------------------------------------------------------------

    9   -5804.2580185269      7.71E-06 Convergence criterion met
 Total energy in the final basis set = -5804.2580185269

                    Orbital Energies (a.u.)
 --------------------------------------------------------------

 Alpha MOs
 -- Occupied --
-19.193 -19.177 -19.148 -19.141 -10.327 -10.315 -10.244 -10.242
-10.240 -10.239 -10.238 -10.237 -10.236 -10.235 -10.228 -10.226
-10.226 -10.226 -10.225 -10.224 -10.223 -10.223 -10.223 -10.222
-10.221 -10.220 -10.218 -10.217 -10.217 -10.217 -10.216 -10.216
-10.216 -10.216 -10.216 -10.216 -10.216 -10.215 -10.215 -10.214
-10.214 -10.214 -10.214 -10.214 -10.214 -10.214 -10.214 -10.214
-10.214 -10.214 -10.214 -10.214 -10.214 -10.213 -10.213 -10.213
-10.213 -10.213 -10.213 -10.213 -10.213 -10.213 -10.213 -10.213
-10.212 -10.212 -10.212 -10.212 -10.212 -10.212 -10.212 -10.212
-10.212 -10.211 -10.211 -10.211 -10.211 -10.211 -10.211 -10.211
-10.211 -10.211 -10.211 -10.211 -10.210 -10.210 -10.210 -10.210
-10.210 -10.210 -10.210 -10.210 -10.210 -10.210 -10.210 -10.210
-10.209 -10.209 -10.209 -10.209 -10.209 -10.209 -10.209 -10.209
-10.208 -10.208 -10.208 -10.208 -10.208 -10.208 -10.208 -10.207
-10.207 -10.207 -10.206 -10.206 -10.206 -10.206 -10.206 -10.205
-10.205 -10.205 -10.205 -10.205 -10.205 -10.205 -10.205 -10.204
-10.204 -10.203 -10.203 -10.202 -10.202 -10.202 -10.201 -10.200
-10.199 -10.199 -10.199 -10.198 -10.198 -10.198 -10.198 -10.198
-10.197 -10.197 -10.196 -10.196  -1.108  -1.087  -1.027  -1.017
 -0.983  -0.981  -0.965  -0.963  -0.962  -0.962  -0.960  -0.959
 -0.933  -0.933  -0.929  -0.925  -0.925  -0.923  -0.922  -0.921
 -0.919  -0.917  -0.898  -0.895  -0.891  -0.889  -0.886  -0.883
 -0.873  -0.873  -0.854  -0.850  -0.840  -0.839  -0.837  -0.837
 -0.836  -0.835  -0.820  -0.819  -0.804  -0.801  -0.796  -0.795
 -0.795  -0.794  -0.793  -0.792  -0.788  -0.787  -0.784  -0.781
 -0.771  -0.768  -0.767  -0.766  -0.765  -0.763  -0.762  -0.761
 -0.750  -0.746  -0.743  -0.741  -0.734  -0.731  -0.714  -0.714
 -0.713  -0.711  -0.710  -0.709  -0.708  -0.708  -0.707  -0.706
 -0.706  -0.705  -0.705  -0.703  -0.702  -0.699  -0.672  -0.668
 -0.657  -0.657  -0.655  -0.655  -0.645  -0.645  -0.630  -0.629
 -0.626  -0.626  -0.622  -0.621  -0.621  -0.621  -0.615  -0.614
 -0.612  -0.612  -0.611  -0.611  -0.609  -0.609  -0.606  -0.606
 -0.605  -0.604  -0.601  -0.599  -0.563  -0.563  -0.560  -0.560
 -0.558  -0.557  -0.556  -0.556  -0.555  -0.555  -0.552  -0.551
 -0.536  -0.535  -0.534  -0.530  -0.524  -0.524  -0.523  -0.522
 -0.520  -0.520  -0.517  -0.516  -0.514  -0.514  -0.512  -0.511
 -0.509  -0.505  -0.501  -0.496  -0.494  -0.491  -0.486  -0.486
 -0.483  -0.483  -0.479  -0.479  -0.478  -0.477  -0.475  -0.474
 -0.473  -0.470  -0.470  -0.469  -0.467  -0.466  -0.465  -0.464
 -0.463  -0.463  -0.462  -0.461  -0.461  -0.460  -0.459  -0.458
 -0.457  -0.454  -0.453  -0.452  -0.450  -0.449  -0.444  -0.443
 -0.442  -0.441  -0.439  -0.437  -0.436  -0.436  -0.432  -0.430
 -0.428  -0.427  -0.427  -0.426  -0.426  -0.425  -0.424  -0.422
 -0.421  -0.420  -0.419  -0.419  -0.418  -0.417  -0.417  -0.416
 -0.416  -0.415  -0.415  -0.414  -0.414  -0.413  -0.412  -0.411
 -0.410  -0.407  -0.406  -0.405  -0.402  -0.402  -0.400  -0.394
 -0.391  -0.390  -0.390  -0.388  -0.387  -0.384  -0.384  -0.381
 -0.380  -0.378  -0.375  -0.370  -0.368  -0.368  -0.366  -0.364
 -0.364  -0.363  -0.363  -0.361  -0.359  -0.356  -0.355  -0.355
 -0.354  -0.354  -0.353  -0.352  -0.352  -0.351  -0.350  -0.349
 -0.348  -0.347  -0.346  -0.346  -0.344  -0.343  -0.343  -0.342
 -0.341  -0.341  -0.339  -0.338  -0.337  -0.336  -0.334  -0.333
 -0.331  -0.331  -0.329  -0.327  -0.326  -0.326  -0.325  -0.324
 -0.305  -0.303  -0.302  -0.291  -0.287  -0.287  -0.277  -0.274
 -0.270  -0.268  -0.266  -0.265  -0.264  -0.263  -0.262  -0.261
 -0.260  -0.259  -0.259  -0.258  -0.256  -0.256  -0.253  -0.252
 -0.250  -0.248  -0.243  -0.240  -0.222  -0.220  -0.209  -0.208
 -0.208  -0.206  -0.205  -0.203  -0.198  -0.194

          Ground-State Mulliken Net Atomic Charges

     Atom                 Charge (a.u.)
  ----------------------------------------
      1 O                    -0.467621
      2 C                    -0.090706
      3 H                     0.119438
      4 H                     0.126708
      5 H                     0.136909
      6 O                    -0.444572
      7 C                     0.583215
      8 C                    -0.272951
      9 H                     0.133841
     10 H                     0.131834
     11 C                    -0.176159
     12 H                     0.111265
     13 H                     0.129922
     14 C                    -0.182461
     15 H                     0.107113
     16 H                     0.112569
     17 C                    -0.011074
     18 C                     0.087552
     19 C                    -0.092504
     20 H                     0.098080
     21 C                    -0.106337
     22 H                     0.089848
     23 C                    -0.076479
     24 H                     0.091345
     25 C                    -0.086522
     26 H                     0.095355
     27 C                    -0.108588
     28 H                     0.092792
     29 C                    -0.030865
     30 C                    -0.008410
     31 C                    -0.004277
     32 C                     0.024261
     33 C                    -0.007008
     34 C                     0.001069
     35 C                     0.029841
     36 C                    -0.001958
     37 C                     0.022437
     38 C                    -0.017043
     39 C                    -0.098823
     40 C                     0.034343
     41 C                    -0.013861
     42 C                     0.009933
     43 C                     0.003819
     44 C                    -0.012993
     45 C                    -0.086210
     46 C                     0.030697
     47 C                     0.000590
     48 C                     0.006011
     49 C                    -0.004919
     50 C                    -0.011305
     51 C                    -0.038822
     52 C                    -0.002328
     53 C                     0.015028
     54 C                     0.047187
     55 C                    -0.026979
     56 C                    -0.015408
     57 C                    -0.004550
     58 C                    -0.022243
     59 C                     0.013661
     60 C                     0.014757
     61 C                     0.041637
     62 C                     0.000526
     63 C                    -0.023413
     64 C                    -0.002372
     65 C                    -0.022651
     66 C                     0.013775
     67 C                    -0.012746
     68 C                     0.023636
     69 C                     0.014995
     70 C                     0.026849
     71 C                    -0.013509
     72 C                    -0.024423
     73 C                    -0.001431
     74 C                    -0.037392
     75 C                    -0.013526
     76 C                    -0.003543
     77 C                     0.022996
     78 C                     0.006275
     79 C                    -0.007747
     80 C                     0.023306
     81 C                     0.031467
     82 C                    -0.020609
     83 C                    -0.021965
     84 C                     0.017001
     85 C                    -0.016564
     86 C                     0.028584
     87 C                    -0.001654
     88 C                     0.012731
     89 O                    -0.489596
     90 C                    -0.070586
     91 H                     0.122795
     92 H                     0.116531
     93 H                     0.122671
     94 O                    -0.451718
     95 C                     0.597193
     96 C                    -0.273892
     97 H                     0.135973
     98 H                     0.138173
     99 C                    -0.181709
    100 H                     0.126078
    101 H                     0.115851
    102 C                    -0.183203
    103 H                     0.103090
    104 H                     0.103242
    105 C                     0.024314
    106 C                     0.103261
    107 C                    -0.111985
    108 H                     0.094879
    109 C                    -0.097795
    110 H                     0.097372
    111 C                    -0.085274
    112 H                     0.087870
    113 C                    -0.082048
    114 H                     0.093698
    115 C                    -0.121101
    116 H                     0.087137
    117 C                    -0.015670
    118 C                     0.001897
    119 C                     0.011799
    120 C                    -0.013639
    121 C                     0.011748
    122 C                    -0.010380
    123 C                     0.016966
    124 C                    -0.003861
    125 C                     0.046820
    126 C                    -0.026513
    127 C                    -0.089310
    128 C                    -0.009724
    129 C                    -0.002087
    130 C                    -0.005908
    131 C                     0.012802
    132 C                     0.017292
    133 C                    -0.086645
    134 C                     0.020288
    135 C                    -0.015725
    136 C                    -0.000848
    137 C                     0.001885
    138 C                     0.007907
    139 C                     0.026919
    140 C                    -0.003856
    141 C                     0.019305
    142 C                    -0.006994
    143 C                    -0.008422
    144 C                    -0.023752
    145 C                     0.023259
    146 C                    -0.009625
    147 C                    -0.015424
    148 C                     0.002781
    149 C                    -0.015084
    150 C                    -0.028183
    151 C                     0.006548
    152 C                    -0.029223
    153 C                     0.003364
    154 C                    -0.018666
    155 C                     0.007146
    156 C                    -0.007076
    157 C                    -0.008290
    158 C                     0.034858
    159 C                     0.032271
    160 C                     0.048977
    161 C                    -0.008550
    162 C                     0.002833
    163 C                    -0.002464
    164 C                    -0.009146
    165 C                    -0.022617
    166 C                    -0.009707
    167 C                    -0.011567
    168 C                    -0.012038
    169 C                    -0.011526
    170 C                    -0.000210
    171 C                    -0.010219
    172 C                    -0.013666
    173 C                     0.039386
    174 C                     0.014247
    175 C                     0.024241
    176 C                    -0.007819
  ----------------------------------------
  Sum of atomic charges =     0.000000

                    Cartesian Multipole Moments
 -----------------------------------------------------------------
    Charge (ESU x 10^10)
                 0.0000
    Dipole Moment (Debye)
         X       3.2778      Y      -2.1224      Z       3.7491
       Tot       5.4133
    Quadrupole Moments (Debye-Ang)
        XX    -782.7970     XY      19.5074     YY    -789.3184
        XZ      10.2091     YZ      -1.6481     ZZ    -786.6941

 Total job time:  861.79s(wall), 8262.77s(cpu)
        *  Thank you very much for using Q-Chem.  Have a nice day.  *
