 Q-Chem 4.4, Q-Chem, Inc., Pleasanton, CA (2016)
 Q-Chem 4.4.2 for Intel X86 Linux

User input:
--------------------------------------------------------------
$comment
SP
$end

$rem
MEM_STATIC 5000
MEM_TOTAL 20000
JOBTYPE SP
EXCHANGE B3LYP
BASIS 6-31g(d,p)
$end

$molecule
0 1
O          -7.774000     13.022000     -4.706000
C          -7.023000     14.061000     -4.014000
H          -6.217000     14.414000     -4.668000
H          -6.571000     13.697000     -3.082000
H          -7.678000     14.886000     -3.708000
O          -5.957000     11.744000     -4.906000
C          -7.131000     11.919000     -5.047000
C          -8.060000     10.916000     -5.686000
H          -8.889000     11.464000     -6.151000
H          -8.413000     10.214000     -4.921000
C          -7.306000     10.111000     -6.740000
H          -7.034000     10.742000     -7.595000
H          -6.354000      9.791000     -6.298000
C          -8.342000      8.991000     -7.270000
H          -8.670000      8.520000     -6.334000
H          -9.334000      9.337000     -7.587000
C          -7.864000      8.078000     -8.468000
C          -6.628000      7.320000     -8.088000
C          -6.776000      5.992000     -7.660000
H          -7.726000      5.470000     -7.595000
C          -5.684000      5.207000     -7.394000
H          -5.802000      4.190000     -7.033000
C          -4.389000      5.807000     -7.220000
H          -3.527000      5.233000     -6.894000
C          -4.241000      7.160000     -7.545000
H          -3.247000      7.580000     -7.421000
C          -5.301000      7.920000     -8.098000
H          -5.155000      8.971000     -8.333000
C          -6.037000      8.283000    -13.582000
C          -6.922000      6.015000    -13.459000
C         -10.598000      6.674000    -16.121000
C          -9.564000     11.550000    -12.256000
C         -12.835000      7.106000    -13.300000
C          -6.241000      7.115000    -12.853000
C         -12.138000     10.721000    -12.858000
C          -8.271000      7.503000    -16.354000
C          -9.921000      5.871000    -10.797000
C         -10.357000     11.058000    -11.261000
C          -8.764000      7.559000     -9.542000
C         -10.913000      6.813000    -10.356000
C         -11.889000      9.403000    -10.802000
C         -12.830000      9.618000    -13.461000
C          -7.599000      6.179000    -11.300000
C         -12.152000      8.198000    -15.418000
C          -7.835000      8.724000     -9.829000
C          -8.438000     10.003000    -10.260000
C         -12.368000      7.027000    -14.635000
C          -9.123000     10.765000    -15.719000
C         -10.138000      9.024000    -16.514000
C          -8.750000      8.778000    -16.586000
C          -7.162000      7.278000    -15.479000
C          -7.676000     10.511000    -11.291000
C          -8.671000      6.308000    -10.355000
C          -7.371000      6.101000    -14.795000
C         -11.633000     10.577000    -11.521000
C          -7.713000      5.437000    -12.474000
C         -12.079000      6.983000    -11.131000
C          -7.833000     11.248000    -13.645000
C          -9.186000      6.475000    -16.133000
C         -10.279000      7.838000     -9.658000
C          -7.026000      9.648000    -15.141000
C         -12.511000      8.314000    -11.394000
C         -10.074000      5.198000    -11.999000
C         -11.472000     10.471000    -15.068000
C         -11.358000     11.218000    -13.890000
C         -11.217000      5.329000    -12.755000
C          -8.228000     11.346000    -12.264000
C          -9.821000     10.182000    -10.279000
C          -8.999000     11.396000    -14.445000
C          -6.758000      8.496000    -10.834000
C          -9.421000      4.932000    -14.225000
C         -10.720000      9.145000    -10.015000
C         -12.236000      6.264000    -12.322000
C          -6.842000     10.388000    -13.962000
C         -11.407000      6.131000    -15.078000
C          -6.478000      8.388000    -14.881000
C         -11.044000      7.967000    -16.325000
C          -8.977000      4.894000    -12.850000
C         -10.828000      5.215000    -14.146000
C          -6.696000      7.216000    -11.493000
C          -6.663000      9.608000    -11.691000
C         -10.376000     10.279000    -15.943000
C          -8.633000      5.623000    -15.162000
C         -12.967000      8.412000    -12.690000
C         -10.055000     11.622000    -13.589000
C         -12.381000      9.451000    -14.798000
C          -6.272000      9.512000    -12.984000
C          -8.087000      9.861000    -16.002000
O          -7.268000     17.756000    -13.801000
C          -6.114000     18.301000    -14.468000
H          -5.374000     17.524000    -14.693000
H          -5.689000     18.988000    -13.726000
H          -6.453000     18.866000    -15.346000
O          -7.180000     15.670000    -14.738000
C          -7.716000     16.498000    -14.073000
C          -9.013000     16.152000    -13.414000
H          -9.495000     15.368000    -14.011000
H          -9.663000     17.032000    -13.341000
C          -8.952000     15.496000    -12.024000
H          -9.953000     15.268000    -11.638000
H          -8.449000     14.522000    -12.056000
C          -8.212000     16.302000    -10.918000
H          -7.445000     16.906000    -11.418000
H          -8.868000     17.015000    -10.402000
C          -7.612000     15.427000     -9.781000
C          -8.604000     14.784000     -8.802000
C          -8.745000     15.212000     -7.459000
H          -8.176000     16.104000     -7.212000
C          -9.625000     14.570000     -6.549000
H          -9.727000     14.867000     -5.509000
C         -10.287000     13.454000     -6.914000
H         -11.056000     12.986000     -6.305000
C         -10.180000     12.986000     -8.243000
H         -10.806000     12.120000     -8.436000
C          -9.368000     13.656000     -9.206000
H          -9.201000     13.194000    -10.175000
C          -3.403000     15.240000     -6.326000
C          -3.834000     12.940000     -6.736000
C          -0.217000     12.098000     -9.286000
C          -2.667000     17.752000    -10.701000
C          -1.903000     12.402000    -12.332000
C          -4.283000     14.226000     -6.617000
C          -1.493000     16.038000    -12.576000
C          -0.411000     13.364000     -7.217000
C          -5.463000     12.474000    -10.486000
C          -3.448000     17.186000    -11.646000
C          -6.399000     14.602000    -10.207000
C          -5.285000     13.219000    -11.720000
C          -3.822000     15.241000    -12.824000
C          -1.118000     14.658000    -12.762000
C          -5.667000     13.285000     -8.184000
C           0.154000     13.208000    -11.239000
C          -6.210000     15.783000     -9.389000
C          -5.291000     16.870000    -10.035000
C          -0.753000     12.206000    -11.456000
C           0.091000     16.481000     -8.881000
C           0.738000     14.305000     -9.146000
C           0.354000     14.422000     -7.799000
C          -1.558000     13.674000     -6.462000
C          -4.374000     17.340000     -9.005000
C          -6.117000     13.298000     -9.578000
C          -2.480000     12.625000     -6.630000
C          -2.914000     16.298000    -12.585000
C          -4.704000     12.345000     -7.714000
C          -4.122000     12.889000    -12.482000
C          -2.036000     17.568000     -8.550000
C          -0.682000     12.187000     -7.939000
C          -5.703000     14.500000    -11.490000
C          -1.250000     16.052000     -6.875000
C          -3.384000     13.917000    -13.093000
C          -4.478000     11.557000    -10.024000
C           0.244000     15.641000    -11.124000
C          -0.708000     16.591000    -11.585000
C          -3.371000     11.274000    -10.771000
C          -3.121000     17.835000     -9.370000
C          -4.688000     16.724000    -11.277000
C          -0.873000     17.391000     -9.300000
C          -5.615000     15.721000     -8.016000
C          -2.770000     11.189000     -8.589000
C          -4.894000     15.517000    -11.974000
C          -3.186000     11.942000    -12.015000
C          -2.208000     16.926000     -7.320000
C          -0.957000     11.495000    -10.268000
C          -1.999000     14.986000     -6.285000
C           0.459000     13.159000     -9.886000
C          -4.088000     11.517000     -8.683000
C          -2.275000     11.072000     -9.931000
C          -5.423000     14.453000     -7.456000
C          -4.634000     16.687000     -7.804000
C           0.646000     15.578000     -9.783000
C          -1.917000     11.653000     -7.578000
C          -2.025000     13.641000    -12.963000
C          -1.276000     17.492000    -10.632000
C          -0.012000     14.486000    -11.893000
C          -3.513000     16.509000     -6.935000
C          -0.154000     15.750000     -7.628000
$end

--------------------------------------------------------------

             Standard Nuclear Orientation (Angstroms)
    I     Atom           X                Y                Z
 ----------------------------------------------------------------
    1      O       2.2110237630    -4.0273285911     4.4682700716
    2      C       3.6411862904    -4.1065772000     4.7342415045
    3      H       4.1738732725    -3.4789578091     4.0101562339
    4      H       4.0249658994    -5.1313107187     4.6444727606
    5      H       3.8695871295    -3.8076464762     5.7646586429
    6      O       2.4806295143    -4.8187381216     2.4004797791
    7      C       1.7770701479    -4.4523203883     3.2946409853
    8      C       0.2728661962    -4.3729539996     3.2027581896
    9      H      -0.0703722577    -3.5772054463     3.8756189506
   10      H      -0.1559264970    -5.3463561340     3.4697097040
   11      C      -0.1419524980    -4.0625195776     1.7678320868
   12      H       0.1545205251    -3.0449459651     1.4853118404
   13      H       0.4258183457    -4.7273812829     1.1047610636
   14      C      -1.7557726223    -4.1240014922     1.7478175747
   15      H      -1.9536810137    -5.1105406781     2.1872418609
   16      H      -2.2882237256    -3.5414292213     2.5102966706
   17      C      -2.4746284951    -3.7206787380     0.3995468340
   18      C      -2.0343927787    -4.6180047544    -0.7174395286
   19      C      -2.8651797612    -5.6945837701    -1.0630442342
   20      H      -3.8134305641    -5.9172756639    -0.5830049282
   21      C      -2.5777665007    -6.4952036293    -2.1381472333
   22      H      -3.2052912676    -7.3462014761    -2.3842149712
   23      C      -1.2665817996    -6.4688472075    -2.7275545786
   24      H      -0.9682104193    -7.1699584308    -3.5009972539
   25      C      -0.3826816427    -5.4623579752    -2.3227855853
   26      H       0.5933380468    -5.4571016375    -2.7994090600
   27      C      -0.7673265167    -4.4455115193    -1.4144461080
   28      H      -0.0541787355    -3.6819809482    -1.1151413987
   29      C      -2.9489979992     0.3340511714    -3.1875256402
   30      C      -4.9978225534    -0.9256018502    -3.5847286253
   31      C      -7.9125792393     2.0979831382    -1.7420055641
   32      C      -2.6164085047     1.5460377222     1.6386288154
   33      C      -8.0941080730     0.3276847561     1.4174128825
   34      C      -3.6033657293    -0.8912053285    -3.2760150933
   35      C      -5.0708866797     1.9071998954     2.8716007424
   36      C      -5.9156601967     2.4510787425    -3.1717247085
   37      C      -6.1195110853    -2.7904417504    -0.2135021446
   38      C      -3.1125376577     0.5600644987     2.4402837699
   39      C      -3.7911475632    -3.0177793111     0.3250690601
   40      C      -5.9864703648    -2.4921528146     1.1862238563
   41      C      -5.0583984690    -0.5453334889     2.9773601071
   42      C      -6.4734989068     1.8700996337     2.5709605736
   43      C      -4.5686796701    -2.5089011050    -2.0177232470
   44      C      -7.6676529154     2.5824856211     0.4799236517
   45      C      -2.5066641822    -2.2496904643     0.0745157382
   46      C      -2.2023561732    -1.1003844699     0.9529822241
   47      C      -8.3127840671     1.3129951332     0.4234816623
   48      C      -4.0757752498     3.8763212781    -0.6511533255
   49      C      -6.1835062822     3.6796215290    -1.1117074522
   50      C      -5.4622344366     3.4194296398    -2.2967437831
   51      C      -5.0283244223     1.4654462222    -3.7077235502
   52      C      -1.7286427102    -0.0719756271     0.1658101926
   53      C      -4.8516545247    -3.0687396791    -0.7272365161
   54      C      -5.7078963387     0.2725428753    -3.8174031536
   55      C      -4.3623737152     0.6683533207     3.0346913408
   56      C      -5.5534991962    -1.9519921772    -2.8312458017
   57      C      -6.9124761206    -1.6116895658     1.7831985691
   58      C      -2.1734735144     2.2855265431    -0.4287005919
   59      C      -7.1230005180     1.8120635025    -2.8945264554
   60      C      -4.6402836898    -2.5689314428     1.5350382455
   61      C      -3.2398192366     2.5033873006    -2.4938176567
   62      C      -6.4018571713    -0.5926692602     2.6365565862
   63      C      -7.0938386283    -2.1668083592    -0.9769870707
   64      C      -5.5826160840     3.4852669377     1.2474106590
   65      C      -4.5930484080     2.9279001337     2.0652046798
   66      C      -8.0240238286    -1.3267761971    -0.4075597620
   67      C      -1.8786131510     1.2639392575     0.5419727743
   68      C      -2.9972078351    -0.8041572174     2.0600284067
   69      C      -3.1229898759     3.1740493022     0.1461089295
   70      C      -2.3076274324    -1.6971210930    -1.2955169119
   71      C      -7.6304243040    -0.5829689961    -2.6066403112
   72      C      -4.1848316500    -1.4854391180     2.3405112876
   73      C      -7.9161954984    -1.0223692492     1.0051625962
   74      C      -2.2086338497     1.9321533351    -1.7310297080
   75      C      -8.4362127321     1.0462258364    -0.9315775641
   76      C      -3.6280650463     1.5116062274    -3.3999851323
   77      C      -7.4155948384     3.0492782832    -0.8699820252
   78      C      -6.8778366266    -1.7853482539    -2.3289698085
   79      C      -8.3370242073    -0.3052295076    -1.3861664880
   80      C      -3.3533055040    -1.8861381011    -2.2688385140
   81      C      -1.8074009478    -0.3845763950    -1.2117441257
   82      C      -5.3011129560     3.9493975532    -0.0598933457
   83      C      -6.9844125895     0.4680994374    -3.2806714772
   84      C      -7.0943702521     0.5804553270     2.4331841795
   85      C      -3.3623096369     2.7393350125     1.4316817739
   86      C      -6.7633470672     2.8099388923     1.5463878763
   87      C      -2.0724109602     0.5667709333    -2.1383799519
   88      C      -4.0987043912     3.4645889958    -1.9929997333
   89      O       2.4797638806     5.9963652255     2.2684614387
   90      C       3.3641577756     6.6971694277     1.3738381053
   91      H       3.2521861748     6.3479738944     0.3406494294
   92      H       4.3634985404     6.4217388218     1.7324660701
   93      H       3.2076022181     7.7760211191     1.5026767074
   94      O       0.8155484598     5.5781428351     0.7543326247
   95      C       1.2510735709     5.5700035509     1.8612909029
   96      C       0.4026591579     5.0061813126     2.9560527344
   97      H      -0.6474207143     5.1160826422     2.6583230590
   98      H       0.5885442774     5.5256978297     3.9035643759
   99      C       0.4973444682     3.4941628757     3.2224958585
  100      H      -0.1748147293     3.1811024810     4.0306890300
  101      H       0.1668636143     2.9074792112     2.3568783431
  102      C       1.9114980601     2.9472337984     3.5710789950
  103      H       2.6403910811     3.5951768081     3.0690931185
  104      H       2.1389080450     3.0118162410     4.6430280642
  105      C       2.1243391934     1.4486234069     3.2143444352
  106      C       1.3913320688     0.4167876716     4.0826586471
  107      C       2.0593555679    -0.4214050710     5.0088829887
  108      H       3.1146440050    -0.1960443626     5.1354249405
  109      C       1.3760840967    -1.4109016228     5.7630054396
  110      H       1.8751554167    -2.0802732929     6.4580467223
  111      C       0.0687156883    -1.6536297044     5.5421074469
  112      H      -0.5322691505    -2.3139298392     6.1618549403
  113      C      -0.6433229217    -0.8449219044     4.6279374890
  114      H      -1.6995717306    -1.0923600249     4.5810991479
  115      C      -0.0047619243     0.2124590638     3.9139358498
  116      H      -0.5460348029     0.7226499373     3.1220880466
  117      C       5.9840451043    -2.0269320080     1.5678755349
  118      C       4.0231568226    -2.9283027657     0.5747446756
  119      C       4.9327811993    -1.7894968664    -3.6878669203
  120      C       6.5930194173     2.8625770730     0.2585565392
  121      C       2.9512269707     1.0891060862    -3.6731740512
  122      C       4.6278119000    -2.2444001178     1.5926972312
  123      C       5.5573695920     3.2781750198    -2.3078426476
  124      C       6.3814954212    -2.7429450111    -1.9810228329
  125      C       1.3166453888     0.0852741747    -0.1508219187
  126      C       5.3689050410     3.4181909946     0.1313591972
  127      C       2.2195957831     1.1750431962     1.7144944258
  128      C       1.4933029379     1.4887441780    -0.4802594094
  129      C       3.4102484790     3.3362370073    -1.0800585739
  130      C       4.8177971275     2.6058198832    -3.3473579866
  131      C       2.5379857491    -1.3128776113     1.4466887409
  132      C       5.2249104603     0.3812696899    -4.3094640992
  133      C       3.4202458086     1.1458568147     2.5251692504
  134      C       4.5191345131     2.1646752648     2.0803113169
  135      C       3.8851473291     0.1136125917    -4.2249867063
  136      C       8.1995612631     0.3024626565    -1.5851469273
  137      C       7.0799490380    -0.7880753764    -3.2527815587
  138      C       7.3826587366    -1.7726451181    -2.2964640057
  139      C       6.1027128546    -3.0361018157    -0.6326633228
  140      C       5.7985773692     1.4679699239     2.0981058676
  141      C       1.7580743943    -0.1082444024     1.1525763295
  142      C       4.7391214927    -3.3682424145    -0.5377411430
  143      C       4.7951119321     3.6166984184    -1.1283142807
  144      C       2.7096390519    -2.3504364145     0.4844643005
  145      C       1.7667760341     1.7742967893    -1.8534983441
  146      C       7.6456066561     0.9199092277     0.6791748310
  147      C       5.1636813025    -2.7792509659    -2.6850573846
  148      C       2.1542467982     2.0751269314     0.5627619136
  149      C       7.7436381526    -1.4025955981     0.1152261100
  150      C       2.7199653698     2.7549447927    -2.1767762178
  151      C       1.5152326065    -0.9356907192    -1.1217759868
  152      C       6.9463080426     1.6427654818    -3.1320802490
  153      C       6.7917224142     2.6771590155    -2.1690338841
  154      C       1.7885969328    -0.6286873646    -2.4235316803
  155      C       6.8214757228     1.8810887501     1.2429621407
  156      C       4.3779472215     3.0186550001     0.9948281248
  157      C       8.0253042737     1.2816335329    -0.6136450506
  158      C       4.2552056367    -0.0880411479     2.6779301857
  159      C       2.8984562354    -2.5371406988    -1.9179941448
  160      C       3.1916333558     2.9366039298     0.2391687876
  161      C       1.9149863698     0.7387716366    -2.8004488996
  162      C       7.5401221739    -0.4231966985     1.0527889302
  163      C       3.6978133215    -1.2297896641    -3.8805199462
  164      C       6.7504719035    -2.3860096977     0.4184991065
  165      C       5.8711781022    -0.7912161046    -3.9438821018
  166      C       2.2190238469    -2.1043871795    -0.8204332030
  167      C       2.6703469958    -1.5711120076    -2.9545426206
  168      C       3.7342088179    -1.2830137021     2.1691169495
  169      C       5.6177585673     0.1538333049     2.5185336348
  170      C       7.6426428966     0.4595819158    -2.8509247401
  171      C       4.1251834805    -3.2133616132    -1.8642210918
  172      C       3.4736983166     2.3166639884    -3.2629408376
  173      C       7.3568260919     2.4789485483    -0.8713419159
  174      C       5.7363668675     1.6552612172    -3.8578957967
  175      C       6.5421712056    -0.8020505034     1.9939067014
  176      C       7.9949977581    -1.0999348946    -1.1903939907
 ----------------------------------------------------------------

    9   -5804.2889578295      7.39E-06 Convergence criterion met
 Total energy in the final basis set = -5804.2889578295

                    Orbital Energies (a.u.)
 --------------------------------------------------------------

 Alpha MOs
 -- Occupied --
-19.197 -19.194 -19.135 -19.132 -10.314 -10.310 -10.248 -10.248
-10.244 -10.242 -10.240 -10.235 -10.233 -10.231 -10.231 -10.230
-10.226 -10.226 -10.226 -10.226 -10.225 -10.224 -10.224 -10.223
-10.223 -10.222 -10.222 -10.221 -10.221 -10.221 -10.221 -10.221
-10.220 -10.220 -10.220 -10.219 -10.219 -10.219 -10.219 -10.219
-10.219 -10.219 -10.219 -10.219 -10.219 -10.218 -10.218 -10.218
-10.218 -10.218 -10.218 -10.218 -10.218 -10.217 -10.217 -10.217
-10.217 -10.217 -10.217 -10.217 -10.217 -10.217 -10.217 -10.216
-10.216 -10.216 -10.216 -10.216 -10.216 -10.216 -10.215 -10.215
-10.215 -10.215 -10.215 -10.215 -10.215 -10.215 -10.215 -10.214
-10.214 -10.214 -10.214 -10.214 -10.214 -10.214 -10.214 -10.214
-10.213 -10.213 -10.213 -10.213 -10.212 -10.212 -10.212 -10.212
-10.212 -10.212 -10.212 -10.211 -10.211 -10.211 -10.211 -10.211
-10.211 -10.211 -10.211 -10.211 -10.211 -10.210 -10.210 -10.210
-10.210 -10.210 -10.210 -10.210 -10.210 -10.209 -10.209 -10.209
-10.209 -10.209 -10.208 -10.208 -10.208 -10.208 -10.208 -10.207
-10.207 -10.206 -10.206 -10.206 -10.205 -10.204 -10.204 -10.201
-10.200 -10.199 -10.199 -10.198 -10.198 -10.194 -10.194 -10.193
-10.193 -10.192 -10.191 -10.190  -1.111  -1.099  -1.025  -1.021
 -0.983  -0.983  -0.966  -0.965  -0.963  -0.962  -0.960  -0.959
 -0.937  -0.934  -0.925  -0.925  -0.924  -0.923  -0.922  -0.921
 -0.920  -0.920  -0.896  -0.895  -0.889  -0.887  -0.885  -0.883
 -0.873  -0.872  -0.855  -0.845  -0.842  -0.841  -0.840  -0.839
 -0.837  -0.837  -0.819  -0.818  -0.804  -0.801  -0.799  -0.798
 -0.795  -0.795  -0.794  -0.792  -0.791  -0.790  -0.783  -0.782
 -0.773  -0.771  -0.769  -0.767  -0.766  -0.765  -0.765  -0.758
 -0.746  -0.746  -0.744  -0.739  -0.735  -0.732  -0.717  -0.717
 -0.715  -0.713  -0.713  -0.711  -0.711  -0.710  -0.708  -0.708
 -0.707  -0.706  -0.706  -0.703  -0.703  -0.700  -0.672  -0.671
 -0.658  -0.658  -0.657  -0.657  -0.647  -0.645  -0.633  -0.629
 -0.628  -0.626  -0.624  -0.622  -0.621  -0.621  -0.618  -0.617
 -0.616  -0.615  -0.614  -0.612  -0.611  -0.610  -0.609  -0.608
 -0.607  -0.601  -0.601  -0.598  -0.565  -0.564  -0.562  -0.562
 -0.561  -0.560  -0.558  -0.557  -0.556  -0.556  -0.554  -0.554
 -0.537  -0.534  -0.533  -0.531  -0.529  -0.528  -0.527  -0.525
 -0.522  -0.520  -0.520  -0.518  -0.515  -0.514  -0.513  -0.512
 -0.507  -0.506  -0.505  -0.500  -0.496  -0.493  -0.488  -0.486
 -0.484  -0.483  -0.482  -0.481  -0.480  -0.479  -0.478  -0.475
 -0.474  -0.472  -0.470  -0.469  -0.468  -0.468  -0.466  -0.465
 -0.464  -0.463  -0.463  -0.462  -0.461  -0.461  -0.457  -0.457
 -0.456  -0.454  -0.453  -0.452  -0.448  -0.447  -0.445  -0.444
 -0.442  -0.441  -0.441  -0.439  -0.437  -0.436  -0.433  -0.430
 -0.430  -0.429  -0.427  -0.426  -0.425  -0.425  -0.424  -0.423
 -0.423  -0.421  -0.421  -0.420  -0.420  -0.419  -0.418  -0.417
 -0.416  -0.416  -0.415  -0.415  -0.415  -0.414  -0.413  -0.412
 -0.412  -0.410  -0.409  -0.408  -0.405  -0.399  -0.398  -0.397
 -0.396  -0.395  -0.390  -0.389  -0.388  -0.385  -0.385  -0.383
 -0.378  -0.376  -0.374  -0.372  -0.370  -0.368  -0.366  -0.365
 -0.364  -0.363  -0.362  -0.362  -0.359  -0.359  -0.358  -0.357
 -0.356  -0.355  -0.354  -0.354  -0.353  -0.351  -0.350  -0.350
 -0.349  -0.348  -0.346  -0.346  -0.344  -0.344  -0.343  -0.342
 -0.342  -0.340  -0.339  -0.338  -0.338  -0.335  -0.335  -0.334
 -0.332  -0.331  -0.331  -0.329  -0.327  -0.327  -0.324  -0.321
 -0.308  -0.306  -0.305  -0.302  -0.288  -0.286  -0.274  -0.272
 -0.271  -0.270  -0.269  -0.267  -0.266  -0.265  -0.264  -0.263
 -0.263  -0.262  -0.259  -0.259  -0.258  -0.256  -0.254  -0.252
 -0.250  -0.244  -0.242  -0.237  -0.223  -0.220  -0.214  -0.212
 -0.211  -0.209  -0.208  -0.207  -0.197  -0.195

          Ground-State Mulliken Net Atomic Charges

     Atom                 Charge (a.u.)
  ----------------------------------------
      1 O                    -0.452256
      2 C                    -0.098078
      3 H                     0.135984
      4 H                     0.129579
      5 H                     0.118464
      6 O                    -0.479198
      7 C                     0.615433
      8 C                    -0.277129
      9 H                     0.135935
     10 H                     0.128172
     11 C                    -0.190499
     12 H                     0.112737
     13 H                     0.142452
     14 C                    -0.183123
     15 H                     0.101853
     16 H                     0.098894
     17 C                     0.001987
     18 C                     0.070097
     19 C                    -0.093307
     20 H                     0.088309
     21 C                    -0.095541
     22 H                     0.084785
     23 C                    -0.085323
     24 H                     0.091091
     25 C                    -0.097058
     26 H                     0.090356
     27 C                    -0.096086
     28 H                     0.098026
     29 C                     0.008045
     30 C                    -0.002858
     31 C                    -0.008103
     32 C                     0.012179
     33 C                    -0.019044
     34 C                    -0.021307
     35 C                    -0.007788
     36 C                    -0.002266
     37 C                     0.013957
     38 C                    -0.005136
     39 C                    -0.083877
     40 C                     0.003425
     41 C                    -0.015459
     42 C                    -0.030087
     43 C                     0.020330
     44 C                    -0.022930
     45 C                    -0.091378
     46 C                     0.047829
     47 C                     0.027161
     48 C                    -0.039972
     49 C                     0.010604
     50 C                    -0.015832
     51 C                    -0.013876
     52 C                     0.019216
     53 C                     0.008612
     54 C                     0.015796
     55 C                    -0.000081
     56 C                    -0.007714
     57 C                    -0.002637
     58 C                    -0.007883
     59 C                     0.008977
     60 C                     0.011601
     61 C                     0.031894
     62 C                     0.012279
     63 C                     0.038260
     64 C                     0.018463
     65 C                    -0.023174
     66 C                    -0.000262
     67 C                    -0.022518
     68 C                    -0.009626
     69 C                     0.022532
     70 C                     0.008796
     71 C                    -0.015211
     72 C                     0.002653
     73 C                    -0.011184
     74 C                    -0.025206
     75 C                     0.010314
     76 C                    -0.006868
     77 C                    -0.010866
     78 C                    -0.024766
     79 C                    -0.036838
     80 C                     0.017781
     81 C                     0.020277
     82 C                     0.037013
     83 C                     0.012944
     84 C                     0.004550
     85 C                    -0.007961
     86 C                     0.010344
     87 C                     0.013338
     88 C                     0.015766
     89 O                    -0.475057
     90 C                    -0.096352
     91 H                     0.142438
     92 H                     0.129216
     93 H                     0.128063
     94 O                    -0.452557
     95 C                     0.600012
     96 C                    -0.243319
     97 H                     0.136791
     98 H                     0.113169
     99 C                    -0.199499
    100 H                     0.113044
    101 H                     0.115404
    102 C                    -0.192234
    103 H                     0.120766
    104 H                     0.106118
    105 C                     0.000226
    106 C                     0.083625
    107 C                    -0.120790
    108 H                     0.087777
    109 C                    -0.063923
    110 H                     0.089812
    111 C                    -0.087146
    112 H                     0.093526
    113 C                    -0.099622
    114 H                     0.091210
    115 C                    -0.102050
    116 H                     0.093730
    117 C                    -0.013251
    118 C                     0.064989
    119 C                     0.009260
    120 C                    -0.010488
    121 C                    -0.002603
    122 C                     0.014910
    123 C                    -0.022037
    124 C                    -0.007330
    125 C                    -0.025672
    126 C                     0.007175
    127 C                    -0.065824
    128 C                     0.004877
    129 C                     0.018630
    130 C                     0.009289
    131 C                     0.001221
    132 C                    -0.003391
    133 C                    -0.088756
    134 C                    -0.003497
    135 C                    -0.005576
    136 C                    -0.012767
    137 C                    -0.002230
    138 C                    -0.020429
    139 C                     0.022819
    140 C                    -0.013525
    141 C                     0.043507
    142 C                    -0.027131
    143 C                    -0.028378
    144 C                    -0.033339
    145 C                    -0.005095
    146 C                     0.000203
    147 C                     0.024238
    148 C                     0.060706
    149 C                     0.004971
    150 C                    -0.031688
    151 C                     0.021586
    152 C                     0.016490
    153 C                     0.005845
    154 C                    -0.005886
    155 C                     0.008307
    156 C                     0.024180
    157 C                     0.015688
    158 C                     0.011206
    159 C                     0.024149
    160 C                     0.000055
    161 C                     0.003953
    162 C                     0.018578
    163 C                    -0.018177
    164 C                    -0.022938
    165 C                     0.018303
    166 C                    -0.013442
    167 C                    -0.008312
    168 C                    -0.000353
    169 C                     0.021289
    170 C                     0.003420
    171 C                    -0.040421
    172 C                     0.033205
    173 C                    -0.018552
    174 C                    -0.028367
    175 C                    -0.039773
    176 C                     0.005024
  ----------------------------------------
  Sum of atomic charges =     0.000000

                    Cartesian Multipole Moments
 -----------------------------------------------------------------
    Charge (ESU x 10^10)
                 0.0000
    Dipole Moment (Debye)
         X       1.3858      Y      -0.6979      Z       4.3404
       Tot       4.6094
    Quadrupole Moments (Debye-Ang)
        XX    -819.6798     XY      15.4434     YY    -791.2700
        XZ       9.6447     YZ      -1.3717     ZZ    -789.0501

 Total job time:  922.93s(wall), 8901.12s(cpu)
        *  Thank you very much for using Q-Chem.  Have a nice day.  *
