 Q-Chem 4.4, Q-Chem, Inc., Pleasanton, CA (2016)
 Q-Chem 4.4.2 for Intel X86 Linux

User input:
--------------------------------------------------------------
$comment
SP
$end

$rem
MEM_STATIC 5000
MEM_TOTAL 20000
JOBTYPE SP
EXCHANGE B3LYP
BASIS 6-31g(d,p)
$end

$molecule
0 1
O         -11.316000    -16.395000     11.940000
C         -10.223000    -15.668000     11.321000
H         -10.399000    -15.299000     10.303000
H          -9.419000    -16.396000     11.158000
H          -9.838000    -14.877000     11.976000
O          -9.898000    -16.926000     13.648000
C         -10.987000    -16.960000     13.119000
C         -12.207000    -17.478000     13.861000
H         -12.694000    -16.583000     14.268000
H         -11.796000    -18.010000     14.728000
C         -13.005000    -18.372000     12.898000
H         -13.767000    -17.816000     12.337000
H         -12.406000    -18.977000     12.206000
C         -13.792000    -19.411000     13.718000
H         -13.204000    -20.234000     14.141000
H         -14.220000    -18.796000     14.519000
C         -15.021000    -20.011000     13.032000
C         -16.013000    -18.941000     12.631000
C         -16.130000    -18.514000     11.254000
H         -15.555000    -18.954000     10.444000
C         -16.984000    -17.505000     10.899000
H         -17.023000    -17.200000      9.857000
C         -17.739000    -16.886000     11.930000
H         -18.351000    -16.038000     11.637000
C         -17.631000    -17.315000     13.215000
H         -18.219000    -16.880000     14.018000
C         -16.800000    -18.372000     13.635000
H         -16.708000    -18.696000     14.667000
C         -19.059000    -23.645000     13.492000
C         -18.795000    -23.468000     11.138000
C         -16.942000    -27.554000     10.445000
C         -14.736000    -24.748000     15.805000
C         -13.679000    -26.285000     10.444000
C         -18.774000    -22.871000     12.403000
C         -13.158000    -26.338000     14.035000
C         -18.794000    -26.805000     11.914000
C         -14.971000    -22.500000     10.210000
C         -13.717000    -24.203000     14.982000
C         -14.930000    -21.327000     12.259000
C         -13.724000    -22.770000     10.947000
C         -12.559000    -24.145000     13.051000
C         -13.173000    -26.911000     12.708000
C         -17.129000    -21.921000     11.215000
C         -15.005000    -28.049000     11.456000
C         -15.622000    -21.273000     13.671000
C         -15.096000    -22.188000     14.685000
C         -14.697000    -27.269000     10.331000
C         -16.988000    -27.252000     14.843000
C         -16.984000    -28.177000     12.797000
C         -18.195000    -27.476000     12.989000
C         -19.442000    -25.571000     12.108000
C         -16.111000    -22.846000     15.381000
C         -15.731000    -21.725000     11.050000
C         -19.114000    -24.787000     10.941000
C         -12.883000    -24.961000     14.182000
C         -17.769000    -22.858000     10.385000
C         -13.177000    -24.092000     10.771000
C         -16.943000    -25.057000     15.944000
C         -18.153000    -26.825000     10.670000
C         -13.720000    -22.107000     12.151000
C         -18.800000    -25.646000     14.408000
C         -12.523000    -24.738000     11.749000
C         -15.650000    -23.479000      9.439000
C         -14.853000    -27.855000     13.878000
C         -14.200000    -26.972000     14.733000
C         -15.024000    -24.721000      9.289000
C         -15.942000    -24.085000     15.946000
C         -13.953000    -22.940000     14.458000
C         -16.366000    -26.309000     15.706000
C         -17.080000    -21.617000     13.702000
C         -17.282000    -25.039000      9.338000
C         -13.271000    -22.898000     13.207000
C         -13.770000    -24.995000      9.889000
C         -18.203000    -24.744000     15.289000
C         -15.897000    -27.006000      9.682000
C         -19.417000    -24.949000     13.354000
C         -16.369000    -28.228000     11.541000
C         -17.057000    -23.648000      9.491000
C         -16.026000    -25.667000      9.154000
C         -17.776000    -21.921000     12.476000
C         -17.348000    -22.490000     14.790000
C         -16.215000    -27.996000     13.936000
C         -18.376000    -25.581000     10.037000
C         -12.860000    -26.102000     11.563000
C         -14.955000    -26.130000     15.668000
C         -14.211000    -27.870000     12.609000
C         -18.347000    -23.462000     14.723000
C         -18.211000    -26.956000     14.271000
O          -8.301000    -29.745000      1.943000
C          -7.651000    -29.304000      0.773000
H          -6.923000    -30.074000      0.489000
H          -7.136000    -28.355000      0.964000
H          -8.337000    -29.035000     -0.040000
O          -9.650000    -27.870000      2.237000
C          -9.199000    -28.955000      2.598000
C          -9.654000    -29.603000      3.986000
H          -8.760000    -29.807000      4.589000
H         -10.048000    -30.605000      3.774000
C         -10.720000    -28.742000      4.761000
H         -10.857000    -29.053000      5.803000
H         -10.427000    -27.688000      4.843000
C         -12.087000    -28.785000      4.083000
H         -11.856000    -28.523000      3.044000
H         -12.390000    -29.839000      4.088000
C         -13.331000    -28.096000      4.764000
C         -13.798000    -28.952000      6.026000
C         -14.736000    -29.962000      5.769000
H         -14.917000    -30.154000      4.715000
C         -15.095000    -30.771000      6.838000
H         -15.786000    -31.597000      6.696000
C         -14.698000    -30.504000      8.146000
H         -15.126000    -30.993000      9.016000
C         -13.858000    -29.406000      8.400000
H         -13.449000    -29.314000      9.402000
C         -13.335000    -28.674000      7.323000
H         -12.624000    -27.868000      7.474000
C         -18.352000    -26.034000      3.639000
C         -17.662000    -24.706000      5.532000
C         -16.944000    -20.854000      3.306000
C         -14.769000    -25.825000      0.031000
C         -13.445000    -21.203000      3.135000
C         -17.668000    -25.900000      4.864000
C         -13.523000    -23.291000      0.208000
C         -18.631000    -22.503000      3.035000
C         -13.690000    -24.355000      5.649000
C         -13.511000    -25.686000      0.631000
C         -13.544000    -26.546000      4.786000
C         -12.699000    -24.249000      4.682000
C         -12.351000    -24.301000      2.027000
C         -13.441000    -22.064000      0.838000
C         -15.655000    -25.695000      5.888000
C         -15.375000    -20.775000      1.742000
C         -14.388000    -27.449000      3.899000
C         -14.212000    -27.341000      2.431000
C         -14.729000    -20.682000      2.965000
C         -17.470000    -23.685000     -0.009000
C         -17.491000    -21.671000      1.093000
C         -18.466000    -22.526000      1.654000
C         -18.852000    -23.642000      3.757000
C         -15.497000    -27.295000      1.828000
C         -14.260000    -25.622000      5.671000
C         -18.335000    -23.539000      5.020000
C         -12.957000    -24.435000      0.760000
C         -16.412000    -24.564000      6.141000
C         -12.500000    -23.081000      4.025000
C         -16.990000    -25.995000      0.410000
C         -17.948000    -21.620000      3.866000
C         -12.681000    -25.539000      4.053000
C         -18.719000    -24.933000      1.705000
C         -12.207000    -23.028000      2.707000
C         -14.422000    -23.240000      6.016000
C         -15.535000    -22.259000     -0.157000
C         -14.785000    -23.422000     -0.454000
C         -14.197000    -21.963000      5.403000
C         -15.716000    -26.619000      0.629000
C         -13.309000    -26.409000      1.842000
C         -16.757000    -24.873000     -0.296000
C         -15.854000    -27.276000      4.001000
C         -16.415000    -22.217000      5.694000
C         -12.553000    -25.541000      2.661000
C         -13.283000    -21.945000      4.319000
C         -18.028000    -26.034000      1.349000
C         -15.724000    -20.753000      3.961000
C         -18.924000    -24.888000      3.123000
C         -16.686000    -20.880000      1.903000
C         -15.783000    -23.323000      6.226000
C         -15.468000    -21.468000      5.146000
C         -16.408000    -26.482000      4.996000
C         -16.519000    -27.310000      2.770000
C         -16.919000    -22.374000      0.024000
C         -17.711000    -22.342000      5.100000
C         -12.818000    -21.913000      2.127000
C         -15.389000    -24.683000     -0.527000
C         -14.715000    -21.441000      0.679000
C         -17.790000    -26.737000      2.549000
C         -18.500000    -23.738000      0.954000
$end

--------------------------------------------------------------

             Standard Nuclear Orientation (Angstroms)
    I     Atom           X                Y                Z
 ----------------------------------------------------------------
    1      O       5.2704272974    -6.4843582255     4.7128905562
    2      C       4.7278172037    -7.2694041920     5.8063328806
    3      H       3.8378006233    -7.8693532887     5.5796335906
    4      H       4.3330813906    -6.5528174211     6.5368505310
    5      H       5.5024802562    -7.8677293406     6.3011410976
    6      O       6.6778182783    -5.4994171746     6.2159177526
    7      C       6.2590055274    -5.6485738338     5.0893006168
    8      C       6.9791672407    -5.0460276706     3.8953185282
    9      H       7.6179461211    -5.8514919169     3.5118711526
   10      H       7.6644929925    -4.3085014542     4.3312287185
   11      C       5.9215051727    -4.4410525341     2.9578938464
   12      H       5.5714644152    -5.1524345159     2.1990077257
   13      H       5.0597225491    -3.9758615798     3.4524826511
   14      C       6.5614826497    -3.2895895597     2.1604906563
   15      H       6.7348301589    -2.3598862202     2.7151115553
   16      H       7.5152343405    -3.7300016473     1.8452052214
   17      C       5.8781952573    -2.9321118059     0.8389896177
   18      C       5.8187633170    -4.1199860674    -0.0965249912
   19      C       4.5875609098    -4.8544826542    -0.2883644982
   20      H       3.6499913231    -4.5778697031     0.1857383866
   21      C       4.5463342197    -5.9647391284    -1.0877723549
   22      H       3.6060043783    -6.5001067217    -1.1850931104
   23      C       5.7549209989    -6.3754530290    -1.7096880156
   24      H       5.7155470896    -7.3013088034    -2.2760251769
   25      C       6.8972216540    -5.6604168635    -1.5341816183
   26      H       7.8281103337    -5.9344995112    -2.0221395759
   27      C       6.9930832478    -4.4900453144    -0.7562028320
   28      H       7.9145285479    -3.9354551251    -0.6084453251
   29      C       5.8997549377     0.4751327345    -3.4169732372
   30      C       3.6291177636    -0.2164528898    -3.3261043882
   31      C       1.8785772807     3.7042475307    -1.8520045846
   32      C       7.4952287336     2.3191756482     0.9772133882
   33      C       1.8520995551     2.6563165980     1.4884550680
   34      C       4.9871496417    -0.5084006644    -3.1599992562
   35      C       5.2772439546     3.5530048820     2.2846126930
   36      C       3.6440460180     3.2040696119    -3.5198799358
   37      C       2.5835637187    -1.1502743573     0.4759974260
   38      C       6.7212784755     1.6605270809     1.9671113944
   39      C       4.8281710315    -1.8230380752     0.7677815778
   40      C       3.1221989208    -0.6493262541     1.7527123970
   41      C       4.7510139726     1.2316575766     2.9707137744
   42      C       3.8637753053     3.8078825813     2.1214356855
   43      C       3.8897403133    -1.6079895807    -1.5455439359
   44      C       2.5686475674     4.5254998686     0.1148361809
   45      C       6.2756862082    -1.5943454341     0.1951355360
   46      C       7.0081807009    -0.4445271468     0.7275514678
   47      C       1.6202659631     3.5292694460     0.3923001926
   48      C       6.2188239765     4.4067351212    -1.5287495690
   49      C       4.0277698483     4.8416387020    -1.7565601981
   50      C       4.4828812107     4.1346837476    -2.8914057120
   51      C       4.1661735087     2.0114802940    -4.0541173382
   52      C       7.6334784667     0.2953689468    -0.2770188258
   53      C       3.6417284917    -1.7563103627    -0.1539491378
   54      C       3.1760305294     1.0029637224    -3.7597702553
   55      C       5.6987572069     2.2633377218     2.6750588405
   56      C       2.9368390243    -0.9219998243    -2.3187620083
   57      C       2.6075551348     0.6271465893     2.1812306038
   58      C       7.7689315194     2.5253301452    -1.2291950301
   59      C       2.3719159746     2.9775646114    -2.9821089461
   60      C       4.4372149353    -1.0202608666     1.9021827785
   61      C       6.3219267479     2.6432897199    -3.2408930020
   62      C       3.3526016026     1.5145640010     2.8586611156
   63      C       1.6823021905    -0.4122774245    -0.3345648387
   64      C       4.9483243694     4.8955553954     0.4712365529
   65      C       5.9123266365     4.2684829471     1.2552026068
   66      C       1.2031802619     0.7968270104     0.1806522446
   67      C       7.8919586977     1.6378682460    -0.1595854327
   68      C       6.5141944388     0.3001856252     1.7881468007
   69      C       7.2067749529     3.7213797268    -0.7703678369
   70      C       6.3665143415    -1.3359881924    -1.2779777610
   71      C       1.3923159547     0.9883862603    -2.0842145822
   72      C       5.2451376484     0.0141517425     2.3708718479
   73      C       1.6072882986     1.2709524802     1.4532455550
   74      C       7.3206262452     2.0004569908    -2.5090874290
   75      C       1.1610922321     3.0577896614    -0.8313158817
   76      C       5.5109174557     1.6911408359    -3.8836141161
   77      C       2.7395735953     4.6410647825    -1.2479517863
   78      C       1.8274432652    -0.3163797766    -1.7419211225
   79      C       0.9568963686     1.6287523798    -0.8984165315
   80      C       5.1745107444    -1.3585221106    -2.0894749248
   81      C       7.2546518621    -0.2554644052    -1.5257217616
   82      C       5.1012605732     4.9681592669    -0.8887738130
   83      C       2.0536027029     1.6116840147    -3.1581795472
   84      C       2.9019261321     2.7792015813     2.4045197158
   85      C       7.0770604781     3.6191672471     0.6428316409
   86      C       3.6529392254     4.6585692768     1.0084189320
   87      C       7.0683417718     0.6173510463    -2.5984545978
   88      C       5.8438529559     3.9193468129    -2.7666422827
   89      O      -7.6699772965     4.3963048380     5.9002549680
   90      C      -8.7691344918     3.7389306324     6.4881270746
   91      H      -9.2834831308     4.4645400591     7.1303703597
   92      H      -8.4221211230     2.8890413823     7.0877744580
   93      H      -9.4344158107     3.2536790735     5.7629666156
   94      O      -6.8431815859     2.5632763401     4.7262543808
   95      C      -6.7751209254     3.7258077837     5.1197456629
   96      C      -5.5284478104     4.6450497640     4.7269692303
   97      H      -5.0721543312     5.0312784547     5.6473412526
   98      H      -5.9189271845     5.5485953509     4.2418762178
   99      C      -4.4856333491     3.9231985303     3.7943541996
  100      H      -3.5301125898     4.4543655553     3.7162794271
  101      H      -4.2003612884     2.9338193130     4.1728216565
  102      C      -5.0249793905     3.7331073409     2.3790121253
  103      H      -5.9972504974     3.2556185757     2.5469983558
  104      H      -5.2248624081     4.7416727749     1.9974462139
  105      C      -4.0947555099     3.1469816469     1.2488978820
  106      C      -3.0152791816     4.2391455527     0.8183425899
  107      C      -3.4001531557     5.1092364353    -0.2116122054
  108      H      -4.4487543644     5.0462342851    -0.4891139786
  109      C      -2.5077595576     6.1180365718    -0.5463941502
  110      H      -2.7634795301     6.8494379258    -1.3076959005
  111      C      -1.2162820521     6.1781169192    -0.0284769707
  112      H      -0.4397879961     6.8266879977    -0.4229608577
  113      C      -0.8056544260     5.2162037395     0.9105799964
  114      H       0.1489491397     5.3776163488     1.4029487626
  115      C      -1.7382401761     4.2897963938     1.4018388372
  116      H      -1.4800855807     3.5810231020     2.1821942855
  117      C      -4.2593755211     0.6005769099    -3.6721419641
  118      C      -2.1928175486    -0.2213040803    -2.7356683744
  119      C      -3.5688027770    -4.4307938102    -1.9017829719
  120      C      -8.0516865706    -0.2176658519    -0.3784981330
  121      C      -4.1403950184    -3.9308468817     1.5358584257
  122      C      -3.1048251187     0.7874744778    -2.8856817507
  123      C      -7.4362238859    -2.5700047943     1.0681214382
  124      C      -4.0383345597    -2.9853437404    -3.7262897547
  125      C      -2.3743828505    -0.3095346166     1.2484153865
  126      C      -7.5565868196    -0.1448330218     0.9297283824
  127      C      -3.7105060586     1.6329165128     1.1577270048
  128      C      -3.3826043999    -0.5756815726     2.1655092230
  129      C      -6.0039658245    -1.1081957064     2.2986481694
  130      C      -6.5609351176    -3.6151625387     1.2932166659
  131      C      -2.2544091450     0.9354681597    -0.7886217750
  132      C      -5.2167502144    -4.7733085464    -0.4591981740
  133      C      -4.6920690446     2.2612774181     0.1798667504
  134      C      -6.1096756344     1.8329535770     0.2476476018
  135      C      -4.0696450994    -4.5491711286     0.2861918402
  136      C      -7.3635872767    -2.4612525985    -2.9022728599
  137      C      -5.8463569344    -4.1702240530    -2.6821146078
  138      C      -5.3994391097    -3.2671795151    -3.6726427601
  139      C      -3.5687293326    -1.7266467226    -3.9764871733
  140      C      -6.5642262518     1.5780422867    -1.0734708525
  141      C      -2.5798266021     0.8947491921     0.5864740196
  142      C      -2.3684769682    -1.5105023084    -3.3554051708
  143      C      -7.2066060396    -1.3001840105     1.5864136545
  144      C      -1.6875670238    -0.1498001899    -1.4344558242
  145      C      -3.7806340276    -1.8490662931     2.4011737497
  146      C      -7.5129522419    -0.0929458082    -2.5692953015
  147      C      -3.1004446003    -3.6161559012    -2.9143923217
  148      C      -4.2802452210     0.5366531952     2.0350587695
  149      C      -5.8586842036    -0.9299242846    -4.1046044846
  150      C      -5.0757847410    -2.1831860427     2.5928260971
  151      C      -1.7027674421    -1.3519348398     0.6351678689
  152      C      -7.3733864787    -3.7709106591    -0.8813065713
  153      C      -7.9893615157    -2.6649225214    -0.2483429128
  154      C      -2.0364128282    -2.7198159422     0.9084901073
  155      C      -7.5579860204     0.6360725774    -1.3336104096
  156      C      -6.5599809016     0.8445861600     1.1703116876
  157      C      -7.9719134632    -1.3307978717    -2.3072154160
  158      C      -4.4171958700     2.0326715466    -1.2559859905
  159      C      -1.6019644058    -2.5332430476    -1.2926836985
  160      C      -5.6439090406     0.2297938112     2.0526742624
  161      C      -3.1704470521    -2.9313674844     1.7331041528
  162      C      -6.5126767615     0.0990255745    -3.5301709187
  163      C      -3.0251549893    -4.3106939501    -0.6299146193
  164      C      -4.4530427520    -0.6633553168    -4.1934138028
  165      C      -4.9606547229    -4.7094068702    -1.7576582908
  166      C      -1.3895481647    -1.3011450632    -0.7074504994
  167      C      -2.0570854398    -3.3318780441    -0.3370891261
  168      C      -3.2237038742     1.4551057899    -1.6675338645
  169      C      -5.5572308774     1.7482741644    -2.0163676781
  170      C      -7.0932380231    -3.6969069960    -2.2515190733
  171      C      -2.0845763452    -2.6204906319    -2.6371354734
  172      C      -5.3347742443    -3.4337366959     2.0253813852
  173      C      -8.2825029351    -1.4899832823    -0.9510888788
  174      C      -6.4578808401    -4.3295836718     0.0621731002
  175      C      -5.5257026753     1.0685550980    -3.2531372457
  176      C      -6.3438631276    -2.2497642445    -3.8543827989
 ----------------------------------------------------------------

    9   -5804.2418884779      8.87E-06 Convergence criterion met
 Total energy in the final basis set = -5804.2418884779

                    Orbital Energies (a.u.)
 --------------------------------------------------------------

 Alpha MOs
 -- Occupied --
-19.206 -19.198 -19.149 -19.132 -10.333 -10.311 -10.252 -10.250
-10.245 -10.240 -10.237 -10.237 -10.236 -10.236 -10.228 -10.225
-10.224 -10.224 -10.222 -10.222 -10.221 -10.220 -10.220 -10.220
-10.220 -10.220 -10.218 -10.218 -10.218 -10.218 -10.218 -10.218
-10.217 -10.217 -10.217 -10.217 -10.217 -10.217 -10.216 -10.216
-10.216 -10.216 -10.216 -10.215 -10.215 -10.215 -10.215 -10.214
-10.214 -10.214 -10.214 -10.214 -10.214 -10.214 -10.214 -10.214
-10.213 -10.213 -10.213 -10.213 -10.213 -10.213 -10.212 -10.212
-10.212 -10.212 -10.212 -10.212 -10.212 -10.211 -10.211 -10.211
-10.211 -10.211 -10.211 -10.210 -10.210 -10.210 -10.210 -10.210
-10.210 -10.210 -10.210 -10.210 -10.210 -10.209 -10.209 -10.209
-10.209 -10.209 -10.208 -10.208 -10.208 -10.208 -10.208 -10.208
-10.207 -10.207 -10.206 -10.206 -10.206 -10.206 -10.206 -10.205
-10.205 -10.205 -10.205 -10.205 -10.204 -10.204 -10.204 -10.204
-10.203 -10.203 -10.203 -10.203 -10.203 -10.203 -10.203 -10.203
-10.203 -10.203 -10.202 -10.202 -10.202 -10.202 -10.201 -10.201
-10.200 -10.200 -10.199 -10.199 -10.199 -10.199 -10.199 -10.199
-10.199 -10.199 -10.198 -10.198 -10.198 -10.198 -10.198 -10.197
-10.197 -10.197 -10.197 -10.196  -1.104  -1.101  -1.023  -1.013
 -0.982  -0.981  -0.963  -0.963  -0.961  -0.961  -0.960  -0.959
 -0.932  -0.932  -0.926  -0.925  -0.923  -0.922  -0.920  -0.920
 -0.919  -0.919  -0.892  -0.892  -0.891  -0.891  -0.887  -0.884
 -0.872  -0.870  -0.854  -0.854  -0.839  -0.838  -0.836  -0.835
 -0.835  -0.835  -0.822  -0.817  -0.807  -0.800  -0.796  -0.794
 -0.793  -0.793  -0.792  -0.791  -0.791  -0.789  -0.782  -0.781
 -0.770  -0.767  -0.767  -0.765  -0.764  -0.763  -0.762  -0.760
 -0.756  -0.752  -0.748  -0.741  -0.733  -0.732  -0.714  -0.713
 -0.713  -0.712  -0.711  -0.710  -0.708  -0.708  -0.708  -0.705
 -0.704  -0.704  -0.703  -0.702  -0.701  -0.701  -0.670  -0.669
 -0.658  -0.656  -0.656  -0.654  -0.646  -0.643  -0.631  -0.628
 -0.626  -0.624  -0.623  -0.621  -0.620  -0.617  -0.617  -0.615
 -0.612  -0.611  -0.611  -0.610  -0.609  -0.607  -0.606  -0.606
 -0.604  -0.602  -0.601  -0.601  -0.575  -0.570  -0.565  -0.562
 -0.561  -0.558  -0.556  -0.554  -0.553  -0.553  -0.552  -0.551
 -0.537  -0.533  -0.532  -0.531  -0.527  -0.525  -0.524  -0.521
 -0.521  -0.520  -0.516  -0.515  -0.514  -0.513  -0.512  -0.510
 -0.506  -0.505  -0.502  -0.501  -0.492  -0.489  -0.486  -0.485
 -0.482  -0.482  -0.480  -0.480  -0.478  -0.478  -0.478  -0.476
 -0.471  -0.469  -0.469  -0.468  -0.467  -0.466  -0.466  -0.464
 -0.463  -0.463  -0.462  -0.461  -0.460  -0.459  -0.458  -0.457
 -0.456  -0.454  -0.453  -0.452  -0.448  -0.446  -0.445  -0.442
 -0.441  -0.437  -0.436  -0.436  -0.435  -0.434  -0.433  -0.430
 -0.430  -0.429  -0.428  -0.427  -0.426  -0.425  -0.423  -0.422
 -0.421  -0.420  -0.420  -0.419  -0.419  -0.418  -0.417  -0.416
 -0.415  -0.414  -0.413  -0.412  -0.411  -0.410  -0.409  -0.408
 -0.408  -0.407  -0.406  -0.405  -0.401  -0.399  -0.397  -0.394
 -0.394  -0.389  -0.389  -0.387  -0.386  -0.385  -0.384  -0.381
 -0.380  -0.380  -0.376  -0.372  -0.371  -0.369  -0.366  -0.366
 -0.364  -0.363  -0.361  -0.360  -0.359  -0.358  -0.357  -0.356
 -0.355  -0.355  -0.354  -0.352  -0.351  -0.350  -0.349  -0.348
 -0.347  -0.347  -0.346  -0.345  -0.345  -0.344  -0.343  -0.343
 -0.343  -0.342  -0.338  -0.336  -0.335  -0.334  -0.333  -0.331
 -0.329  -0.327  -0.327  -0.326  -0.325  -0.324  -0.323  -0.320
 -0.312  -0.307  -0.307  -0.303  -0.284  -0.281  -0.278  -0.270
 -0.268  -0.267  -0.265  -0.264  -0.264  -0.262  -0.262  -0.261
 -0.260  -0.259  -0.258  -0.256  -0.255  -0.255  -0.253  -0.251
 -0.250  -0.248  -0.243  -0.241  -0.219  -0.218  -0.212  -0.209
 -0.206  -0.204  -0.202  -0.199  -0.197  -0.195

          Ground-State Mulliken Net Atomic Charges

     Atom                 Charge (a.u.)
  ----------------------------------------
      1 O                    -0.452242
      2 C                    -0.092581
      3 H                     0.123029
      4 H                     0.130514
      5 H                     0.132897
      6 O                    -0.475791
      7 C                     0.586212
      8 C                    -0.250590
      9 H                     0.136421
     10 H                     0.135385
     11 C                    -0.182965
     12 H                     0.128097
     13 H                     0.112499
     14 C                    -0.177103
     15 H                     0.104523
     16 H                     0.103774
     17 C                     0.007224
     18 C                     0.059368
     19 C                    -0.095553
     20 H                     0.094044
     21 C                    -0.090160
     22 H                     0.096968
     23 C                    -0.077325
     24 H                     0.090666
     25 C                    -0.095186
     26 H                     0.085480
     27 C                    -0.092583
     28 H                     0.101132
     29 C                     0.004021
     30 C                     0.009574
     31 C                     0.008008
     32 C                    -0.021493
     33 C                     0.023529
     34 C                     0.002617
     35 C                    -0.000876
     36 C                     0.027541
     37 C                    -0.023609
     38 C                     0.006508
     39 C                    -0.093715
     40 C                    -0.013630
     41 C                    -0.031855
     42 C                    -0.021773
     43 C                     0.008164
     44 C                     0.002430
     45 C                    -0.086680
     46 C                     0.042627
     47 C                     0.007554
     48 C                     0.008733
     49 C                    -0.003014
     50 C                    -0.007202
     51 C                    -0.031650
     52 C                     0.007918
     53 C                     0.031412
     54 C                     0.001857
     55 C                     0.012555
     56 C                    -0.019408
     57 C                     0.039529
     58 C                    -0.017296
     59 C                     0.001285
     60 C                     0.037842
     61 C                    -0.000354
     62 C                    -0.021777
     63 C                    -0.007083
     64 C                     0.003269
     65 C                    -0.001732
     66 C                     0.023587
     67 C                     0.038841
     68 C                     0.000663
     69 C                    -0.006199
     70 C                     0.017951
     71 C                     0.012982
     72 C                     0.005804
     73 C                    -0.031870
     74 C                    -0.017067
     75 C                    -0.028654
     76 C                     0.016878
     77 C                    -0.010071
     78 C                     0.000160
     79 C                     0.008860
     80 C                     0.017407
     81 C                    -0.015179
     82 C                     0.019297
     83 C                    -0.021512
     84 C                    -0.021756
     85 C                    -0.026223
     86 C                     0.001072
     87 C                    -0.004027
     88 C                    -0.010665
     89 O                    -0.451087
     90 C                    -0.088796
     91 H                     0.128893
     92 H                     0.126373
     93 H                     0.131123
     94 O                    -0.463273
     95 C                     0.601538
     96 C                    -0.272715
     97 H                     0.133135
     98 H                     0.131797
     99 C                    -0.176467
    100 H                     0.099275
    101 H                     0.120456
    102 C                    -0.184929
    103 H                     0.132616
    104 H                     0.101734
    105 C                    -0.006030
    106 C                     0.067917
    107 C                    -0.085560
    108 H                     0.097393
    109 C                    -0.099270
    110 H                     0.087874
    111 C                    -0.086011
    112 H                     0.095153
    113 C                    -0.093631
    114 H                     0.099635
    115 C                    -0.105395
    116 H                     0.095334
    117 C                    -0.022809
    118 C                     0.005077
    119 C                    -0.022462
    120 C                    -0.014569
    121 C                    -0.005871
    122 C                     0.006575
    123 C                    -0.000028
    124 C                     0.036352
    125 C                     0.030974
    126 C                    -0.023476
    127 C                    -0.074713
    128 C                     0.015029
    129 C                    -0.002698
    130 C                    -0.000446
    131 C                    -0.016110
    132 C                     0.026769
    133 C                    -0.082697
    134 C                     0.021379
    135 C                    -0.015197
    136 C                     0.007707
    137 C                    -0.014524
    138 C                    -0.003071
    139 C                     0.014220
    140 C                    -0.020508
    141 C                     0.025056
    142 C                    -0.012499
    143 C                     0.017020
    144 C                    -0.004996
    145 C                     0.035486
    146 C                     0.016313
    147 C                    -0.037903
    148 C                    -0.002150
    149 C                    -0.004071
    150 C                    -0.027908
    151 C                    -0.008454
    152 C                    -0.009084
    153 C                     0.007844
    154 C                    -0.060868
    155 C                     0.009618
    156 C                     0.013738
    157 C                    -0.007864
    158 C                     0.042755
    159 C                     0.015747
    160 C                     0.016050
    161 C                     0.007762
    162 C                     0.002919
    163 C                     0.002909
    164 C                     0.007462
    165 C                     0.032167
    166 C                     0.000312
    167 C                     0.027601
    168 C                    -0.012773
    169 C                     0.032211
    170 C                    -0.006863
    171 C                    -0.012272
    172 C                    -0.005183
    173 C                    -0.007557
    174 C                    -0.021097
    175 C                    -0.028314
    176 C                    -0.025356
  ----------------------------------------
  Sum of atomic charges =     0.000000

                    Cartesian Multipole Moments
 -----------------------------------------------------------------
    Charge (ESU x 10^10)
                 0.0000
    Dipole Moment (Debye)
         X      -0.6401      Y       0.6961      Z       2.0491
       Tot       2.2568
    Quadrupole Moments (Debye-Ang)
        XX    -796.4953     XY     -38.6836     YY    -767.4689
        XZ     -39.2737     YZ      13.2323     ZZ    -808.0366

 Total job time:  872.86s(wall), 8303.87s(cpu)
        *  Thank you very much for using Q-Chem.  Have a nice day.  *
