 Q-Chem 4.4, Q-Chem, Inc., Pleasanton, CA (2016)
 Q-Chem 4.4.0 for Intel X86 Linux

User input:
--------------------------------------------------------------
$comment
OPTIMIZATION
$end

$rem
JOBTYPE OPT
EXCHANGE omegaB97X-D
BASIS cc-pVTZ
$end

$molecule
0 1
C          7.67777        0.34642       -0.33993
C          6.98892        1.51270       -0.04885
C          6.94370       -0.80400       -0.58243
C          5.60978        1.47954       -0.00352
N          5.61883       -0.85095       -0.53894
C          4.96205        0.26974       -0.24819
C          3.47962        0.21444       -0.19685
N          2.83481        1.33798       -0.34991
C          2.73362       -0.98872        0.03061
C          1.48160        1.40094       -0.31172
N          3.19870       -2.21714        0.26374
C          1.30325       -0.91788        0.05914
C          0.63707        0.33357       -0.11468
S          1.92034       -3.16172        0.46998
N          0.72482       -2.09492        0.29058
C         -0.80985        0.47767       -0.05204
S         -1.88040       -0.86682       -0.09381
C         -1.56638        1.64356        0.06446
C         -3.30736        0.06120        0.00792
N         -1.07341        2.91209        0.13774
C         -2.97696        1.40790        0.10327
C         -4.62265       -0.54017        0.00653
C         -1.95462        3.85869        0.23857
N         -3.87207        2.42642        0.21102
C         -5.78850       -0.01133        0.48882
S         -4.90180       -2.11612       -0.66218
C         -3.36222        3.61771        0.27514
C         -6.89590       -0.87751        0.33181
C         -6.56731       -2.05254       -0.26686
H          8.75733        0.32596       -0.37845
H          7.52022        2.43532        0.14280
H          7.44267       -1.73482       -0.82711
H          5.02391        2.35976        0.21256
H          1.06741        2.38942       -0.42819
H         -1.58537        4.87694        0.29040
H         -5.83313        0.97106        0.92819
H         -4.04850        4.45242        0.36420
H         -7.89525       -0.63350        0.65875
H         -7.21448       -2.87971       -0.50357
$end

--------------------------------------------------------------

   16   -2291.1956868708      5.28E-09 Convergence criterion met
 Total energy in the final basis set = -2291.1956868708
   11   -2291.1956952319      6.63E-09 Convergence criterion met
 Total energy in the final basis set = -2291.1956952319
   10   -2291.1956979497      9.40E-09 Convergence criterion met
 Total energy in the final basis set = -2291.1956979497
    9   -2291.1957006606      9.33E-09 Convergence criterion met
 Total energy in the final basis set = -2291.1957006606
    9   -2291.1957013674      8.71E-09 Convergence criterion met
 Total energy in the final basis set = -2291.1957013674
 Final energy is   -2291.19570136737
 **  OPTIMIZATION CONVERGED  **
 Total job time:  18757.78s(wall), 74333.62s(cpu)
        *  Thank you very much for using Q-Chem.  Have a nice day.  *
 Q-Chem 4.4, Q-Chem, Inc., Pleasanton, CA (2016)
 Q-Chem 4.4.0 for Intel X86 Linux

User input:
--------------------------------------------------------------

$comment
HIRSHFELD_BASAL
$end

$rem
SYM_IGNORE TRUE
JOBTYPE SP
EXCHANGE omegaB97X-D
BASIS cc-pVTZ
HIRSHITER TRUE
$end

$molecule
READ
$end
--------------------------------------------------------------

             Standard Nuclear Orientation (Angstroms)
    I     Atom           X                Y                Z
 ----------------------------------------------------------------
    1      C       7.6789342012     0.3381702423    -0.1999696207
    2      C       6.9961495134     1.5114144660     0.0770629191
    3      C       6.9387028239    -0.8082679407    -0.4424994944
    4      C       5.6164869104     1.4890472006     0.1081750611
    5      N       5.6130183237    -0.8448936637    -0.4129016063
    6      C       4.9620941075     0.2828839075    -0.1365462724
    7      C       3.4788815635     0.2406032008    -0.1044552328
    8      N       2.8454342564     1.3668242088    -0.2825937341
    9      C       2.7204246658    -0.9530571354     0.1302578558
   10      C       1.4923733445     1.4401884530    -0.2663697435
   11      N       3.1726432631    -2.1808089308     0.3907898359
   12      C       1.2903674378    -0.8711262514     0.1365361581
   13      C       0.6363361281     0.3824223148    -0.0668553483
   14      S       1.8842583604    -3.1123644227     0.5931738295
   15      N       0.6995597355    -2.0400448001     0.3781593770
   16      C      -0.8102472693     0.5388616409    -0.0339323543
   17      S      -1.8911957687    -0.7980130749    -0.0596776500
   18      C      -1.5590135835     1.7135928211     0.0344543834
   19      C      -3.3119403529     0.1440626778    -0.0137609108
   20      N      -1.0580243452     2.9802928539     0.0856065735
   21      C      -2.9718698959     1.4900012150     0.0496306970
   22      C      -4.6324399218    -0.4454116223    -0.0222118618
   23      C      -1.9340335880     3.9354437502     0.1413829160
   24      N      -3.8616647843     2.5172295875     0.1081309681
   25      C      -5.7982744146     0.1005630837     0.4404253409
   26      S      -4.9196785171    -2.0263202808    -0.6749119507
   27      C      -3.3441219135     3.7061221589     0.1508500206
   28      C      -6.9128777782    -0.7558130915     0.2798784064
   29      C      -6.5890949306    -1.9407919054    -0.3017490124
   30      H       8.7586262047     0.3099245399    -0.2285989770
   31      H       7.5327323459     2.4309939207     0.2686751465
   32      H       7.4332471334    -1.7445026493    -0.6751967406
   33      H       5.0355632452     2.3753065171     0.3127617962
   34      H       1.0870014968     2.4294761302    -0.4055722218
   35      H      -1.5584641487     4.9520699256     0.1769213592
   36      H      -5.8379036995     1.0879091225     0.8691359692
   37      H      -4.0255097612     4.5482962017     0.1981211625
   38      H      -7.9130893934    -0.4969376911     0.5924783242
   39      H      -7.2419892973    -2.7637842762    -0.5372322363
 ----------------------------------------------------------------

    8   -2291.1957523238      5.57E-06 Convergence criterion met
 Total energy in the final basis set = -2291.1957523238

                    Orbital Energies (a.u.)
 --------------------------------------------------------------

 Alpha MOs
 -- Occupied --
-89.153 -89.107 -89.087 -14.482 -14.479 -14.463 -14.463 -14.445
-14.434 -10.355 -10.352 -10.350 -10.346 -10.344 -10.344 -10.343
-10.342 -10.338 -10.336 -10.334 -10.331 -10.326 -10.324 -10.320
-10.309 -10.301 -10.298 -10.295 -10.293  -8.158  -8.116  -8.097
 -6.107  -6.102  -6.101  -6.064  -6.061  -6.059  -6.046  -6.042
 -6.040  -1.142  -1.102  -1.068  -1.048  -1.030  -1.013  -1.003
 -0.986  -0.925  -0.911  -0.895  -0.879  -0.869  -0.853  -0.838
 -0.812  -0.777  -0.772  -0.748  -0.738  -0.731  -0.716  -0.711
 -0.672  -0.655  -0.648  -0.629  -0.628  -0.620  -0.607  -0.603
 -0.587  -0.576  -0.568  -0.560  -0.557  -0.548  -0.543  -0.526
 -0.512  -0.507  -0.501  -0.498  -0.493  -0.492  -0.485  -0.484
 -0.473  -0.466  -0.462  -0.461  -0.451  -0.443  -0.429  -0.427
 -0.418  -0.411  -0.392  -0.377  -0.372  -0.359  -0.357  -0.351
 -0.343  -0.339  -0.334  -0.334  -0.320  -0.264

          Ground-State Mulliken Net Atomic Charges

     Atom                 Charge (a.u.)
  ----------------------------------------
      1 C                    -0.088018
      2 C                    -0.131825
      3 C                    -0.081524
      4 C                    -0.120747
      5 N                    -0.145514
      6 C                     0.083600
      7 C                     0.097687
      8 N                    -0.178038
      9 C                    -0.013884
     10 C                    -0.083931
     11 N                    -0.218375
     12 C                     0.048845
     13 C                     0.060991
     14 S                     0.407632
     15 N                    -0.306823
     16 C                    -0.074147
     17 S                     0.179145
     18 C                     0.061227
     19 C                    -0.053144
     20 N                    -0.170274
     21 C                     0.062054
     22 C                    -0.011284
     23 C                    -0.042314
     24 N                    -0.160837
     25 C                    -0.138606
     26 S                     0.104104
     27 C                    -0.046874
     28 C                    -0.157147
     29 C                    -0.183095
     30 H                     0.129306
     31 H                     0.121204
     32 H                     0.120779
     33 H                     0.139229
     34 H                     0.136645
     35 H                     0.124227
     36 H                     0.133110
     37 H                     0.129374
     38 H                     0.131154
     39 H                     0.136087
  ----------------------------------------
  Sum of atomic charges =     0.000000

    6    2891.9783891323      9.37E-06 Convergence criterion met
 Total energy in the final basis set = 2891.9783891323
 Total energy in the final basis set = 2929.3173255592
   15    2929.3121861259      8.24E-08 Convergence criterion met
 Total energy in the final basis set = 2929.3121861259
    7    2929.3173255718      9.45E-06 Convergence criterion met
 Total energy in the final basis set = 2929.3173255718
   10    2929.3121861259      1.17E-07 Convergence criterion met
 Total energy in the final basis set = 2929.3121861259
    8    2929.3173255624      4.40E-06 Convergence criterion met
 Total energy in the final basis set = 2929.3173255624
   12    2929.3121861259      1.10E-07 Convergence criterion met
 Total energy in the final basis set = 2929.3121861259
    7    2929.3173255592      1.64E-06 Convergence criterion met
 Total energy in the final basis set = 2929.3173255592
   11    2929.3121861259      9.96E-08 Convergence criterion met
 Total energy in the final basis set = 2929.3121861259

                    Cartesian Multipole Moments
 -----------------------------------------------------------------
    Charge (ESU x 10^10)
                 0.0000
    Dipole Moment (Debye)
         X      -0.3682      Y       1.5455      Z       0.7803
       Tot       1.7700
    Quadrupole Moments (Debye-Ang)
        XX    -151.7494     XY       3.3489     YY    -164.8677
        XZ       0.1411     YZ       2.5985     ZZ    -186.7993

 Total job time:  5659.43s(wall), 9811.11s(cpu)
        *  Thank you very much for using Q-Chem.  Have a nice day.  *
