 Q-Chem 4.4, Q-Chem, Inc., Pleasanton, CA (2016)
 Q-Chem 4.4.0 for Intel X86 Linux

User input:
--------------------------------------------------------------
$comment
OPTIMIZATION
$end

$rem
JOBTYPE OPT
EXCHANGE omegaB97X-D
BASIS cc-pVTZ
$end

$molecule
0 1
C          0.47990        1.54640        0.18110
C         -0.84320        1.29700        0.48890
N          1.33490        0.59110       -0.22660
C         -1.31450       -0.01330        0.38300
C          0.84460       -0.67270       -0.32080
C         -0.46840       -1.05700       -0.02860
C         -0.94930       -2.44300       -0.15270
C         -2.26300       -2.79880       -0.49920
C         -0.14280       -3.59540        0.07060
N         -2.81260       -4.05070       -0.62630
N          1.15210       -3.60310        0.43830
C         -0.70060       -5.00310       -0.08060
C         -2.06700       -5.17970       -0.43320
S          1.63410       -5.17850        0.54750
N          0.23190       -5.94870        0.14250
C         -2.72510       -6.46930       -0.58310
S         -2.28550       -7.85400        0.33260
C         -3.78660       -6.77530       -1.39740
C         -3.46360       -8.88850       -0.39270
S         -4.73430       -5.77510       -2.58160
C         -4.16730       -8.11830       -1.26980
C         -3.59360      -10.28740       -0.04770
C         -5.65370       -7.23760       -2.86960
C         -5.26110       -8.36870       -2.14390
N         -4.50380      -11.07780       -0.58800
S         -2.56720      -11.07130        1.10610
C         -4.39550      -12.35620       -0.07020
C         -3.40090      -12.54120        0.86390
H          0.89850        2.54570        0.25600
H         -1.49530        2.10200        0.80940
H         -2.35350       -0.20140        0.64370
H          1.58600       -1.38760       -0.66920
H         -2.99200       -2.01690       -0.71890
H         -6.45930       -7.17580       -3.58900
H         -5.76320       -9.32370       -2.25480
H         -5.07450      -13.12900       -0.40990
H         -3.13100      -13.43990        1.39920
$end

--------------------------------------------------------------

   16   -2595.9260221063      7.34E-09 Convergence criterion met
 Total energy in the final basis set = -2595.9260221063
   14   -2595.9520865222      8.11E-09 Convergence criterion met
 Total energy in the final basis set = -2595.9520865222
   14   -2595.9578815353      7.23E-09 Convergence criterion met
 Total energy in the final basis set = -2595.9578815353
   14   -2595.9597016141      5.80E-09 Convergence criterion met
 Total energy in the final basis set = -2595.9597016141
   13   -2595.9603548449      9.81E-09 Convergence criterion met
 Total energy in the final basis set = -2595.9603548449
   13   -2595.9605948925      7.05E-09 Convergence criterion met
 Total energy in the final basis set = -2595.9605948925
   12   -2595.9606566301      3.51E-09 Convergence criterion met
 Total energy in the final basis set = -2595.9606566301
   11   -2595.9606660015      7.28E-09 Convergence criterion met
 **  OPTIMIZATION CONVERGED  **
 Total job time:  47925.09s(wall), 190203.83s(cpu)
        *  Thank you very much for using Q-Chem.  Have a nice day.  *
 Q-Chem 4.4, Q-Chem, Inc., Pleasanton, CA (2016)
 Q-Chem 4.4.0 for Intel X86 Linux

User input:
--------------------------------------------------------------

$comment
HIRSHFELD_BASAL
$end

$rem
SYM_IGNORE TRUE
JOBTYPE SP
EXCHANGE omegaB97X-D
BASIS cc-pVTZ
HIRSHITER TRUE
$end

$molecule
READ
$end
--------------------------------------------------------------

             Standard Nuclear Orientation (Angstroms)
    I     Atom           X                Y                Z
 ----------------------------------------------------------------
    1      C      -7.6140813350     0.4004038288    -0.1676203555
    2      C      -6.9124671998     1.2804750683    -0.9746904384
    3      N      -7.0236510091    -0.5089376328     0.6026074863
    4      C      -5.5327598153     1.2124476443    -0.9859598150
    5      C      -5.6992285106    -0.5666536787     0.5832701726
    6      C      -4.8926493265     0.2687637847    -0.1905525329
    7      C      -3.4239539937     0.1798686382    -0.1434217298
    8      C      -2.6337675806     1.2951060587    -0.0858907100
    9      C      -2.7140280831    -1.0561568319    -0.1573353255
   10      N      -1.2792082084     1.3158088018    -0.0541987746
   11      N      -3.2231061873    -2.2874622918    -0.2169293916
   12      C      -1.2862465250    -1.0483874036    -0.1266212927
   13      C      -0.5882365550     0.2024400660    -0.0717997140
   14      S      -1.9727229626    -3.3030265505    -0.2237174726
   15      N      -0.7460316225    -2.2629576541    -0.1602117120
   16      C       0.8503030577     0.3295203753    -0.0343600593
   17      S       1.9825506703    -0.9780957279    -0.0692619887
   18      C       1.5336621468     1.5219116554     0.0328370686
   19      C       3.3434356905     0.0741735775     0.0051342540
   20      S       1.0380179295     3.1789540085     0.0931845199
   21      C       2.9457805999     1.3941838719     0.0551301059
   22      C       4.7009952273    -0.4281854037     0.0014091327
   23      C       2.7160082311     3.6763833866     0.1466565942
   24      C       3.6064641832     2.6687111119     0.1227074371
   25      N       5.7483989811     0.3447440852     0.0419009272
   26      S       5.0824030479    -2.1267018575    -0.0606316161
   27      C       6.8989343163    -0.3844700055     0.0204427855
   28      C       6.7504320241    -1.7310022084    -0.0347709394
   29      H      -8.6970170793     0.4205239719    -0.1423221635
   30      H      -7.4449143242     1.9905054226    -1.5909552608
   31      H      -4.9492040753     1.8669300840    -1.6196263019
   32      H      -5.2423513766    -1.3153372209     1.2187722749
   33      H      -3.0930076101     2.2752804477    -0.0542128930
   34      H       2.9431180269     4.7298152617     0.1892689254
   35      H       4.6776454901     2.7782796869     0.1442921331
   36      H       7.8515667690     0.1214648810     0.0459033996
   37      H       7.5109104707    -2.4915016495    -0.0624866901
 ----------------------------------------------------------------

                    Orbital Energies (a.u.)
 --------------------------------------------------------------

 Alpha MOs
 -- Occupied --
-89.163 -89.102 -89.101 -89.083 -14.495 -14.488 -14.452 -14.446
-14.436 -10.375 -10.371 -10.363 -10.361 -10.346 -10.342 -10.340
-10.334 -10.329 -10.328 -10.327 -10.327 -10.326 -10.322 -10.318
-10.315 -10.314 -10.303 -10.296  -8.168  -8.111  -8.111  -8.091
 -6.118  -6.112  -6.111  -6.060  -6.059  -6.056  -6.056  -6.054
 -6.053  -6.040  -6.037  -6.033  -1.153  -1.084  -1.073  -1.055
 -1.024  -1.016  -0.957  -0.946  -0.912  -0.911  -0.907  -0.884
 -0.862  -0.844  -0.829  -0.807  -0.776  -0.753  -0.745  -0.728
 -0.724  -0.694  -0.689  -0.679  -0.648  -0.641  -0.623  -0.621
 -0.609  -0.595  -0.584  -0.577  -0.570  -0.568  -0.541  -0.537
 -0.526  -0.523  -0.518  -0.515  -0.512  -0.503  -0.497  -0.491
 -0.489  -0.481  -0.477  -0.463  -0.458  -0.448  -0.437  -0.433
 -0.430  -0.423  -0.403  -0.397  -0.383  -0.373  -0.371  -0.370
 -0.363  -0.358  -0.342  -0.337  -0.327  -0.319  -0.268

          Ground-State Mulliken Net Atomic Charges

     Atom                 Charge (a.u.)
  ----------------------------------------
      1 C                    -0.068875
      2 C                    -0.102581
      3 N                    -0.155755
      4 C                    -0.153383
      5 C                    -0.096982
      6 C                     0.111618
      7 C                     0.032086
      8 C                    -0.091915
      9 C                     0.019452
     10 N                    -0.183827
     11 N                    -0.277152
     12 C                     0.026280
     13 C                     0.119496
     14 S                     0.415066
     15 N                    -0.286128
     16 C                    -0.063151
     17 S                     0.132118
     18 C                    -0.003269
     19 C                    -0.019261
     20 S                     0.093939
     21 C                     0.018375
     22 C                     0.034833
     23 C                    -0.163765
     24 C                    -0.158007
     25 N                    -0.184350
     26 S                     0.102232
     27 C                    -0.073017
     28 C                    -0.204796
     29 H                     0.120870
     30 H                     0.128279
     31 H                     0.128107
     32 H                     0.130193
     33 H                     0.128386
     34 H                     0.131712
     35 H                     0.140125
     36 H                     0.128455
     37 H                     0.144592
  ----------------------------------------
  Sum of atomic charges =     0.000000

 Total energy in the final basis set = 2965.9381789928
   16    2965.9330395575      9.92E-08 Convergence criterion met
 Total energy in the final basis set = 2965.9330395575
    8    2965.9381789910      1.09E-07 Convergence criterion met
 Total energy in the final basis set = 2965.9381789910
   12    2965.9330395575      9.52E-08 Convergence criterion met
 Total energy in the final basis set = 2965.9330395575
    8    2965.9381789910      1.85E-07 Convergence criterion met
 Total energy in the final basis set = 2965.9381789910
   11    2965.9330395575      1.19E-07 Convergence criterion met
 Total energy in the final basis set = 2965.9330395575
    8    2965.9381789911      4.42E-07 Convergence criterion met
 Total energy in the final basis set = 2965.9381789911
   12    2965.9330395575      1.27E-07 Convergence criterion met
 Total energy in the final basis set = 2965.9330395575

                    Cartesian Multipole Moments
 -----------------------------------------------------------------
    Charge (ESU x 10^10)
                 0.0000
    Dipole Moment (Debye)
         X       1.9326      Y       0.0871      Z      -1.2626
       Tot       2.3101
    Quadrupole Moments (Debye-Ang)
        XX    -170.1417     XY     -16.5247     YY    -171.1153
        XZ       9.4970     YZ      -1.7355     ZZ    -188.0953

 Total job time:  5347.98s(wall), 9480.74s(cpu)
        *  Thank you very much for using Q-Chem.  Have a nice day.  *
