 Q-Chem 4.4, Q-Chem, Inc., Pleasanton, CA (2016)
 Q-Chem 4.4.0 for Intel X86 Linux

User input:
--------------------------------------------------------------
$comment
OPTIMIZATION
$end

$rem
JOBTYPE OPT
EXCHANGE omegaB97X-D
BASIS cc-pVTZ
$end

$molecule
0 1
C         -7.99911        1.65115       -0.34894
C         -7.06840        2.14725       -1.24793
C         -7.61373        0.69394        0.57835
C         -5.75719        1.70469       -1.20536
C         -6.30548        0.24289        0.61605
C         -5.35685        0.75808       -0.26482
C         -3.93643        0.36902       -0.17781
C         -2.94655        1.31315       -0.15856
C         -3.48578       -0.97753       -0.09931
N         -1.61649        1.06431       -0.07861
N         -4.24159       -2.07815       -0.09763
C         -2.08333       -1.25669       -0.02098
C         -1.16401       -0.15831       -0.01312
S         -3.21980       -3.31921        0.00008
N         -1.80725       -2.56004        0.04141
C          0.28758       -0.30997        0.08227
N          0.94739       -1.42604        0.06967
S          1.27358        1.11614        0.22390
C          2.28079       -1.20450        0.18264
C          2.67011        0.10394        0.28418
C          4.01871        0.61901        0.37211
S          4.40292        2.08265        1.21412
C          5.16901        0.09155       -0.14785
C          6.06886        1.98264        0.84570
S          5.53057       -1.30899       -1.12069
C          6.34113        0.86209        0.11164
C          7.22008       -0.84528       -1.16819
C          7.50970        0.28007       -0.49622
H         -9.01897        2.00944       -0.36984
H         -7.35884        2.88290       -1.98557
H         -8.33571        0.30310        1.28262
H         -5.03494        2.08282       -1.91717
H         -6.01504       -0.50168        1.34390
H         -3.21601        2.36130       -0.18702
H          2.96215       -2.04227        0.20569
H          6.75011        2.74843        1.17500
H          7.90107       -1.46608       -1.72673
H          8.50174        0.69973       -0.44094
$end

--------------------------------------------------------------

   16   -2579.9157366393      4.69E-09 Convergence criterion met
 Total energy in the final basis set = -2579.9157366393
   13   -2579.9159270949      5.64E-09 Convergence criterion met
 Total energy in the final basis set = -2579.9159270949
   12   -2579.9160665619      7.40E-09 Convergence criterion met
 Total energy in the final basis set = -2579.9160665619
   12   -2579.9159632781      9.74E-09 Convergence criterion met
 Total energy in the final basis set = -2579.9159632781
   12   -2579.9161431405      6.38E-09 Convergence criterion met
 Total energy in the final basis set = -2579.9161431405
   12   -2579.9161576277      2.82E-09 Convergence criterion met
 Total energy in the final basis set = -2579.9161576277
   11   -2579.9161812875      6.61E-09 Convergence criterion met
 Total energy in the final basis set = -2579.9161812875
   10   -2579.9161826991      6.01E-09 Convergence criterion met
 **  OPTIMIZATION CONVERGED  **
 Total job time:  35710.78s(wall), 141603.45s(cpu)
        *  Thank you very much for using Q-Chem.  Have a nice day.  *
 Q-Chem 4.4, Q-Chem, Inc., Pleasanton, CA (2016)
 Q-Chem 4.4.0 for Intel X86 Linux

User input:
--------------------------------------------------------------

$comment
HIRSHFELD_BASAL
$end

$rem
SYM_IGNORE TRUE
JOBTYPE SP
EXCHANGE omegaB97X-D
BASIS cc-pVTZ
HIRSHITER TRUE
$end

$molecule
READ
$end
--------------------------------------------------------------

             Standard Nuclear Orientation (Angstroms)
    I     Atom           X                Y                Z
 ----------------------------------------------------------------
    1      C      -7.9561462387     1.7170361366    -0.3732670504
    2      C      -7.0287119645     2.1603326942    -1.3031171379
    3      C      -7.5740305911     0.7918314875     0.5866737518
    4      C      -5.7249637034     1.6973874392    -1.2601498807
    5      C      -6.2719313113     0.3246952086     0.6292769116
    6      C      -5.3250676656     0.7856900420    -0.2841420282
    7      C      -3.9093059552     0.3841361436    -0.1837816581
    8      C      -2.9024774418     1.2991977792    -0.3333295037
    9      C      -3.4773440726    -0.9378032801     0.1243754964
   10      N      -1.5761196244     1.0425743920    -0.2302198959
   11      N      -4.2472559492    -2.0098692663     0.3274962398
   12      C      -2.0777793120    -1.2235550761     0.2370235040
   13      C      -1.1424410201    -0.1572270571     0.0439675481
   14      S      -3.2426704288    -3.2302371807     0.6350138399
   15      N      -1.8195535039    -2.4990825853     0.5285370579
   16      C       0.3079136076    -0.3152881970     0.1548601884
   17      N       0.9524892039    -1.4319820114     0.2967290799
   18      S       1.3133421820     1.1013810363     0.0962322522
   19      C       2.2891416822    -1.2154409996     0.3757887741
   20      C       2.6957399955     0.0887588688     0.3012844084
   21      C       4.0506314272     0.5965322548     0.3381463184
   22      S       4.4609245687     2.0896743129     1.1119842036
   23      C       5.1875847204     0.0367190209    -0.1769016442
   24      C       6.1203368639     1.9563057922     0.7284505022
   25      S       5.5205253412    -1.4048509621    -1.0993531354
   26      C       6.3714622357     0.8038575084     0.0372437453
   27      C       7.2140820309    -0.9621917129    -1.1861732861
   28      C       7.5251203464     0.1864183135    -0.5646055208
   29      H      -8.9707959023     2.0895746583    -0.3966948130
   30      H      -7.3163948890     2.8728496765    -2.0641712694
   31      H      -8.2937507145     0.4424833165     1.3145778302
   32      H      -5.0088825336     2.0312611296    -1.9994467422
   33      H      -5.9850299015    -0.3963874283     1.3809508245
   34      H      -3.1490239480     2.3347836034    -0.5313817526
   35      H       2.9602998862    -2.0497552053     0.5171902198
   36      H       6.8137157693     2.7274293463     1.0171005394
   37      H       7.8821941363    -1.6091655531    -1.7305446746
   38      H       8.5221956698     0.5966523828    -0.5365125723
 ----------------------------------------------------------------

                    Orbital Energies (a.u.)
 --------------------------------------------------------------

 Alpha MOs
 -- Occupied --
-89.157 -89.098 -89.094 -89.085 -14.485 -14.483 -14.453 -14.444
-10.365 -10.362 -10.358 -10.356 -10.342 -10.341 -10.335 -10.333
-10.330 -10.327 -10.325 -10.323 -10.313 -10.312 -10.305 -10.298
-10.296 -10.296 -10.296 -10.295  -8.162  -8.107  -8.103  -8.094
 -6.111  -6.106  -6.105  -6.056  -6.052  -6.052  -6.049  -6.049
 -6.046  -6.044  -6.040  -6.036  -1.146  -1.086  -1.064  -1.023
 -1.010  -0.975  -0.958  -0.925  -0.919  -0.899  -0.876  -0.860
 -0.856  -0.832  -0.828  -0.802  -0.775  -0.745  -0.734  -0.713
 -0.705  -0.693  -0.691  -0.660  -0.651  -0.636  -0.626  -0.615
 -0.606  -0.598  -0.572  -0.564  -0.556  -0.549  -0.541  -0.530
 -0.529  -0.525  -0.514  -0.513  -0.507  -0.504  -0.498  -0.487
 -0.477  -0.475  -0.470  -0.455  -0.450  -0.439  -0.436  -0.433
 -0.431  -0.423  -0.421  -0.399  -0.391  -0.375  -0.367  -0.362
 -0.359  -0.353  -0.339  -0.338  -0.324  -0.304  -0.273

          Ground-State Mulliken Net Atomic Charges

     Atom                 Charge (a.u.)
  ----------------------------------------
      1 C                    -0.119690
      2 C                    -0.108562
      3 C                    -0.113684
      4 C                    -0.155409
      5 C                    -0.122846
      6 C                     0.125883
      7 C                     0.020314
      8 C                    -0.114893
      9 C                     0.042551
     10 N                    -0.174428
     11 N                    -0.290510
     12 C                    -0.011210
     13 C                     0.108319
     14 S                     0.413410
     15 N                    -0.222470
     16 C                    -0.007256
     17 N                    -0.138058
     18 S                     0.125540
     19 C                    -0.143992
     20 C                    -0.021368
     21 C                     0.000226
     22 S                     0.138517
     23 C                    -0.052544
     24 C                    -0.222522
     25 S                     0.058240
     26 C                     0.044467
     27 C                    -0.143052
     28 C                    -0.170025
     29 H                     0.113764
     30 H                     0.113752
     31 H                     0.115844
     32 H                     0.127133
     33 H                     0.115796
     34 H                     0.138333
     35 H                     0.146758
     36 H                     0.129219
     37 H                     0.130455
     38 H                     0.123999
  ----------------------------------------
  Sum of atomic charges =     0.000000

 Total energy in the final basis set = 2865.2616382514
   11    2865.2564988125      1.07E-07 Convergence criterion met
 Total energy in the final basis set = 2865.2564988125
    7    2865.2616382466      1.87E-06 Convergence criterion met
 Total energy in the final basis set = 2865.2616382466
   12    2865.2564988125      8.47E-08 Convergence criterion met
 Total energy in the final basis set = 2865.2564988125
    6    2865.2616382525      6.60E-06 Convergence criterion met
 Total energy in the final basis set = 2865.2616382525
   15    2865.2564988125      9.86E-08 Convergence criterion met
 Total energy in the final basis set = 2865.2564988125
    8    2865.2616382468      2.26E-06 Convergence criterion met
 Total energy in the final basis set = 2865.2616382468
   15    2865.2564988125      1.09E-07 Convergence criterion met
 Total energy in the final basis set = 2865.2564988125

                    Cartesian Multipole Moments
 -----------------------------------------------------------------
    Charge (ESU x 10^10)
                 0.0000
    Dipole Moment (Debye)
         X       0.7289      Y       1.0579      Z      -0.0396
       Tot       1.2853
    Quadrupole Moments (Debye-Ang)
        XX    -141.1819     XY      -0.0392     YY    -179.6196
        XZ      -3.1580     YZ      -1.0456     ZZ    -184.4684

 Total job time:  5271.11s(wall), 9082.77s(cpu)
        *  Thank you very much for using Q-Chem.  Have a nice day.  *
