 Q-Chem 4.4, Q-Chem, Inc., Pleasanton, CA (2016)
 Q-Chem 4.4.2 for Intel X86 Linux

User input:
--------------------------------------------------------------
$comment
OPTIMIZATION
$end

$rem
JOBTYPE OPT
EXCHANGE omegaB97X-D
BASIS cc-pVTZ
$end

$molecule
0 1
C          0.00000        0.00000        0.00000
C          1.38599        0.00000        0.00000
C         -0.68515       -1.20581        0.00000
C          2.08055       -1.19709        0.02226
C          0.00742       -2.40411        0.01179
C          1.40063       -2.41271        0.04151
C          2.15950       -3.67324        0.15696
C          3.15000       -3.81753        1.08952
C          1.92849       -4.81544       -0.65861
N          3.90172       -4.92812        1.27968
N          1.02636       -4.93526       -1.63501
C          2.72047       -5.99481       -0.47371
C          3.72589       -5.99344        0.54686
S          1.20518       -6.42345       -2.22449
N          2.39935       -6.98227       -1.31015
C          4.58521       -7.13898        0.84639
N          4.63628       -8.25491        0.18914
S          5.66574       -7.04518        2.20635
C          5.53850       -9.10417        0.74263
C          6.20238       -8.64513        1.84759
C          7.23575       -9.32194        2.60049
S          8.91482       -8.93041        2.43573
C          7.10254      -10.32386        3.52192
C          9.41032      -10.10979        3.56910
S          5.74728      -11.22368        4.14975
C          8.33376      -10.78278        4.07652
C          6.83554      -12.18939        5.12613
C          8.13224      -11.86471        5.00591
H         -0.54342        0.93472        0.00000
H          1.93260        0.93382       -0.01501
H         -1.76734       -1.21268        0.00047
H          3.16263       -1.19509        0.00785
H         -0.53593       -3.33924        0.01382
H          3.36185       -2.99842        1.76492
H          5.68114      -10.08542        0.31444
H         10.45305      -10.25172        3.79225
H          6.41144      -12.97006        5.73651
H          8.92340      -12.37400        5.53334
$end

$opt
CONSTRAINT
tors 4 6 7 8 47.06187
tors 10 13 16 18 4.63242
tors 18 20 21 22 -75.00000
ENDCONSTRAINT
$end
--------------------------------------------------------------

   16   -2579.8587754511      4.28E-09 Convergence criterion met
 Total energy in the final basis set = -2579.8587754511
   12   -2579.8593660395      5.47E-09 Convergence criterion met
 Total energy in the final basis set = -2579.8593660395
   12   -2579.8596095633      5.38E-09 Convergence criterion met
 Total energy in the final basis set = -2579.8596095633
   11   -2579.8596877021      8.41E-09 Convergence criterion met
 Total energy in the final basis set = -2579.8596877021
   11   -2579.8597277191      8.27E-09 Convergence criterion met
 Total energy in the final basis set = -2579.8597277191
   10   -2579.8597417782      8.39E-09 Convergence criterion met
 Total energy in the final basis set = -2579.8597417782
   10   -2579.8597490781      5.97E-09 Convergence criterion met
 Total energy in the final basis set = -2579.8597490781
    9   -2579.8597517879      9.40E-09 Convergence criterion met
 Total energy in the final basis set = -2579.8597517879

             Standard Nuclear Orientation (Angstroms)
    I     Atom           X                Y                Z
 ----------------------------------------------------------------
    1      C       7.8855960948     1.7350811856    -0.7129986814
    2      C       7.0663360815     2.4403400228     0.1539931051
    3      C       7.3891830469     0.6225283703    -1.3756209832
    4      C       5.7564139236     2.0365529095     0.3539160798
    5      C       6.0809950636     0.2176089287    -1.1772219804
    6      C       5.2453460418     0.9280349803    -0.3175992003
    7      C       3.8432440481     0.5178247191    -0.1098730687
    8      C       2.8144820987     1.4183323036    -0.1456775790
    9      C       3.4513093621    -0.8348358217     0.1035178189
   10      N       1.5021128854     1.1280417501     0.0341602072
   11      N       4.2503391265    -1.9027204008     0.1667208271
   12      C       2.0681370395    -1.1581762072     0.2844085604
   13      C       1.1072206173    -0.0973232437     0.2430125615
   14      S       3.2874576362    -3.1674492093     0.4235565678
   15      N       1.8495832828    -2.4600480432     0.4736882161
   16      C      -0.3327517827    -0.3015072182     0.4213865849
   17      N      -0.9129425170    -1.4255332719     0.7128957588
   18      S      -1.4096702761     1.0438685102     0.2258655145
   19      C      -2.2576205060    -1.2655509363     0.8037155514
   20      C      -2.7312843741    -0.0052048699     0.5829595679
   21      C      -4.1240619706     0.4245741700     0.5577565867
   22      S      -4.8242476115     1.4020230403     1.8005338968
   23      C      -5.0900814754     0.1073613122    -0.3528423114
   24      C      -6.3752256784     1.3889544778     1.0847043478
   25      S      -5.1010389533    -0.8244573201    -1.8247235805
   26      C      -6.3775440937     0.6533574014    -0.0676505655
   27      C      -6.8031251023    -0.4724587315    -2.0365553680
   28      C      -7.3442739494     0.2914744934    -1.0736445147
   29      H       8.9096389177     2.0462992156    -0.8678565059
   30      H       7.4495863710     3.3024433504     0.6823227146
   31      H       8.0248045681     0.0631606826    -2.0481624192
   32      H       5.1254372166     2.5786291191     1.0458315710
   33      H       5.7020058081    -0.6542756228    -1.6901835963
   34      H       3.0264489155     2.4624237238    -0.3387487280
   35      H      -2.8850235501    -2.1113936959     1.0425765059
   36      H      -7.1930095287     1.9135258012     1.5483427512
   37      H      -7.3044123772    -0.8777425102    -2.9005219639
   38      H      -8.3799287314     0.5937147167    -1.0619979987
 ----------------------------------------------------------------

    9   -2579.8597525033      5.80E-09 Convergence criterion met
 Total energy in the final basis set = -2579.8597525033
 Final energy is   -2579.85975250333
 **  OPTIMIZATION CONVERGED  **

                    Orbital Energies (a.u.)
 --------------------------------------------------------------

 Alpha MOs
 -- Occupied --
-89.150 -89.088 -89.087 -89.075 -14.486 -14.482 -14.455 -14.443
-10.365 -10.363 -10.358 -10.356 -10.339 -10.339 -10.336 -10.330
-10.328 -10.325 -10.325 -10.323 -10.312 -10.311 -10.303 -10.298
-10.296 -10.296 -10.295 -10.295  -8.160  -8.103  -8.102  -8.090
 -6.110  -6.104  -6.104  -6.052  -6.051  -6.048  -6.047  -6.046
 -6.045  -6.039  -6.036  -6.031  -1.146  -1.087  -1.065  -1.021
 -1.010  -0.975  -0.955  -0.925  -0.918  -0.899  -0.875  -0.859
 -0.856  -0.833  -0.826  -0.800  -0.775  -0.745  -0.734  -0.712
 -0.704  -0.694  -0.688  -0.657  -0.653  -0.634  -0.626  -0.615
 -0.607  -0.598  -0.572  -0.565  -0.555  -0.549  -0.542  -0.529
 -0.528  -0.524  -0.514  -0.514  -0.505  -0.503  -0.498  -0.484
 -0.477  -0.474  -0.468  -0.457  -0.450  -0.437  -0.436  -0.432
 -0.430  -0.422  -0.421  -0.400  -0.379  -0.374  -0.369  -0.363
 -0.359  -0.353  -0.340  -0.338  -0.322  -0.301  -0.282

          Ground-State Mulliken Net Atomic Charges

     Atom                 Charge (a.u.)
  ----------------------------------------
      1 C                    -0.123885
      2 C                    -0.108771
      3 C                    -0.109662
      4 C                    -0.151029
      5 C                    -0.120558
      6 C                     0.121161
      7 C                     0.015811
      8 C                    -0.108150
      9 C                     0.035013
     10 N                    -0.172484
     11 N                    -0.283045
     12 C                    -0.015005
     13 C                     0.107404
     14 S                     0.413266
     15 N                    -0.221794
     16 C                    -0.008897
     17 N                    -0.136240
     18 S                     0.148975
     19 C                    -0.117224
     20 C                    -0.065735
     21 C                    -0.035669
     22 S                     0.150040
     23 C                    -0.038891
     24 C                    -0.223353
     25 S                     0.060969
     26 C                     0.047264
     27 C                    -0.139893
     28 C                    -0.179587
     29 H                     0.118127
     30 H                     0.115788
     31 H                     0.115091
     32 H                     0.128172
     33 H                     0.114601
     34 H                     0.135801
     35 H                     0.143577
     36 H                     0.129452
     37 H                     0.131709
     38 H                     0.127649
  ----------------------------------------
  Sum of atomic charges =     0.000000

                    Cartesian Multipole Moments
 -----------------------------------------------------------------
    Charge (ESU x 10^10)
                 0.0000
    Dipole Moment (Debye)
         X      -0.4348      Y       0.7662      Z      -0.5139
       Tot       1.0199
    Quadrupole Moments (Debye-Ang)
        XX    -143.3323     XY       0.1015     YY    -181.0070
        XZ      -0.3603     YZ       5.9929     ZZ    -182.3114

 Total job time:  7323.61s(wall), 110564.24s(cpu)
        *  Thank you very much for using Q-Chem.  Have a nice day.  *
