 Q-Chem 4.4, Q-Chem, Inc., Pleasanton, CA (2016)
 Q-Chem 4.4.2 for Intel X86 Linux

User input:
--------------------------------------------------------------
$comment
OPTIMIZATION
$end

$rem
JOBTYPE OPT
EXCHANGE omegaB97X-D
BASIS cc-pVTZ
$end

$molecule
0 1
C          0.00000        0.00000        0.00000
C          1.38599        0.00000        0.00000
C         -0.68515       -1.20581        0.00000
C          2.08055       -1.19709        0.02226
C          0.00742       -2.40411        0.01179
C          1.40063       -2.41271        0.04151
C          2.15950       -3.67324        0.15696
C          3.15000       -3.81753        1.08952
C          1.92849       -4.81544       -0.65861
N          3.90172       -4.92812        1.27968
N          1.02636       -4.93526       -1.63501
C          2.72047       -5.99481       -0.47371
C          3.72589       -5.99344        0.54686
S          1.20518       -6.42345       -2.22449
N          2.39935       -6.98227       -1.31015
C          4.58521       -7.13898        0.84639
N          4.63628       -8.25491        0.18914
S          5.66574       -7.04518        2.20635
C          5.53850       -9.10417        0.74263
C          6.20238       -8.64513        1.84759
C          7.23575       -9.32194        2.60049
S          8.04060       -8.58549        3.94569
C          7.74023      -10.57983        2.41655
C          9.04137       -9.94226        4.22610
S          7.44142      -11.85080        1.26073
C          8.77111      -10.94184        3.33325
C          8.68714      -12.82979        2.00906
C          9.29072      -12.25776        3.06252
H         -0.54342        0.93472        0.00000
H          1.93260        0.93382       -0.01501
H         -1.76734       -1.21268        0.00047
H          3.16263       -1.19509        0.00785
H         -0.53593       -3.33924        0.01382
H          3.36185       -2.99842        1.76492
H          5.68114      -10.08542        0.31444
H          9.77276       -9.93035        5.01487
H          8.89515      -13.79795        1.58330
H         10.08385      -12.72954        3.62096
$end

$opt
CONSTRAINT
tors 4 6 7 8 47.06187
tors 10 13 16 18 4.63242
tors 18 20 21 22 0.00000
ENDCONSTRAINT
$end
--------------------------------------------------------------

   16   -2579.8619855411      4.98E-09 Convergence criterion met
 Total energy in the final basis set = -2579.8619855411
   11   -2579.8623463316      9.87E-09 Convergence criterion met
 Total energy in the final basis set = -2579.8623463316
   11   -2579.8624567142      6.90E-09 Convergence criterion met
 Total energy in the final basis set = -2579.8624567142
   10   -2579.8624878720      8.99E-09 Convergence criterion met
 Total energy in the final basis set = -2579.8624878720
    9   -2579.8624941993      8.59E-09 Convergence criterion met
 Total energy in the final basis set = -2579.8624941993
    9   -2579.8624962700      3.95E-09 Convergence criterion met
 Total energy in the final basis set = -2579.8624962700

             Standard Nuclear Orientation (Angstroms)
    I     Atom           X                Y                Z
 ----------------------------------------------------------------
    1      C      -8.0446538334     1.5542679664     0.0148494982
    2      C      -7.1569929688     2.1574461911    -0.8616643874
    3      C      -7.5910783331     0.5725108878     0.8833805256
    4      C      -5.8230349343     1.7844367250    -0.8652571777
    5      C      -6.2591731900     0.1961039302     0.8789428616
    6      C      -5.3564429530     0.8066629312     0.0106804985
    7      C      -3.9278364820     0.4378540480     0.0089279281
    8      C      -2.9396141263     1.3830826043     0.0181327394
    9      C      -3.4708598487    -0.9108269270     0.0111495282
   10      N      -1.6069923911     1.1342228729     0.0023812232
   11      N      -4.2234991406    -2.0130668522     0.0096822820
   12      C      -2.0662414650    -1.1904985806    -0.0002568308
   13      C      -1.1508891200    -0.0883872283    -0.0084847731
   14      S      -3.1985852281    -3.2552934145     0.0019560760
   15      N      -1.7866143134    -2.4939620629    -0.0040187372
   16      C       0.3026551500    -0.2412772938    -0.0300645825
   17      N       0.9603423858    -1.3542184271    -0.1235059726
   18      S       1.2974938587     1.1799851582     0.0834807092
   19      C       2.2982498863    -1.1344154928    -0.1110711379
   20      C       2.6964326173     0.1730134293    -0.0023305952
   21      C       4.0456918497     0.6864989581     0.0338459439
   22      S       4.3858731024     2.3782207346     0.1681213470
   23      C       5.2333384329     0.0021756300    -0.0232043657
   24      C       6.0780313946     2.1547289253     0.1453069489
   25      S       5.6682543757    -1.6778698185    -0.1582404202
   26      C       6.3940427000     0.8294555082     0.0381111850
   27      C       7.3666093971    -1.2553121083    -0.1345683398
   28      C       7.6098226199     0.0602962779    -0.0293678177
   29      H      -9.0869211832     1.8429180811     0.0176121009
   30      H      -7.5023528584     2.9149116530    -1.5518181370
   31      H      -8.2786029285     0.0943243760     1.5675111321
   32      H      -5.1368105400     2.2440761677    -1.5642448607
   33      H      -5.9155756437    -0.5721666417     1.5564649679
   34      H      -3.2057046830     2.4322994888     0.0480111529
   35      H       2.9656549597    -1.9790010031    -0.1872654873
   36      H       6.7378550749     3.0023644924     0.2119894918
   37      H       8.0936798160    -2.0475068775    -0.2083592401
   38      H       8.6004007084     0.4865329922    -0.0018184115
 ----------------------------------------------------------------

    9   -2579.8624969766      2.89E-09 Convergence criterion met
 Total energy in the final basis set = -2579.8624969766
 Final energy is   -2579.86249697655
 **  OPTIMIZATION CONVERGED  **

                    Orbital Energies (a.u.)
 --------------------------------------------------------------

 Alpha MOs
 -- Occupied --
-89.149 -89.091 -89.086 -89.080 -14.485 -14.481 -14.453 -14.443
-10.364 -10.361 -10.357 -10.355 -10.344 -10.343 -10.335 -10.333
-10.331 -10.328 -10.324 -10.322 -10.314 -10.311 -10.307 -10.297
-10.295 -10.295 -10.295 -10.294  -8.159  -8.106  -8.101  -8.095
 -6.109  -6.103  -6.103  -6.055  -6.051  -6.050  -6.049  -6.046
 -6.045  -6.044  -6.041  -6.037  -1.145  -1.086  -1.064  -1.024
 -1.009  -0.974  -0.960  -0.924  -0.920  -0.898  -0.877  -0.860
 -0.855  -0.833  -0.829  -0.803  -0.775  -0.744  -0.734  -0.713
 -0.705  -0.693  -0.692  -0.662  -0.651  -0.637  -0.627  -0.614
 -0.606  -0.597  -0.571  -0.563  -0.557  -0.548  -0.541  -0.532
 -0.532  -0.524  -0.514  -0.513  -0.508  -0.504  -0.498  -0.487
 -0.478  -0.476  -0.469  -0.455  -0.449  -0.442  -0.435  -0.433
 -0.430  -0.424  -0.420  -0.399  -0.398  -0.374  -0.367  -0.362
 -0.358  -0.353  -0.339  -0.338  -0.325  -0.307  -0.270

          Ground-State Mulliken Net Atomic Charges

     Atom                 Charge (a.u.)
  ----------------------------------------
      1 C                    -0.124367
      2 C                    -0.109134
      3 C                    -0.110087
      4 C                    -0.153369
      5 C                    -0.121489
      6 C                     0.121800
      7 C                     0.012832
      8 C                    -0.111324
      9 C                     0.034604
     10 N                    -0.174492
     11 N                    -0.280617
     12 C                    -0.011726
     13 C                     0.111445
     14 S                     0.411641
     15 N                    -0.223164
     16 C                    -0.007993
     17 N                    -0.143324
     18 S                     0.106577
     19 C                    -0.142542
     20 C                     0.002147
     21 C                     0.006697
     22 S                     0.120837
     23 C                    -0.033624
     24 C                    -0.216842
     25 S                     0.050533
     26 C                     0.038010
     27 C                    -0.150359
     28 C                    -0.169656
     29 H                     0.118177
     30 H                     0.115362
     31 H                     0.115669
     32 H                     0.129113
     33 H                     0.115073
     34 H                     0.136434
     35 H                     0.142894
     36 H                     0.131937
     37 H                     0.134556
     38 H                     0.127771
  ----------------------------------------
  Sum of atomic charges =     0.000000

                    Cartesian Multipole Moments
 -----------------------------------------------------------------
    Charge (ESU x 10^10)
                 0.0000
    Dipole Moment (Debye)
         X       0.9765      Y       0.9723      Z       0.1282
       Tot       1.3839
    Quadrupole Moments (Debye-Ang)
        XX    -138.1947     XY       0.0194     YY    -177.1260
        XZ      -1.2696     YZ      -3.0584     ZZ    -187.6632

 Total job time:  5700.66s(wall), 86187.57s(cpu)
        *  Thank you very much for using Q-Chem.  Have a nice day.  *
