 Q-Chem 4.4, Q-Chem, Inc., Pleasanton, CA (2016)
 Q-Chem 4.4.2 for Intel X86 Linux

User input:
--------------------------------------------------------------
$comment
OPTIMIZATION
$end

$rem
JOBTYPE OPT
EXCHANGE omegaB97X-D
BASIS cc-pVTZ
$end

$molecule
0 1
C          0.00000        0.00000        0.00000
C          1.38599        0.00000        0.00000
C         -0.68515       -1.20581        0.00000
C          2.08055       -1.19709        0.02226
C          0.00742       -2.40411        0.01179
C          1.40063       -2.41271        0.04151
C          2.15950       -3.67324        0.15696
C          3.15000       -3.81753        1.08952
C          1.92849       -4.81544       -0.65861
N          3.90172       -4.92812        1.27968
N          1.02636       -4.93526       -1.63501
C          2.72047       -5.99481       -0.47371
C          3.72589       -5.99344        0.54686
S          1.20518       -6.42345       -2.22449
N          2.39935       -6.98227       -1.31015
C          4.58521       -7.13898        0.84639
N          4.63628       -8.25491        0.18914
S          5.66574       -7.04518        2.20635
C          5.53850       -9.10417        0.74263
C          6.20238       -8.64513        1.84759
C          7.23575       -9.32194        2.60049
S          6.95858       -9.97756        4.17943
C          8.53349       -9.56282        2.24202
C          8.56475      -10.53770        4.34501
S          9.50072       -9.16807        0.84588
C          9.30015      -10.25030        3.22877
C         10.89692       -9.91399        1.59718
C         10.66637      -10.43621        2.81186
H         -0.54342        0.93472        0.00000
H          1.93260        0.93382       -0.01501
H         -1.76734       -1.21268        0.00047
H          3.16263       -1.19509        0.00785
H         -0.53593       -3.33924        0.01382
H          3.36185       -2.99842        1.76492
H          5.68114      -10.08542        0.31444
H          8.88262      -11.03276        5.24562
H         11.83103       -9.89798        1.05953
H         11.42716      -10.91868        3.40508
$end

$opt
CONSTRAINT
tors 4 6 7 8 47.06187
tors 10 13 16 18 4.63242
tors 18 20 21 22 75.00000
ENDCONSTRAINT
$end
--------------------------------------------------------------

   16   -2579.8592441221      4.33E-09 Convergence criterion met
 Total energy in the final basis set = -2579.8592441221
   12   -2579.8596154837      4.65E-09 Convergence criterion met
 Total energy in the final basis set = -2579.8596154837
   11   -2579.8597092686      8.67E-09 Convergence criterion met
 Total energy in the final basis set = -2579.8597092686
   11   -2579.8597402720      5.00E-09 Convergence criterion met
 Total energy in the final basis set = -2579.8597402720
   11   -2579.8597541179      5.03E-09 Convergence criterion met
 Total energy in the final basis set = -2579.8597541179
   10   -2579.8597599312      6.66E-09 Convergence criterion met
 Total energy in the final basis set = -2579.8597599312
   10   -2579.8597627172      5.40E-09 Convergence criterion met
 Total energy in the final basis set = -2579.8597627172
    9   -2579.8597637602      5.82E-09 Convergence criterion met
 Total energy in the final basis set = -2579.8597637602

             Standard Nuclear Orientation (Angstroms)
    I     Atom           X                Y                Z
 ----------------------------------------------------------------
    1      C      -7.8683496920     1.9124408595    -0.2643969531
    2      C      -6.8800196204     2.5028858247    -1.0357237275
    3      C      -7.5444615670     0.8607548014     0.5797868370
    4      C      -5.5743633716     2.0470351769    -0.9587264642
    5      C      -6.2409473857     0.4021635131     0.6561933183
    6      C      -5.2378868526     0.9986519295    -0.1052136290
    7      C      -3.8388729088     0.5378124050    -0.0198746768
    8      C      -2.7978044993     1.4143022058     0.1150525834
    9      C      -3.4684316875    -0.8369537218    -0.0480191457
   10      N      -1.4862023535     1.0783705976     0.1913480896
   11      N      -4.2858889208    -1.8864718631    -0.1614531559
   12      C      -2.0881107232    -1.2071762448     0.0375550097
   13      C      -1.1084687466    -0.1696401353     0.1580535703
   14      S      -3.3425798449    -3.1911140159    -0.1482870208
   15      N      -1.8908736043    -2.5254237893    -0.0071921254
   16      C       0.3326968804    -0.4196752180     0.2451774644
   17      N       0.9136834915    -1.5767550365     0.1538261714
   18      S       1.4082845046     0.9155576676     0.5051480008
   19      C       2.2581690290    -1.4548568653     0.2941370667
   20      C       2.7303865695    -0.1921705178     0.5046358342
   21      C       4.1211865501     0.2269158529     0.6273105240
   22      S       4.8072106997     0.7455274577     2.1276033871
   23      C       5.0954148305     0.2261855525    -0.3289088546
   24      C       6.3625574055     0.9727230959     1.4600517598
   25      S       5.1249292330    -0.1758776104    -2.0242500209
   26      C       6.3770679409     0.6543322486     0.1308213741
   27      C       6.8265468605     0.2331053967    -2.0932345788
   28      C       7.3538404211     0.6439323512    -0.9286181387
   29      H      -8.8883216850     2.2667158644    -0.3250172728
   30      H      -7.1259162502     3.3132392377    -1.7081210330
   31      H      -8.3117819150     0.3928363260     1.1810714626
   32      H      -4.8084812764     2.4966082873    -1.5767984181
   33      H      -5.9965865637    -0.4193187811     1.3139845913
   34      H      -2.9990408082     2.4764182375     0.1772844587
   35      H       2.8834996333    -2.3337275532     0.2423216715
   36      H       7.1722735789     1.3251030052     2.0757795252
   37      H       7.3388778966     0.1378928988    -3.0369630813
   38      H       8.3870647237     0.9300396002    -0.8079996642
 ----------------------------------------------------------------

    8   -2579.8597641163      8.72E-09 Convergence criterion met
 Total energy in the final basis set = -2579.8597641163
 Final energy is   -2579.85976411627
 **  OPTIMIZATION CONVERGED  **

                    Orbital Energies (a.u.)
 --------------------------------------------------------------

 Alpha MOs
 -- Occupied --
-89.150 -89.088 -89.086 -89.075 -14.486 -14.482 -14.455 -14.443
-10.365 -10.363 -10.358 -10.356 -10.339 -10.339 -10.336 -10.331
-10.328 -10.325 -10.324 -10.323 -10.312 -10.311 -10.303 -10.298
-10.296 -10.296 -10.295 -10.295  -8.160  -8.103  -8.102  -8.090
 -6.110  -6.104  -6.104  -6.052  -6.050  -6.048  -6.047  -6.046
 -6.045  -6.039  -6.036  -6.031  -1.146  -1.086  -1.065  -1.021
 -1.010  -0.975  -0.955  -0.925  -0.918  -0.899  -0.875  -0.859
 -0.856  -0.833  -0.826  -0.800  -0.775  -0.745  -0.734  -0.712
 -0.704  -0.694  -0.688  -0.657  -0.653  -0.634  -0.626  -0.615
 -0.607  -0.598  -0.572  -0.565  -0.555  -0.549  -0.542  -0.528
 -0.527  -0.525  -0.514  -0.513  -0.505  -0.504  -0.498  -0.484
 -0.477  -0.474  -0.469  -0.457  -0.450  -0.437  -0.436  -0.431
 -0.431  -0.422  -0.421  -0.400  -0.379  -0.374  -0.368  -0.363
 -0.360  -0.353  -0.340  -0.338  -0.322  -0.301  -0.282

          Ground-State Mulliken Net Atomic Charges

     Atom                 Charge (a.u.)
  ----------------------------------------
      1 C                    -0.123983
      2 C                    -0.108820
      3 C                    -0.109693
      4 C                    -0.152461
      5 C                    -0.121916
      6 C                     0.122246
      7 C                     0.014540
      8 C                    -0.108503
      9 C                     0.035593
     10 N                    -0.172767
     11 N                    -0.281566
     12 C                    -0.015090
     13 C                     0.106032
     14 S                     0.413323
     15 N                    -0.222019
     16 C                    -0.007332
     17 N                    -0.136708
     18 S                     0.148501
     19 C                    -0.117955
     20 C                    -0.064918
     21 C                    -0.036791
     22 S                     0.150823
     23 C                    -0.039847
     24 C                    -0.223939
     25 S                     0.061715
     26 C                     0.048043
     27 C                    -0.140950
     28 C                    -0.178665
     29 H                     0.117928
     30 H                     0.115166
     31 H                     0.116160
     32 H                     0.129496
     33 H                     0.114912
     34 H                     0.136586
     35 H                     0.143626
     36 H                     0.130031
     37 H                     0.131865
     38 H                     0.127338
  ----------------------------------------
  Sum of atomic charges =     0.000000

                    Cartesian Multipole Moments
 -----------------------------------------------------------------
    Charge (ESU x 10^10)
                 0.0000
    Dipole Moment (Debye)
         X       0.4102      Y       0.8967      Z      -0.0530
       Tot       0.9875
    Quadrupole Moments (Debye-Ang)
        XX    -142.8176     XY       0.8342     YY    -183.0309
        XZ      -2.1345     YZ      -2.2992     ZZ    -180.5966

 Total job time:  7213.34s(wall), 108950.57s(cpu)
        *  Thank you very much for using Q-Chem.  Have a nice day.  *
