 Q-Chem 4.4, Q-Chem, Inc., Pleasanton, CA (2016)
 Q-Chem 4.4.2 for Intel X86 Linux

User input:
--------------------------------------------------------------
$comment
OPTIMIZATION
$end

$rem
JOBTYPE OPT
EXCHANGE omegaB97X-D
BASIS cc-pVTZ
$end

$molecule
0 1
C          0.00000        0.00000        0.00000
C          1.38599        0.00000        0.00000
C         -0.68515       -1.20581        0.00000
C          2.08055       -1.19709        0.02226
C          0.00742       -2.40411        0.01179
C          1.40063       -2.41271        0.04151
C          2.15950       -3.67324        0.15696
C          3.15000       -3.81753        1.08952
C          1.92849       -4.81544       -0.65861
N          3.90172       -4.92812        1.27968
N          1.02636       -4.93526       -1.63501
C          2.72047       -5.99481       -0.47371
C          3.72589       -5.99344        0.54686
S          1.20518       -6.42345       -2.22449
N          2.39935       -6.98227       -1.31015
C          4.58521       -7.13898        0.84639
N          4.63628       -8.25491        0.18914
S          5.66574       -7.04518        2.20635
C          5.53850       -9.10417        0.74263
C          6.20238       -8.64513        1.84759
C          7.23575       -9.32194        2.60049
S          6.88779      -10.29930        3.98735
C          8.58588       -9.32714        2.38197
C          8.53104      -10.67846        4.26474
S          9.63068       -8.55392        1.21959
C          9.33320      -10.09240        3.32535
C         11.03110       -9.25294        2.00726
C         10.74899      -10.02435        3.06870
H         -0.54342        0.93472        0.00000
H          1.93260        0.93382       -0.01501
H         -1.76734       -1.21268        0.00047
H          3.16263       -1.19509        0.00785
H         -0.53593       -3.33924        0.01382
H          3.36185       -2.99842        1.76492
H          5.68114      -10.08542        0.31444
H          8.81828      -11.29512        5.09808
H         12.00557       -9.01831        1.61074
H         11.50324      -10.51476        3.66375
$end

$opt
CONSTRAINT
tors 4 6 7 8 47.06187
tors 10 13 16 18 4.63242
tors 18 20 21 22 90.00000
ENDCONSTRAINT
$end
--------------------------------------------------------------

   16   -2579.8587083484      4.31E-09 Convergence criterion met
 Total energy in the final basis set = -2579.8587083484
   12   -2579.8591663919      5.41E-09 Convergence criterion met
 Total energy in the final basis set = -2579.8591663919
   11   -2579.8592651257      6.82E-09 Convergence criterion met
 Total energy in the final basis set = -2579.8592651257
   10   -2579.8592882868      6.44E-09 Convergence criterion met
 Total energy in the final basis set = -2579.8592882868
   10   -2579.8592973599      4.35E-09 Convergence criterion met
 Total energy in the final basis set = -2579.8592973599
    9   -2579.8593006412      8.48E-09 Convergence criterion met
 Total energy in the final basis set = -2579.8593006412
    9   -2579.8593022503      7.23E-09 Convergence criterion met
 Total energy in the final basis set = -2579.8593022503

             Standard Nuclear Orientation (Angstroms)
    I     Atom           X                Y                Z
 ----------------------------------------------------------------
    1      C       7.7785428006     2.0679322532    -0.1592861917
    2      C       6.7739907125     2.7437908963     0.5146622031
    3      C       7.4904872624     0.8750061052    -0.8056196437
    4      C       5.4871782353     2.2323373325     0.5372534753
    5      C       6.2058711413     0.3604283310    -0.7813110597
    6      C       5.1859497852     1.0409421504    -0.1191978316
    7      C       3.8037786170     0.5247816396    -0.1067295833
    8      C       2.7325394675     1.3304378721    -0.3785942298
    9      C       3.4804738597    -0.8350290479     0.1652888201
   10      N       1.4326020939     0.9451958927    -0.3756121521
   11      N       4.3345221021    -1.8231451008     0.4426723019
   12      C       2.1121982903    -1.2574387595     0.1683973650
   13      C       1.0970951771    -0.2872251444    -0.1117970570
   14      S       3.4351704051    -3.1398215198     0.6692224157
   15      N       1.9600543470    -2.5537833056     0.4420478550
   16      C      -0.3360255968    -0.5937747227    -0.1320629975
   17      N      -0.8785354946    -1.7288996972     0.1879112156
   18      S      -1.4553803670     0.6387447637    -0.6142589938
   19      C      -2.2290769151    -1.6700064821     0.0613320870
   20      C      -2.7439612261    -0.4803707878    -0.3617830411
   21      C      -4.1456319954    -0.1353537916    -0.5795250648
   22      S      -4.9188238291    -0.3573528972    -2.1093977857
   23      C      -5.0468675680     0.3895395674     0.3005228179
   24      C      -6.4201076218     0.2413446874    -1.5582199045
   25      S      -4.9649497752     0.8645552269     1.9744433250
   26      C      -6.3485638179     0.6079739963    -0.2431052235
   27      C      -6.6495580345     1.3417596550     1.9243446817
   28      C      -7.2493366160     1.1615039041     0.7363072047
   29      H       8.7831963566     2.4676614200    -0.1767465211
   30      H       6.9928545608     3.6679731859     1.0318223623
   31      H       8.2708265079     0.3418407327    -1.3311170247
   32      H       4.7090237045     2.7525144021     1.0800183900
   33      H       5.9890520373    -0.5718344109    -1.2826571869
   34      H       2.8984790483     2.3711638827    -0.6269879198
   35      H      -2.8285407013    -2.5378870963     0.2926744040
   36      H      -7.2655288698     0.2885346372    -2.2231524400
   37      H      -7.0944956542     1.7424168184     2.8207105468
   38      H      -8.2827218114     1.4056020345     0.5451692085
 ----------------------------------------------------------------

    9   -2579.8593028183      4.18E-09 Convergence criterion met
 Total energy in the final basis set = -2579.8593028183
 Final energy is   -2579.85930281826
 **  OPTIMIZATION CONVERGED  **

                    Orbital Energies (a.u.)
 --------------------------------------------------------------

 Alpha MOs
 -- Occupied --
-89.150 -89.088 -89.086 -89.074 -14.486 -14.482 -14.455 -14.442
-10.365 -10.363 -10.358 -10.356 -10.339 -10.338 -10.336 -10.330
-10.328 -10.325 -10.324 -10.323 -10.312 -10.310 -10.303 -10.298
-10.296 -10.296 -10.296 -10.295  -8.160  -8.102  -8.101  -8.089
 -6.110  -6.104  -6.104  -6.052  -6.050  -6.048  -6.047  -6.045
 -6.045  -6.039  -6.035  -6.031  -1.146  -1.086  -1.065  -1.020
 -1.010  -0.975  -0.955  -0.926  -0.917  -0.899  -0.874  -0.859
 -0.856  -0.834  -0.825  -0.800  -0.775  -0.745  -0.734  -0.712
 -0.704  -0.695  -0.687  -0.657  -0.653  -0.633  -0.626  -0.615
 -0.607  -0.598  -0.572  -0.565  -0.556  -0.549  -0.542  -0.528
 -0.527  -0.525  -0.514  -0.513  -0.506  -0.503  -0.498  -0.483
 -0.477  -0.474  -0.468  -0.458  -0.450  -0.437  -0.436  -0.431
 -0.430  -0.422  -0.420  -0.400  -0.377  -0.373  -0.369  -0.365
 -0.360  -0.353  -0.340  -0.338  -0.322  -0.299  -0.285

          Ground-State Mulliken Net Atomic Charges

     Atom                 Charge (a.u.)
  ----------------------------------------
      1 C                    -0.123711
      2 C                    -0.110100
      3 C                    -0.109754
      4 C                    -0.152225
      5 C                    -0.122928
      6 C                     0.121541
      7 C                     0.014943
      8 C                    -0.109929
      9 C                     0.036572
     10 N                    -0.171978
     11 N                    -0.282203
     12 C                    -0.015272
     13 C                     0.107245
     14 S                     0.414011
     15 N                    -0.221834
     16 C                    -0.009557
     17 N                    -0.137966
     18 S                     0.153379
     19 C                    -0.106542
     20 C                    -0.071989
     21 C                    -0.048931
     22 S                     0.152425
     23 C                    -0.029925
     24 C                    -0.223701
     25 S                     0.060605
     26 C                     0.044560
     27 C                    -0.139963
     28 C                    -0.177329
     29 H                     0.117757
     30 H                     0.116768
     31 H                     0.116071
     32 H                     0.129381
     33 H                     0.116279
     34 H                     0.136146
     35 H                     0.140527
     36 H                     0.129647
     37 H                     0.131109
     38 H                     0.126869
  ----------------------------------------
  Sum of atomic charges =     0.000000

                    Cartesian Multipole Moments
 -----------------------------------------------------------------
    Charge (ESU x 10^10)
                 0.0000
    Dipole Moment (Debye)
         X      -0.3577      Y       1.0231      Z      -0.1830
       Tot       1.0991
    Quadrupole Moments (Debye-Ang)
        XX    -143.9080     XY      -1.6344     YY    -181.1192
        XZ      -1.4208     YZ       4.8490     ZZ    -182.0079

 Total job time:  6307.76s(wall), 95250.06s(cpu)
        *  Thank you very much for using Q-Chem.  Have a nice day.  *
