 Q-Chem 4.4, Q-Chem, Inc., Pleasanton, CA (2016)
 Q-Chem 4.4.2 for Intel X86 Linux

User input:
--------------------------------------------------------------
$comment
OPTIMIZATION
$end

$rem
JOBTYPE OPT
EXCHANGE omegaB97X-D
BASIS cc-pVTZ
$end

$molecule
0 1
C          0.00000        0.00000        0.00000
C          1.38599        0.00000        0.00000
C         -0.68515       -1.20581        0.00000
C          2.08055       -1.19709        0.02226
C          0.00742       -2.40411        0.01179
C          1.40063       -2.41271        0.04151
C          2.15950       -3.67324        0.15696
C          3.15000       -3.81753        1.08952
C          1.92849       -4.81544       -0.65861
N          3.90172       -4.92812        1.27968
N          1.02636       -4.93526       -1.63501
C          2.72047       -5.99481       -0.47371
C          3.72589       -5.99344        0.54686
S          1.20518       -6.42345       -2.22449
N          2.39935       -6.98227       -1.31015
C          4.58521       -7.13898        0.84639
N          4.63628       -8.25491        0.18914
S          5.66574       -7.04518        2.20635
C          5.53850       -9.10417        0.74263
C          6.20238       -8.64513        1.84759
C          7.23575       -9.32194        2.60049
S          8.70729       -9.87372        1.87259
C          7.25616       -9.63286        3.93223
C          9.31149      -10.52248        3.33377
S          6.12830       -9.42307        5.24542
C          8.43067      -10.31983        4.35967
C          7.22891      -10.25131        6.32842
C          8.37446      -10.65718        5.75895
H         -0.54342        0.93472        0.00000
H          1.93260        0.93382       -0.01501
H         -1.76734       -1.21268        0.00047
H          3.16263       -1.19509        0.00785
H         -0.53593       -3.33924        0.01382
H          3.36185       -2.99842        1.76492
H          5.68114      -10.08542        0.31444
H         10.26442      -11.02094        3.35967
H          6.92315      -10.39101        7.35257
H          9.14648      -11.18975        6.29172
$end

$opt
CONSTRAINT
tors 4 6 7 8 47.06187
tors 10 13 16 18 4.63242
tors 18 20 21 22 -120.00000
ENDCONSTRAINT
$end
--------------------------------------------------------------

   16   -2579.8602593244      4.43E-09 Convergence criterion met
 Total energy in the final basis set = -2579.8602593244
   12   -2579.8606366550      5.10E-09 Convergence criterion met
 Total energy in the final basis set = -2579.8606366550
   12   -2579.8608018641      9.44E-09 Convergence criterion met
 Total energy in the final basis set = -2579.8608018641
   11   -2579.8608252177      4.48E-09 Convergence criterion met
 Total energy in the final basis set = -2579.8608252177
   10   -2579.8608384159      8.53E-09 Convergence criterion met
 Total energy in the final basis set = -2579.8608384159
    9   -2579.8608405844      6.91E-09 Convergence criterion met
 Total energy in the final basis set = -2579.8608405844
    9   -2579.8608421069      7.26E-09 Convergence criterion met
 Total energy in the final basis set = -2579.8608421069

             Standard Nuclear Orientation (Angstroms)
    I     Atom           X                Y                Z
 ----------------------------------------------------------------
    1      C      -7.6725222897     2.1651156248    -0.3630026512
    2      C      -6.7417460142     2.4070953829    -1.3604616467
    3      C      -7.3298329340     1.3658852134     0.7177143745
    4      C      -5.4734212205     1.8581369293    -1.2729049667
    5      C      -6.0636337654     0.8136875446     0.8055172607
    6      C      -5.1158112430     1.0653152151    -0.1843502400
    7      C      -3.7505271957     0.5118030290    -0.1022174535
    8      C      -2.6474993477     1.2882621893    -0.3283201934
    9      C      -3.4733660384    -0.8464132198     0.2228966639
   10      N      -1.3613560569     0.8606128616    -0.3062947444
   11      N      -4.3624984315    -1.8019366396     0.5039197910
   12      C      -2.1189398226    -1.3108990042     0.2593724573
   13      C      -1.0699343294    -0.3813577153    -0.0340282592
   14      S      -3.5078847538    -3.1370287789     0.7884050873
   15      N      -2.0113983061    -2.6022669910     0.5737795709
   16      C       0.3499441420    -0.7393815501    -0.0621795456
   17      N       0.8430599316    -1.9301478990     0.0876263839
   18      S       1.5264693153     0.5088948458    -0.3266844141
   19      C       2.1979215408    -1.9055396883     0.0082932394
   20      C       2.7683387964    -0.6823769348    -0.1988042911
   21      C       4.1764987576    -0.3667669254    -0.3761862840
   22      S       5.1153842425    -1.1223771027    -1.6158553462
   23      C       4.9569872957     0.5448386587     0.2779107194
   24      C       6.5297357984    -0.2483483679    -1.2274359954
   25      S       4.6852735625     1.6490848089     1.5982219087
   26      C       6.3023627407     0.6162851130    -0.1927073693
   27      C       6.3506056351     2.1809409984     1.5026556960
   28      C       7.0777192488     1.5786407224     0.5478425486
   29      H      -8.6629115223     2.5944664978    -0.4282868139
   30      H      -7.0042298772     3.0202891911    -2.2116337031
   31      H      -8.0542620995     1.1690278602     1.4960217225
   32      H      -4.7532493117     2.0351749228    -2.0606891510
   33      H      -5.8055722236     0.1850606464     1.6455840703
   34      H      -2.7735186562     2.3413909433    -0.5461451236
   35      H       2.7564726980    -2.8237171670     0.1145731032
   36      H       7.4416992425    -0.4164581935    -1.7743008447
   37      H       6.6856727465     2.9374513232     2.1934543554
   38      H       8.1180778875     1.7955989196     0.3619688511
 ----------------------------------------------------------------

    9   -2579.8608432477      4.39E-09 Convergence criterion met
 Total energy in the final basis set = -2579.8608432477
 Final energy is   -2579.86084324774
 **  OPTIMIZATION CONVERGED  **

                    Orbital Energies (a.u.)
 --------------------------------------------------------------

 Alpha MOs
 -- Occupied --
-89.150 -89.089 -89.086 -89.075 -14.486 -14.482 -14.454 -14.443
-10.365 -10.363 -10.358 -10.356 -10.340 -10.340 -10.335 -10.331
-10.328 -10.325 -10.325 -10.323 -10.312 -10.311 -10.303 -10.298
-10.296 -10.296 -10.295 -10.295  -8.160  -8.104  -8.101  -8.090
 -6.110  -6.104  -6.104  -6.053  -6.050  -6.049  -6.047  -6.047
 -6.044  -6.040  -6.036  -6.032  -1.146  -1.086  -1.065  -1.021
 -1.010  -0.975  -0.956  -0.925  -0.919  -0.899  -0.873  -0.860
 -0.856  -0.835  -0.825  -0.800  -0.774  -0.745  -0.734  -0.712
 -0.704  -0.697  -0.687  -0.661  -0.650  -0.631  -0.625  -0.615
 -0.608  -0.598  -0.572  -0.565  -0.557  -0.549  -0.542  -0.529
 -0.528  -0.525  -0.514  -0.513  -0.509  -0.502  -0.494  -0.484
 -0.477  -0.475  -0.469  -0.456  -0.449  -0.437  -0.436  -0.432
 -0.431  -0.422  -0.420  -0.400  -0.383  -0.375  -0.368  -0.363
 -0.359  -0.352  -0.340  -0.338  -0.322  -0.303  -0.278

          Ground-State Mulliken Net Atomic Charges

     Atom                 Charge (a.u.)
  ----------------------------------------
      1 C                    -0.122966
      2 C                    -0.109811
      3 C                    -0.108146
      4 C                    -0.151545
      5 C                    -0.121389
      6 C                     0.120983
      7 C                     0.014761
      8 C                    -0.112194
      9 C                     0.036042
     10 N                    -0.172060
     11 N                    -0.281914
     12 C                    -0.013911
     13 C                     0.106349
     14 S                     0.413904
     15 N                    -0.222540
     16 C                    -0.005054
     17 N                    -0.138799
     18 S                     0.143878
     19 C                    -0.129445
     20 C                    -0.045351
     21 C                    -0.020187
     22 S                     0.146224
     23 C                    -0.052281
     24 C                    -0.223587
     25 S                     0.062298
     26 C                     0.045812
     27 C                    -0.141050
     28 C                    -0.175927
     29 H                     0.117059
     30 H                     0.115850
     31 H                     0.114958
     32 H                     0.128904
     33 H                     0.114772
     34 H                     0.136590
     35 H                     0.140793
     36 H                     0.130254
     37 H                     0.131869
     38 H                     0.126857
  ----------------------------------------
  Sum of atomic charges =     0.000000

                    Cartesian Multipole Moments
 -----------------------------------------------------------------
    Charge (ESU x 10^10)
                 0.0000
    Dipole Moment (Debye)
         X       0.5005      Y       1.2132      Z      -0.1273
       Tot       1.3186
    Quadrupole Moments (Debye-Ang)
        XX    -144.6403     XY       0.5810     YY    -181.3438
        XZ      -2.6374     YZ      -0.0503     ZZ    -181.1539

 Total job time:  6439.21s(wall), 97266.54s(cpu)
        *  Thank you very much for using Q-Chem.  Have a nice day.  *
