 Q-Chem 4.4, Q-Chem, Inc., Pleasanton, CA (2016)
 Q-Chem 4.4.2 for Intel X86 Linux

User input:
--------------------------------------------------------------
$comment
OPTIMIZATION
$end

$rem
JOBTYPE OPT
EXCHANGE omegaB97X-D
BASIS cc-pVTZ
$end

$molecule
0 1
C          0.00000        0.00000        0.00000
C          1.38599        0.00000        0.00000
C         -0.68515       -1.20581        0.00000
C          2.08055       -1.19709        0.02226
C          0.00742       -2.40411        0.01179
C          1.40063       -2.41271        0.04151
C          2.15950       -3.67324        0.15696
C          3.15000       -3.81753        1.08952
C          1.92849       -4.81544       -0.65861
N          3.90172       -4.92812        1.27968
N          1.02636       -4.93526       -1.63501
C          2.72047       -5.99481       -0.47371
C          3.72589       -5.99344        0.54686
S          1.20518       -6.42345       -2.22449
N          2.39935       -6.98227       -1.31015
C          4.58521       -7.13898        0.84639
N          4.63628       -8.25491        0.18914
S          5.66574       -7.04518        2.20635
C          5.53850       -9.10417        0.74263
C          6.20238       -8.64513        1.84759
C          7.23575       -9.32194        2.60049
S          7.77374       -8.76571        4.14997
C          7.93552      -10.44861        2.26648
C          8.92561      -10.01713        4.31769
S          7.95268      -11.49932        0.87497
C          8.90269      -10.85095        3.23436
C          9.23949      -12.44320        1.59845
C          9.63522      -12.01548        2.80749
H         -0.54342        0.93472        0.00000
H          1.93260        0.93382       -0.01501
H         -1.76734       -1.21268        0.00047
H          3.16263       -1.19509        0.00785
H         -0.53593       -3.33924        0.01382
H          3.36185       -2.99842        1.76492
H          5.68114      -10.08542        0.31444
H          9.55754      -10.06772        5.18679
H          9.63163      -13.27769        1.04013
H         10.42350      -12.48477        3.37482
$end

$opt
CONSTRAINT
tors 4 6 7 8 47.06187
tors 10 13 16 18 4.63242
tors 18 20 21 22 15.00000
ENDCONSTRAINT
$end
--------------------------------------------------------------

   16   -2579.8621913801      4.91E-09 Convergence criterion met
 Total energy in the final basis set = -2579.8621913801
   12   -2579.8625128438      5.48E-09 Convergence criterion met
 Total energy in the final basis set = -2579.8625128438
   11   -2579.8625951188      6.14E-09 Convergence criterion met
 Total energy in the final basis set = -2579.8625951188
   10   -2579.8626119859      6.13E-09 Convergence criterion met
 Total energy in the final basis set = -2579.8626119859
    9   -2579.8626160761      6.53E-09 Convergence criterion met
 Total energy in the final basis set = -2579.8626160761

             Standard Nuclear Orientation (Angstroms)
    I     Atom           X                Y                Z
 ----------------------------------------------------------------
    1      C      -8.0367504548     1.5676844383    -0.1755499429
    2      C      -7.1404350679     2.1036816792    -1.0862805783
    3      C      -7.5930123253     0.6503714789     0.7654424297
    4      C      -5.8074125911     1.7287277319    -1.0517125136
    5      C      -6.2622495909     0.2719533597     0.7993977381
    6      C      -5.3507449601     0.8161404675    -0.1032363690
    7      C      -3.9231864389     0.4453526568    -0.0622310438
    8      C      -2.9320328459     1.3863230242    -0.1101397639
    9      C      -3.4705592864    -0.9002057275     0.0495381202
   10      N      -1.6000192371     1.1343997099    -0.0816535031
   11      N      -4.2267461790    -1.9981382903     0.1163201360
   12      C      -2.0670910123    -1.1825988866     0.0854382459
   13      C      -1.1479197884    -0.0861234156     0.0118734383
   14      S      -3.2059877770    -3.2390687021     0.2210655443
   15      N      -1.7917526938    -2.4832254865     0.1850364591
   16      C       0.3052872004    -0.2434931629     0.0373853141
   17      N       0.9591477609    -1.3626968578     0.0464188671
   18      S       1.3043954249     1.1792748469     0.0663446299
   19      C       2.2973414694    -1.1470252105     0.0833129797
   20      C       2.6985135649     0.1631638245     0.1039526691
   21      C       4.0503865865     0.6705869321     0.1416134925
   22      S       4.4096423309     2.3178668846     0.5314919226
   23      C       5.2269949441     0.0064989800    -0.0928497749
   24      C       6.0955924796     2.1054195016     0.3695334440
   25      S       5.6368916775    -1.6245391958    -0.5434922007
   26      C       6.3952501004     0.8151075644     0.0329570665
   27      C       7.3369032070    -1.2074546225    -0.5543031993
   28      C       7.5978191523     0.0715348225    -0.2418590354
   29      H      -9.0780833823     1.8584292910    -0.2022383735
   30      H      -7.4779346146     2.8112759525    -1.8311279796
   31      H      -8.2879457980     0.2265749550     1.4774486531
   32      H      -5.1137430306     2.1335678004    -1.7768087601
   33      H      -5.9266258568    -0.4475653397     1.5322105714
   34      H      -3.1946756004     2.4352424152    -0.1677426309
   35      H       2.9631804480    -1.9961789407     0.1122002953
   36      H       6.7661580021     2.9315522361     0.5310773056
   37      H       8.0526343500    -1.9748277702    -0.8000971086
   38      H       8.5919180461     0.4888226703    -0.2048885683
 ----------------------------------------------------------------

    9   -2579.8626170196      3.38E-09 Convergence criterion met
 Total energy in the final basis set = -2579.8626170196
 Final energy is   -2579.86261701962
 **  OPTIMIZATION CONVERGED  **

                    Orbital Energies (a.u.)
 --------------------------------------------------------------

 Alpha MOs
 -- Occupied --
-89.149 -89.091 -89.086 -89.080 -14.485 -14.481 -14.453 -14.443
-10.364 -10.361 -10.357 -10.355 -10.344 -10.343 -10.335 -10.333
-10.331 -10.328 -10.324 -10.322 -10.314 -10.311 -10.306 -10.297
-10.295 -10.295 -10.295 -10.294  -8.159  -8.106  -8.101  -8.094
 -6.109  -6.103  -6.103  -6.055  -6.051  -6.050  -6.049  -6.047
 -6.044  -6.044  -6.040  -6.036  -1.145  -1.086  -1.064  -1.024
 -1.009  -0.974  -0.960  -0.925  -0.920  -0.898  -0.877  -0.860
 -0.855  -0.833  -0.829  -0.803  -0.775  -0.744  -0.734  -0.712
 -0.705  -0.693  -0.692  -0.661  -0.651  -0.637  -0.627  -0.614
 -0.606  -0.597  -0.571  -0.563  -0.557  -0.548  -0.541  -0.532
 -0.531  -0.524  -0.514  -0.513  -0.508  -0.504  -0.498  -0.487
 -0.478  -0.476  -0.469  -0.455  -0.449  -0.442  -0.436  -0.433
 -0.430  -0.424  -0.420  -0.399  -0.397  -0.374  -0.367  -0.362
 -0.358  -0.353  -0.339  -0.338  -0.325  -0.307  -0.270

          Ground-State Mulliken Net Atomic Charges

     Atom                 Charge (a.u.)
  ----------------------------------------
      1 C                    -0.124459
      2 C                    -0.109016
      3 C                    -0.109973
      4 C                    -0.152622
      5 C                    -0.120874
      6 C                     0.121425
      7 C                     0.013483
      8 C                    -0.110099
      9 C                     0.033997
     10 N                    -0.174563
     11 N                    -0.280873
     12 C                    -0.012461
     13 C                     0.110554
     14 S                     0.411831
     15 N                    -0.222916
     16 C                    -0.008288
     17 N                    -0.140467
     18 S                     0.109827
     19 C                    -0.143304
     20 C                    -0.003640
     21 C                     0.006973
     22 S                     0.125223
     23 C                    -0.039581
     24 C                    -0.218568
     25 S                     0.052920
     26 C                     0.039920
     27 C                    -0.148717
     28 C                    -0.169260
     29 H                     0.118065
     30 H                     0.115230
     31 H                     0.115674
     32 H                     0.128855
     33 H                     0.114538
     34 H                     0.136224
     35 H                     0.143228
     36 H                     0.131114
     37 H                     0.132886
     38 H                     0.127713
  ----------------------------------------
  Sum of atomic charges =     0.000000

                    Cartesian Multipole Moments
 -----------------------------------------------------------------
    Charge (ESU x 10^10)
                 0.0000
    Dipole Moment (Debye)
         X       0.9310      Y       0.9667      Z       0.0599
       Tot       1.3435
    Quadrupole Moments (Debye-Ang)
        XX    -138.5791     XY      -0.0345     YY    -178.1005
        XZ      -1.6644     YZ      -2.0700     ZZ    -186.6236

 Total job time:  5017.60s(wall), 75762.37s(cpu)
        *  Thank you very much for using Q-Chem.  Have a nice day.  *
