 Q-Chem 4.4, Q-Chem, Inc., Pleasanton, CA (2016)
 Q-Chem 4.4.2 for Intel X86 Linux

User input:
--------------------------------------------------------------
$comment
OPTIMIZATION
$end

$rem
JOBTYPE OPT
EXCHANGE omegaB97X-D
BASIS cc-pVTZ
$end

$molecule
0 1
C          0.00000        0.00000        0.00000
C          1.38599        0.00000        0.00000
C         -0.68515       -1.20581        0.00000
C          2.08055       -1.19709        0.02226
C          0.00742       -2.40411        0.01179
C          1.40063       -2.41271        0.04151
C          2.15950       -3.67324        0.15696
C          3.15000       -3.81753        1.08952
C          1.92849       -4.81544       -0.65861
N          3.90172       -4.92812        1.27968
N          1.02636       -4.93526       -1.63501
C          2.72047       -5.99481       -0.47371
C          3.72589       -5.99344        0.54686
S          1.20518       -6.42345       -2.22449
N          2.39935       -6.98227       -1.31015
C          4.58521       -7.13898        0.84639
N          4.63628       -8.25491        0.18914
S          5.66574       -7.04518        2.20635
C          5.53850       -9.10417        0.74263
C          6.20238       -8.64513        1.84759
C          7.23575       -9.32194        2.60049
S          7.50293      -11.02939        2.48675
C          8.13824       -8.78962        3.47957
C          8.78530      -11.01145        3.61642
S          8.42856       -7.18583        4.09937
C          9.02218       -9.74243        4.06684
C          9.70629       -7.80867        5.12393
C          9.91825       -9.12934        5.01348
H         -0.54342        0.93472        0.00000
H          1.93260        0.93382       -0.01501
H         -1.76734       -1.21268        0.00047
H          3.16263       -1.19509        0.00785
H         -0.53593       -3.33924        0.01382
H          3.36185       -2.99842        1.76492
H          5.68114      -10.08542        0.31444
H          9.28406      -11.92322        3.89415
H         10.22090       -7.11622        5.77013
H         10.66179       -9.66145        5.58576
$end

$opt
CONSTRAINT
tors 4 6 7 8 47.06187
tors 10 13 16 18 4.63242
tors 18 20 21 22 165.00000
ENDCONSTRAINT
$end
--------------------------------------------------------------

   16   -2579.8617236281      5.38E-09 Convergence criterion met
 Total energy in the final basis set = -2579.8617236281
   12   -2579.8623145908      6.77E-09 Convergence criterion met
 Total energy in the final basis set = -2579.8623145908
   11   -2579.8624506953      7.09E-09 Convergence criterion met
 Total energy in the final basis set = -2579.8624506953
   10   -2579.8624843626      7.21E-09 Convergence criterion met
 Total energy in the final basis set = -2579.8624843626
   10   -2579.8624928855      4.65E-09 Convergence criterion met
 Total energy in the final basis set = -2579.8624928855
    9   -2579.8624960052      9.64E-09 Convergence criterion met
 Total energy in the final basis set = -2579.8624960052
    9   -2579.8624970330      3.54E-09 Convergence criterion met
 Total energy in the final basis set = -2579.8624970330

             Standard Nuclear Orientation (Angstroms)
    I     Atom           X                Y                Z
 ----------------------------------------------------------------
    1      C      -7.5922284736     2.2588216554     0.2404557789
    2      C      -6.6489786493     2.7793381247    -0.6311619287
    3      C      -7.2729848253     1.1572031219     1.0202767042
    4      C      -5.3908837899     2.2060253243    -0.7168428020
    5      C      -6.0182123128     0.5804583401     0.9329057621
    6      C      -5.0580014251     1.1059900009     0.0705513937
    7      C      -3.7039266284     0.5240808719    -0.0009705496
    8      C      -2.5806445721     1.3028159280     0.0445297593
    9      C      -3.4616674816    -0.8764272708    -0.0913642104
   10      N      -1.3027338312     0.8521769783     0.0021042528
   11      N      -4.3764778012    -1.8466160319    -0.1565135956
   12      C      -2.1174679535    -1.3684516085    -0.1358802561
   13      C      -1.0414455799    -0.4240326862    -0.0797983953
   14      S      -3.5557009522    -3.2286904038    -0.2559265463
   15      N      -2.0432261618    -2.6964254644    -0.2270071172
   16      C       0.3697095382    -0.8039250131    -0.0967520866
   17      N       0.8437660523    -2.0030578108    -0.2409405809
   18      S       1.5754938187     0.4303644469     0.1137152917
   19      C       2.1968189661    -2.0003629087    -0.2014874757
   20      C       2.7957263595    -0.7819979090    -0.0143539580
   21      C       4.2055088495    -0.4837637866     0.0815444638
   22      S       5.3695682590    -1.7417092106     0.3331607378
   23      C       4.8627483749     0.7160307745     0.0037673251
   24      C       6.6969848732    -0.6669578580     0.3132983724
   25      S       4.3593730376     2.3670548657    -0.2327600281
   26      C       6.2815534000     0.6215799590     0.1310245444
   27      C       6.0268799335     2.8949284045    -0.1626130087
   28      C       6.9180750024     1.9095447302     0.0280479502
   29      H      -8.5739543454     2.7073844696     0.3072320036
   30      H      -6.8943585811     3.6287811041    -1.2538366043
   31      H      -8.0049387110     0.7457092367     1.7016976775
   32      H      -4.6623800653     2.6023303520    -1.4119210124
   33      H      -5.7769612552    -0.2778261588     1.5432268864
   34      H      -2.6806594338     2.3770250612     0.1386795097
   35      H       2.7306433860    -2.9318571239    -0.3208332680
   36      H       7.6983416633    -1.0419691256     0.4379495083
   37      H       6.2354210452     3.9468241303    -0.2726482749
   38      H       7.9826932676     2.0702013134     0.0963484529
 ----------------------------------------------------------------

    8   -2579.8624973384      5.60E-09 Convergence criterion met
 Total energy in the final basis set = -2579.8624973384
 Final energy is   -2579.86249733841
 **  OPTIMIZATION CONVERGED  **

                    Orbital Energies (a.u.)
 --------------------------------------------------------------

 Alpha MOs
 -- Occupied --
-89.148 -89.091 -89.086 -89.079 -14.484 -14.481 -14.452 -14.443
-10.364 -10.360 -10.356 -10.355 -10.344 -10.343 -10.334 -10.333
-10.330 -10.328 -10.323 -10.322 -10.314 -10.311 -10.306 -10.297
-10.295 -10.295 -10.294 -10.294  -8.158  -8.105  -8.102  -8.093
 -6.108  -6.103  -6.102  -6.055  -6.051  -6.051  -6.048  -6.047
 -6.045  -6.043  -6.039  -6.035  -1.145  -1.086  -1.064  -1.024
 -1.009  -0.974  -0.959  -0.924  -0.921  -0.898  -0.873  -0.860
 -0.855  -0.837  -0.826  -0.802  -0.773  -0.744  -0.733  -0.713
 -0.704  -0.699  -0.687  -0.665  -0.649  -0.630  -0.624  -0.614
 -0.607  -0.599  -0.571  -0.564  -0.559  -0.548  -0.542  -0.532
 -0.531  -0.524  -0.514  -0.513  -0.512  -0.501  -0.491  -0.486
 -0.481  -0.475  -0.468  -0.455  -0.448  -0.441  -0.435  -0.433
 -0.429  -0.423  -0.420  -0.399  -0.397  -0.373  -0.367  -0.359
 -0.358  -0.352  -0.340  -0.338  -0.325  -0.308  -0.268

          Ground-State Mulliken Net Atomic Charges

     Atom                 Charge (a.u.)
  ----------------------------------------
      1 C                    -0.123421
      2 C                    -0.109492
      3 C                    -0.110066
      4 C                    -0.152849
      5 C                    -0.121803
      6 C                     0.122586
      7 C                     0.012065
      8 C                    -0.108907
      9 C                     0.033052
     10 N                    -0.175808
     11 N                    -0.281462
     12 C                    -0.012738
     13 C                     0.112178
     14 S                     0.411953
     15 N                    -0.223763
     16 C                    -0.009496
     17 N                    -0.139023
     18 S                     0.111768
     19 C                    -0.142354
     20 C                     0.010407
     21 C                     0.018400
     22 S                     0.121491
     23 C                    -0.055470
     24 C                    -0.218216
     25 S                     0.060915
     26 C                     0.037608
     27 C                    -0.152324
     28 C                    -0.167869
     29 H                     0.117086
     30 H                     0.115527
     31 H                     0.115699
     32 H                     0.128902
     33 H                     0.114800
     34 H                     0.136067
     35 H                     0.130857
     36 H                     0.131679
     37 H                     0.134091
     38 H                     0.127930
  ----------------------------------------
  Sum of atomic charges =     0.000000

                    Cartesian Multipole Moments
 -----------------------------------------------------------------
    Charge (ESU x 10^10)
                 0.0000
    Dipole Moment (Debye)
         X       1.0506      Y       1.3084      Z       0.2722
       Tot       1.6999
    Quadrupole Moments (Debye-Ang)
        XX    -142.8542     XY       0.4023     YY    -174.8676
        XZ      -1.2247     YZ      -4.1127     ZZ    -187.9161

 Total job time:  6435.93s(wall), 97422.65s(cpu)
        *  Thank you very much for using Q-Chem.  Have a nice day.  *
