 Q-Chem 4.4, Q-Chem, Inc., Pleasanton, CA (2016)
 Q-Chem 4.4.2 for Intel X86 Linux

User input:
--------------------------------------------------------------
$comment
OPTIMIZATION
$end

$rem
JOBTYPE OPT
EXCHANGE omegaB97X-D
BASIS cc-pVTZ
$end

$molecule
0 1
C          0.00000        0.00000        0.00000
C          1.38599        0.00000        0.00000
C         -0.68515       -1.20581        0.00000
C          2.08055       -1.19709        0.02226
C          0.00742       -2.40411        0.01179
C          1.40063       -2.41271        0.04151
C          2.15950       -3.67324        0.15696
C          3.15000       -3.81753        1.08952
C          1.92849       -4.81544       -0.65861
N          3.90172       -4.92812        1.27968
N          1.02636       -4.93526       -1.63501
C          2.72047       -5.99481       -0.47371
C          3.72589       -5.99344        0.54686
S          1.20518       -6.42345       -2.22449
N          2.39935       -6.98227       -1.31015
C          4.58521       -7.13898        0.84639
N          4.63628       -8.25491        0.18914
S          5.66574       -7.04518        2.20635
C          5.53850       -9.10417        0.74263
C          6.20238       -8.64513        1.84759
C          7.23575       -9.32194        2.60049
S          7.51551       -9.01350        4.28165
C          8.12465      -10.26781        2.16942
C          8.81279      -10.12196        4.37829
S          8.44588      -11.01963        0.62924
C          9.02952      -10.72715        3.17157
C          9.77067      -11.91946        1.34019
C          9.96623      -11.68789        2.64765
H         -0.54342        0.93472        0.00000
H          1.93260        0.93382       -0.01501
H         -1.76734       -1.21268        0.00047
H          3.16263       -1.19509        0.00785
H         -0.53593       -3.33924        0.01382
H          3.36185       -2.99842        1.76492
H          5.68114      -10.08542        0.31444
H          9.34733      -10.26118        5.30139
H         10.33871      -12.57554        0.70083
H         10.74840      -12.15709        3.22345
$end

$opt
CONSTRAINT
tors 4 6 7 8 47.06187
tors 10 13 16 18 4.63242
tors 18 20 21 22 30.00000
ENDCONSTRAINT
$end
--------------------------------------------------------------

   16   -2579.8620675353      4.69E-09 Convergence criterion met
 Total energy in the final basis set = -2579.8620675353
   11   -2579.8623206420      9.99E-09 Convergence criterion met
 Total energy in the final basis set = -2579.8623206420
   11   -2579.8624079267      8.48E-09 Convergence criterion met
 Total energy in the final basis set = -2579.8624079267
   10   -2579.8624224013      6.77E-09 Convergence criterion met
 Total energy in the final basis set = -2579.8624224013
   10   -2579.8624283335      5.19E-09 Convergence criterion met
 Total energy in the final basis set = -2579.8624283335
    9   -2579.8624300357      8.56E-09 Convergence criterion met
 Total energy in the final basis set = -2579.8624300357
   10   -2579.8624311135      4.41E-09 Convergence criterion met
 Total energy in the final basis set = -2579.8624311135

             Standard Nuclear Orientation (Angstroms)
    I     Atom           X                Y                Z
 ----------------------------------------------------------------
    1      C      -8.0171393396     1.5928902041    -0.3338771773
    2      C      -7.1087713801     2.0825844936    -1.2587504225
    3      C      -7.5885163774     0.7180337138     0.6533151279
    4      C      -5.7780802634     1.7034492542    -1.1928805942
    5      C      -6.2599794802     0.3361149902     0.7192215124
    6      C      -5.3362626393     0.8349085224    -0.1971976916
    7      C      -3.9116169764     0.4581382666    -0.1226922988
    8      C      -2.9136351317     1.3896512183    -0.2047120879
    9      C      -3.4693619540    -0.8820091356     0.0678496924
   10      N      -1.5839363060     1.1320001848    -0.1415696878
   11      N      -4.2334268529    -1.9710752746     0.1787422401
   12      C      -2.0686189676    -1.1693311294     0.1445601693
   13      C      -1.1413325364    -0.0835691247     0.0296857974
   14      S      -3.2221490778    -3.2099869528     0.3673786781
   15      N      -1.8031536655    -2.4644056834     0.3177790017
   16      C       0.3106488802    -0.2468887266     0.0934466848
   17      N       0.9548576773    -1.3681538651     0.1893969880
   18      S       1.3190422808     1.1688083650     0.0625258282
   19      C       2.2930916633    -1.1579272192     0.2536335280
   20      C       2.7018482155     0.1478757832     0.2091561126
   21      C       4.0596472358     0.6449825815     0.2343076873
   22      S       4.4646438243     2.2051675689     0.8634019527
   23      C       5.2097583319     0.0162909416    -0.1639473430
   24      C       6.1356265053     2.0096785149     0.5725552511
   25      S       5.5651746785    -1.5278116237    -0.8871570793
   26      C       6.3963340499     0.7860732210     0.0219990969
   27      C       7.2687849859    -1.1268466677    -0.9276527353
   28      C       7.5691029397     0.0845193659    -0.4333361019
   29      H      -9.0567240535     1.8864655588    -0.3857406753
   30      H      -7.4352114220     2.7569851160    -2.0384609911
   31      H      -8.2933925108     0.3313349764     1.3765138757
   32      H      -5.0745437426     2.0703040291    -1.9285621426
   33      H      -5.9354909349    -0.3518467373     1.4864847699
   34      H      -3.1679997076     2.4353987631    -0.3236221951
   35      H       2.9570572413    -2.0031576872     0.3570574267
   36      H       6.8267235501     2.7977088809     0.8169823780
   37      H       7.9572314589    -1.8523190346    -1.3296839198
   38      H       8.5711801343     0.4815385478    -0.3882149662
 ----------------------------------------------------------------

    8   -2579.8624314321      7.37E-09 Convergence criterion met
 Total energy in the final basis set = -2579.8624314321
 Final energy is   -2579.86243143206
 **  OPTIMIZATION CONVERGED  **

                    Orbital Energies (a.u.)
 --------------------------------------------------------------

 Alpha MOs
 -- Occupied --
-89.149 -89.091 -89.086 -89.079 -14.485 -14.481 -14.453 -14.443
-10.365 -10.362 -10.357 -10.355 -10.343 -10.342 -10.335 -10.333
-10.330 -10.327 -10.324 -10.322 -10.313 -10.311 -10.305 -10.297
-10.296 -10.295 -10.295 -10.294  -8.159  -8.105  -8.101  -8.093
 -6.109  -6.104  -6.103  -6.055  -6.051  -6.050  -6.048  -6.047
 -6.044  -6.043  -6.039  -6.035  -1.146  -1.086  -1.064  -1.023
 -1.010  -0.974  -0.959  -0.925  -0.920  -0.898  -0.877  -0.860
 -0.855  -0.833  -0.828  -0.802  -0.775  -0.744  -0.734  -0.712
 -0.705  -0.693  -0.691  -0.660  -0.651  -0.637  -0.626  -0.614
 -0.606  -0.598  -0.571  -0.564  -0.556  -0.548  -0.542  -0.531
 -0.530  -0.524  -0.514  -0.513  -0.507  -0.504  -0.498  -0.486
 -0.478  -0.476  -0.469  -0.455  -0.449  -0.440  -0.436  -0.433
 -0.430  -0.423  -0.421  -0.399  -0.394  -0.374  -0.367  -0.362
 -0.358  -0.353  -0.339  -0.338  -0.324  -0.306  -0.272

          Ground-State Mulliken Net Atomic Charges

     Atom                 Charge (a.u.)
  ----------------------------------------
      1 C                    -0.124499
      2 C                    -0.109086
      3 C                    -0.109708
      4 C                    -0.151792
      5 C                    -0.120499
      6 C                     0.121100
      7 C                     0.014583
      8 C                    -0.109022
      9 C                     0.033839
     10 N                    -0.174347
     11 N                    -0.281652
     12 C                    -0.013617
     13 C                     0.109284
     14 S                     0.412202
     15 N                    -0.222499
     16 C                    -0.008613
     17 N                    -0.137548
     18 S                     0.118723
     19 C                    -0.145803
     20 C                    -0.013049
     21 C                     0.005349
     22 S                     0.132994
     23 C                    -0.051448
     24 C                    -0.220475
     25 S                     0.056686
     26 C                     0.043773
     27 C                    -0.146821
     28 C                    -0.171655
     29 H                     0.117986
     30 H                     0.115392
     31 H                     0.115584
     32 H                     0.128471
     33 H                     0.114340
     34 H                     0.135880
     35 H                     0.145112
     36 H                     0.130063
     37 H                     0.132910
     38 H                     0.127862
  ----------------------------------------
  Sum of atomic charges =     0.000000

                    Cartesian Multipole Moments
 -----------------------------------------------------------------
    Charge (ESU x 10^10)
                 0.0000
    Dipole Moment (Debye)
         X       0.8181      Y       0.9300      Z      -0.0072
       Tot       1.2387
    Quadrupole Moments (Debye-Ang)
        XX    -139.4903     XY      -0.1002     YY    -179.2057
        XZ      -1.9337     YZ      -1.2741     ZZ    -185.3464

 Total job time:  6394.64s(wall), 96645.10s(cpu)
        *  Thank you very much for using Q-Chem.  Have a nice day.  *
