 Q-Chem 4.4, Q-Chem, Inc., Pleasanton, CA (2016)
 Q-Chem 4.4.2 for Intel X86 Linux

User input:
--------------------------------------------------------------
$comment
OPTIMIZATION
$end

$rem
JOBTYPE OPT
EXCHANGE omegaB97X-D
BASIS cc-pVTZ
$end

$molecule
0 1
C          0.00000        0.00000        0.00000
C          1.38599        0.00000        0.00000
C         -0.68515       -1.20581        0.00000
C          2.08055       -1.19709        0.02226
C          0.00742       -2.40411        0.01179
C          1.40063       -2.41271        0.04151
C          2.15950       -3.67324        0.15696
C          3.15000       -3.81753        1.08952
C          1.92849       -4.81544       -0.65861
N          3.90172       -4.92812        1.27968
N          1.02636       -4.93526       -1.63501
C          2.72047       -5.99481       -0.47371
C          3.72589       -5.99344        0.54686
S          1.20518       -6.42345       -2.22449
N          2.39935       -6.98227       -1.31015
C          4.58521       -7.13898        0.84639
N          4.63628       -8.25491        0.18914
S          5.66574       -7.04518        2.20635
C          5.53850       -9.10417        0.74263
C          6.20238       -8.64513        1.84759
C          7.23575       -9.32194        2.60049
S          8.29791       -8.48513        3.68275
C          7.55210      -10.65253        2.60942
C          9.15218       -9.90247        4.10978
S          6.94695      -12.05011        1.76023
C          8.64375      -10.99362        3.46151
C          8.15125      -13.05289        2.54403
C          8.95620      -12.39824        3.39538
H         -0.54342        0.93472        0.00000
H          1.93260        0.93382       -0.01501
H         -1.76734       -1.21268        0.00047
H          3.16263       -1.19509        0.00785
H         -0.53593       -3.33924        0.01382
H          3.36185       -2.99842        1.76492
H          5.68114      -10.08542        0.31444
H          9.97833       -9.85844        4.79736
H          8.17946      -14.10085        2.29331
H          9.75262      -12.87472        3.94508
$end

$opt
CONSTRAINT
tors 4 6 7 8 47.06187
tors 10 13 16 18 4.63242
tors 18 20 21 22 -15.00000
ENDCONSTRAINT
$end
--------------------------------------------------------------

   16   -2579.8618451465      4.88E-09 Convergence criterion met
 Total energy in the final basis set = -2579.8618451465
   12   -2579.8623014685      5.15E-09 Convergence criterion met
 Total energy in the final basis set = -2579.8623014685
   12   -2579.8624834024      4.71E-09 Convergence criterion met
 Total energy in the final basis set = -2579.8624834024
   10   -2579.8625202820      8.64E-09 Convergence criterion met
 Total energy in the final basis set = -2579.8625202820
   10   -2579.8625325748      4.41E-09 Convergence criterion met
 Total energy in the final basis set = -2579.8625325748
    9   -2579.8625367672      5.76E-09 Convergence criterion met
 Total energy in the final basis set = -2579.8625367672
    9   -2579.8625381015      5.25E-09 Convergence criterion met
 Total energy in the final basis set = -2579.8625381015

             Standard Nuclear Orientation (Angstroms)
    I     Atom           X                Y                Z
 ----------------------------------------------------------------
    1      C      -8.0387591217     1.5519087466     0.1818165384
    2      C      -7.1479207786     2.2221523390    -0.6409793933
    3      C      -7.5896881966     0.5029989363     0.9703804581
    4      C      -5.8147339616     1.8476413955    -0.6712071363
    5      C      -6.2582553547     0.1256925734     0.9396702759
    6      C      -5.3523878965     0.8021841098     0.1253461746
    7      C      -3.9246662802     0.4312660794     0.0914319109
    8      C      -2.9351446074     1.3717653243     0.1730533897
    9      C      -3.4688047504    -0.9136944385    -0.0142317206
   10      N      -1.6031582903     1.1250385580     0.1208376695
   11      N      -4.2219489257    -2.0133261188    -0.0872601794
   12      C      -2.0645871467    -1.1914769473    -0.0634233690
   13      C      -1.1484243397    -0.0921070625    -0.0006060206
   14      S      -3.1978829795    -3.2512004297    -0.1971511584
   15      N      -1.7857632847    -2.4911041793    -0.1657377298
   16      C       0.3042841805    -0.2408464813    -0.0689629160
   17      N       0.9583407672    -1.3398068140    -0.2817807669
   18      S       1.3015211872     1.1680474664     0.1367941253
   19      C       2.2956920724    -1.1160650722    -0.3013767991
   20      C       2.6955933602     0.1784250480    -0.0955657034
   21      C       4.0459867614     0.6899764865    -0.0610922144
   22      S       4.3956837327     2.3818497419    -0.1617987482
   23      C       5.2272438712     0.0006694523     0.0373964822
   24      C       6.0845201511     2.1522164285    -0.0653032349
   25      S       5.6480935010    -1.6822557979     0.1850303653
   26      C       6.3920795270     0.8243626295     0.0359200509
   27      C       7.3472760794    -1.2654963692     0.2408812273
   28      C       7.6005116067     0.0497123772     0.1541348500
   29      H      -9.0806381360     1.8411374270     0.2046871819
   30      H      -7.4907677239     3.0329776760    -1.2689294532
   31      H      -8.2793698937    -0.0282828806     1.6117258678
   32      H      -5.1263917832     2.3615391253    -1.3290321173
   33      H      -5.9174138629    -0.6952857836     1.5536475949
   34      H      -3.1991472436     2.4148471719     0.2940022151
   35      H       2.9645008908    -1.9415024544    -0.4924606817
   36      H       6.7482695210     2.9991704777    -0.0869144145
   37      H       8.0679402211    -2.0604251839     0.3430098882
   38      H       8.5930213108     0.4718224956     0.1751930387
 ----------------------------------------------------------------

    8   -2579.8625384301      6.80E-09 Convergence criterion met
 Total energy in the final basis set = -2579.8625384301
 Final energy is   -2579.86253843011
 **  OPTIMIZATION CONVERGED  **

                    Orbital Energies (a.u.)
 --------------------------------------------------------------

 Alpha MOs
 -- Occupied --
-89.149 -89.091 -89.086 -89.080 -14.485 -14.481 -14.453 -14.443
-10.364 -10.361 -10.357 -10.355 -10.344 -10.343 -10.335 -10.333
-10.331 -10.328 -10.324 -10.322 -10.314 -10.311 -10.306 -10.297
-10.295 -10.295 -10.295 -10.294  -8.159  -8.106  -8.101  -8.095
 -6.109  -6.103  -6.103  -6.055  -6.051  -6.050  -6.049  -6.047
 -6.044  -6.044  -6.040  -6.036  -1.145  -1.086  -1.064  -1.024
 -1.009  -0.974  -0.960  -0.925  -0.920  -0.898  -0.877  -0.860
 -0.855  -0.833  -0.829  -0.803  -0.775  -0.744  -0.734  -0.712
 -0.705  -0.693  -0.692  -0.661  -0.651  -0.637  -0.627  -0.614
 -0.606  -0.598  -0.571  -0.563  -0.557  -0.548  -0.541  -0.532
 -0.531  -0.524  -0.514  -0.514  -0.508  -0.504  -0.498  -0.487
 -0.478  -0.476  -0.469  -0.455  -0.449  -0.442  -0.435  -0.433
 -0.430  -0.424  -0.420  -0.399  -0.396  -0.374  -0.367  -0.362
 -0.358  -0.353  -0.339  -0.338  -0.325  -0.307  -0.270

          Ground-State Mulliken Net Atomic Charges

     Atom                 Charge (a.u.)
  ----------------------------------------
      1 C                    -0.124483
      2 C                    -0.109412
      3 C                    -0.109665
      4 C                    -0.152701
      5 C                    -0.121795
      6 C                     0.120870
      7 C                     0.012342
      8 C                    -0.112129
      9 C                     0.036453
     10 N                    -0.174273
     11 N                    -0.281558
     12 C                    -0.012138
     13 C                     0.111133
     14 S                     0.411939
     15 N                    -0.222988
     16 C                    -0.008927
     17 N                    -0.140531
     18 S                     0.110788
     19 C                    -0.142213
     20 C                    -0.004115
     21 C                     0.006884
     22 S                     0.124766
     23 C                    -0.040247
     24 C                    -0.218474
     25 S                     0.052987
     26 C                     0.039856
     27 C                    -0.149639
     28 C                    -0.169392
     29 H                     0.118239
     30 H                     0.115785
     31 H                     0.115393
     32 H                     0.129097
     33 H                     0.115745
     34 H                     0.136353
     35 H                     0.142861
     36 H                     0.131621
     37 H                     0.133763
     38 H                     0.127806
  ----------------------------------------
  Sum of atomic charges =     0.000000

                    Cartesian Multipole Moments
 -----------------------------------------------------------------
    Charge (ESU x 10^10)
                 0.0000
    Dipole Moment (Debye)
         X       0.9282      Y       0.9558      Z       0.1918
       Tot       1.3461
    Quadrupole Moments (Debye-Ang)
        XX    -138.5893     XY       0.0976     YY    -176.5630
        XZ      -0.8305     YZ      -3.9849     ZZ    -188.1660

 Total job time:  6503.79s(wall), 98010.09s(cpu)
        *  Thank you very much for using Q-Chem.  Have a nice day.  *
