 Q-Chem 4.4, Q-Chem, Inc., Pleasanton, CA (2016)
 Q-Chem 4.4.2 for Intel X86 Linux

User input:
--------------------------------------------------------------
$comment
OPTIMIZATION
$end

$rem
JOBTYPE OPT
EXCHANGE omegaB97X-D
BASIS cc-pVTZ
$end

$molecule
0 1
C          0.00000        0.00000        0.00000
C          1.38599        0.00000        0.00000
C         -0.68515       -1.20581        0.00000
C          2.08055       -1.19709        0.02226
C          0.00742       -2.40411        0.01179
C          1.40063       -2.41271        0.04151
C          2.15950       -3.67324        0.15696
C          3.15000       -3.81753        1.08952
C          1.92849       -4.81544       -0.65861
N          3.90172       -4.92812        1.27968
N          1.02636       -4.93526       -1.63501
C          2.72047       -5.99481       -0.47371
C          3.72589       -5.99344        0.54686
S          1.20518       -6.42345       -2.22449
N          2.39935       -6.98227       -1.31015
C          4.58521       -7.13898        0.84639
N          4.63628       -8.25491        0.18914
S          5.66574       -7.04518        2.20635
C          5.53850       -9.10417        0.74263
C          6.20238       -8.64513        1.84759
C          7.23575       -9.32194        2.60049
S          8.84747       -8.70195        2.73354
C          7.15123      -10.49162        3.30429
C          9.38411      -10.00778        3.69677
S          5.88197      -11.65589        3.57635
C          8.36881      -10.89364        3.92875
C          6.98729      -12.65032        4.50350
C          8.22795      -12.15115        4.61704
H         -0.54342        0.93472        0.00000
H          1.93260        0.93382       -0.01501
H         -1.76734       -1.21268        0.00047
H          3.16263       -1.19509        0.00785
H         -0.53593       -3.33924        0.01382
H          3.36185       -2.99842        1.76492
H          5.68114      -10.08542        0.31444
H         10.40598      -10.06046        4.02878
H          6.61813      -13.58042        4.90414
H          9.02313      -12.65121        5.14726
$end

$opt
CONSTRAINT
tors 4 6 7 8 47.06187
tors 10 13 16 18 4.63242
tors 18 20 21 22 -60.00000
ENDCONSTRAINT
$end
--------------------------------------------------------------

   16   -2579.8599185262      4.28E-09 Convergence criterion met
 Total energy in the final basis set = -2579.8599185262
   12   -2579.8605634708      7.00E-09 Convergence criterion met
 Total energy in the final basis set = -2579.8605634708
   12   -2579.8608384147      4.40E-09 Convergence criterion met
 Total energy in the final basis set = -2579.8608384147
   12   -2579.8609605865      3.56E-09 Convergence criterion met
 Total energy in the final basis set = -2579.8609605865
   11   -2579.8610137654      9.03E-09 Convergence criterion met
 Total energy in the final basis set = -2579.8610137654
   10   -2579.8610271480      7.78E-09 Convergence criterion met
 Total energy in the final basis set = -2579.8610271480
    9   -2579.8610310359      6.77E-09 Convergence criterion met
 Total energy in the final basis set = -2579.8610310359

             Standard Nuclear Orientation (Angstroms)
    I     Atom           X                Y                Z
 ----------------------------------------------------------------
    1      C       7.9502577404     1.5964432133    -0.7438064626
    2      C       7.1313510495     2.3641748250     0.0687753658
    3      C       7.4438256603     0.4555367159    -1.3480577500
    4      C       5.8117185165     1.9949436411     0.2719035018
    5      C       6.1263257025     0.0844792688    -1.1455825155
    6      C       5.2911427942     0.8571968047    -0.3410201962
    7      C       3.8775112977     0.4859077043    -0.1373323313
    8      C       2.8678024245     1.4016252836    -0.2486521611
    9      C       3.4548184447    -0.8437292768     0.1491758738
   10      N       1.5464375631     1.1463648524    -0.0823794354
   11      N       4.2313706432    -1.9199038833     0.2955163318
   12      C       2.0621462500    -1.1303376353     0.3189999497
   13      C       1.1229599552    -0.0567860686     0.1914426284
   14      S       3.2393404866    -3.1487009708     0.6082108216
   15      N       1.8144803404    -2.4137587131     0.5830560829
   16      C      -0.3235911154    -0.2222990607     0.3479054808
   17      N      -0.9350264799    -1.3120138965     0.6984690898
   18      S      -1.3666742353     1.1313329990     0.0446163537
   19      C      -2.2765309879    -1.1170349090     0.7578687184
   20      C      -2.7167911669     0.1391967167     0.4524991725
   21      C      -4.0949081455     0.5955395489     0.3814928187
   22      S      -4.6780346733     1.9381527603     1.3034226741
   23      C      -5.1406476649     0.0353864638    -0.2964125860
   24      C      -6.2842237612     1.7559499476     0.7517727331
   25      S      -5.2936821761    -1.3147287625    -1.3879956244
   26      C      -6.3925798988     0.6916607225    -0.0993137626
   27      C      -7.0040137852    -0.9833795286    -1.5637000511
   28      C      -7.4482542302     0.0671897308    -0.8552048456
   29      H       8.9814027003     1.8814309392    -0.9019818206
   30      H       7.5220863418     3.2495154304     0.5512397870
   31      H       8.0782397036    -0.1501007735    -1.9805246278
   32      H       5.1802692469     2.5869104397     0.9212744508
   33      H       5.7392777824    -0.8077751589    -1.6154976311
   34      H       3.1042661605     2.4286725560    -0.4969168132
   35      H      -2.9259139287    -1.9313702001     1.0429693882
   36      H      -7.0504021197     2.4397475913     1.0744009126
   37      H      -7.5875856735    -1.6221173789    -2.2066659339
   38      H      -8.4750922147     0.3982563187    -0.8572293243
 ----------------------------------------------------------------

    9   -2579.8610318594      4.05E-09 Convergence criterion met
 Total energy in the final basis set = -2579.8610318594
 Final energy is   -2579.86103185936
 **  OPTIMIZATION CONVERGED  **

                    Orbital Energies (a.u.)
 --------------------------------------------------------------

 Alpha MOs
 -- Occupied --
-89.150 -89.089 -89.087 -89.076 -14.485 -14.482 -14.454 -14.443
-10.365 -10.363 -10.358 -10.356 -10.340 -10.340 -10.336 -10.331
-10.328 -10.325 -10.325 -10.323 -10.312 -10.311 -10.304 -10.298
-10.296 -10.296 -10.295 -10.294  -8.160  -8.103  -8.102  -8.091
 -6.110  -6.104  -6.104  -6.053  -6.051  -6.049  -6.047  -6.046
 -6.045  -6.041  -6.037  -6.032  -1.146  -1.086  -1.065  -1.021
 -1.010  -0.975  -0.956  -0.925  -0.918  -0.899  -0.876  -0.859
 -0.856  -0.833  -0.827  -0.801  -0.775  -0.745  -0.734  -0.712
 -0.705  -0.693  -0.689  -0.658  -0.652  -0.636  -0.626  -0.615
 -0.606  -0.598  -0.572  -0.564  -0.555  -0.549  -0.542  -0.529
 -0.528  -0.524  -0.514  -0.514  -0.505  -0.503  -0.498  -0.485
 -0.477  -0.475  -0.468  -0.456  -0.449  -0.437  -0.436  -0.433
 -0.430  -0.422  -0.421  -0.400  -0.384  -0.374  -0.368  -0.362
 -0.359  -0.353  -0.340  -0.338  -0.323  -0.304  -0.277

          Ground-State Mulliken Net Atomic Charges

     Atom                 Charge (a.u.)
  ----------------------------------------
      1 C                    -0.124037
      2 C                    -0.108132
      3 C                    -0.109048
      4 C                    -0.150812
      5 C                    -0.119575
      6 C                     0.121027
      7 C                     0.015397
      8 C                    -0.107823
      9 C                     0.034479
     10 N                    -0.172874
     11 N                    -0.282113
     12 C                    -0.014888
     13 C                     0.107756
     14 S                     0.413285
     15 N                    -0.221924
     16 C                    -0.009001
     17 N                    -0.136148
     18 S                     0.141323
     19 C                    -0.135469
     20 C                    -0.044593
     21 C                    -0.017959
     22 S                     0.146291
     23 C                    -0.054179
     24 C                    -0.223154
     25 S                     0.061462
     26 C                     0.049569
     27 C                    -0.140417
     28 C                    -0.178420
     29 H                     0.117913
     30 H                     0.115176
     31 H                     0.114414
     32 H                     0.127421
     33 H                     0.113556
     34 H                     0.135559
     35 H                     0.147388
     36 H                     0.129461
     37 H                     0.131158
     38 H                     0.127932
  ----------------------------------------
  Sum of atomic charges =     0.000000

                    Cartesian Multipole Moments
 -----------------------------------------------------------------
    Charge (ESU x 10^10)
                 0.0000
    Dipole Moment (Debye)
         X      -0.5494      Y       0.7396      Z      -0.4814
       Tot       1.0395
    Quadrupole Moments (Debye-Ang)
        XX    -142.0662     XY       0.3416     YY    -178.4797
        XZ      -0.4159     YZ       6.1679     ZZ    -185.2932

 Total job time:  6623.38s(wall), 99980.70s(cpu)
        *  Thank you very much for using Q-Chem.  Have a nice day.  *
