 Q-Chem 4.4, Q-Chem, Inc., Pleasanton, CA (2016)
 Q-Chem 4.4.2 for Intel X86 Linux

User input:
--------------------------------------------------------------
$comment
OPTIMIZATION
$end

$rem
JOBTYPE OPT
EXCHANGE omegaB97X-D
BASIS cc-pVTZ
$end

$molecule
0 1
C          0.00000        0.00000        0.00000
C          1.38599        0.00000        0.00000
C         -0.68515       -1.20581        0.00000
C          2.08055       -1.19709        0.02226
C          0.00742       -2.40411        0.01179
C          1.40063       -2.41271        0.04151
C          2.15950       -3.67324        0.15696
C          3.15000       -3.81753        1.08952
C          1.92849       -4.81544       -0.65861
N          3.90172       -4.92812        1.27968
N          1.02636       -4.93526       -1.63501
C          2.72047       -5.99481       -0.47371
C          3.72589       -5.99344        0.54686
S          1.20518       -6.42345       -2.22449
N          2.39935       -6.98227       -1.31015
C          4.58521       -7.13898        0.84639
N          4.63628       -8.25491        0.18914
S          5.66574       -7.04518        2.20635
C          5.53850       -9.10417        0.74263
C          6.20238       -8.64513        1.84759
C          7.23575       -9.32194        2.60049
S          8.51733      -10.20254        1.83773
C          7.39561       -9.39240        3.95699
C          9.22689      -10.66428        3.32242
S          6.48808       -8.79153        5.31932
C          8.52297      -10.15718        4.37918
C          7.61306       -9.56728        6.41608
C          8.61327      -10.23026        5.81496
H         -0.54342        0.93472        0.00000
H          1.93260        0.93382       -0.01501
H         -1.76734       -1.21268        0.00047
H          3.16263       -1.19509        0.00785
H         -0.53593       -3.33924        0.01382
H          3.36185       -2.99842        1.76492
H          5.68114      -10.08542        0.31444
H         10.10592      -11.28411        3.34064
H          7.43216       -9.47775        7.47492
H          9.37799      -10.76736        6.35367
$end

$opt
CONSTRAINT
tors 4 6 7 8 47.06187
tors 10 13 16 18 4.63242
tors 18 20 21 22 -135.00000
ENDCONSTRAINT
$end
--------------------------------------------------------------

   16   -2579.8613186805      4.66E-09 Convergence criterion met
 Total energy in the final basis set = -2579.8613186805
   12   -2579.8617058310      5.71E-09 Convergence criterion met
 Total energy in the final basis set = -2579.8617058310
   12   -2579.8618353638      8.81E-09 Convergence criterion met
 Total energy in the final basis set = -2579.8618353638
   10   -2579.8618488767      3.74E-09 Convergence criterion met
 Total energy in the final basis set = -2579.8618488767
   10   -2579.8618550626      3.57E-09 Convergence criterion met
 Total energy in the final basis set = -2579.8618550626
    9   -2579.8618560829      5.72E-09 Convergence criterion met
 Total energy in the final basis set = -2579.8618560829

             Standard Nuclear Orientation (Angstroms)
    I     Atom           X                Y                Z
 ----------------------------------------------------------------
    1      C      -7.6465045486     2.1921758305    -0.3607189480
    2      C      -6.7066504611     2.4491030482    -1.3458551586
    3      C      -7.3164358465     1.3696478219     0.7063454882
    4      C      -5.4417389935     1.8920935515    -1.2593953112
    5      C      -6.0537874381     0.8092742896     0.7928303424
    6      C      -5.0967702933     1.0758411957    -0.1842324413
    7      C      -3.7351012600     0.5137119781    -0.1012405795
    8      C      -2.6258755446     1.2882253140    -0.3020754854
    9      C      -3.4683545773    -0.8521019338     0.2000762524
   10      N      -1.3421265543     0.8536248225    -0.2752019077
   11      N      -4.3653493324    -1.8081569667     0.4525324403
   12      C      -2.1168650229    -1.3246561456     0.2410698811
   13      C      -1.0598573966    -0.3948900368    -0.0231850899
   14      S      -3.5208142528    -3.1536592505     0.7182800023
   15      N      -2.0193955514    -2.6226425414     0.5299866834
   16      C       0.3570883835    -0.7606244572    -0.0417121358
   17      N       0.8425176327    -1.9561029873     0.0922402929
   18      S       1.5450275966     0.4862451268    -0.2692358018
   19      C       2.1974793872    -1.9384787505     0.0324341142
   20      C       2.7783300256    -0.7142575876    -0.1493010391
   21      C       4.1882817138    -0.4081354777    -0.2915555200
   22      S       5.2203497777    -1.4035934038    -1.2586124454
   23      C       4.9208125080     0.6311140107     0.2136141760
   24      C       6.6059341270    -0.4544357284    -0.9504360932
   25      S       4.5551711814     1.9883161702     1.2441294585
   26      C       6.3009005224     0.6108218110    -0.1495488861
   27      C       6.2280584248     2.4985425380     1.1756919404
   28      C       7.0234535600     1.7134933654     0.4314955768
   29      H      -8.6341051534     2.6280312646    -0.4250129093
   30      H      -6.9591761287     3.0808069825    -2.1864124179
   31      H      -8.0477442224     1.1614523129     1.4752203572
   32      H      -4.7146939738     2.0808009361    -2.0381090042
   33      H      -5.8055308774     0.1620020083     1.6216233418
   34      H      -2.7442779885     2.3459230138    -0.5013556251
   35      H       2.7478078909    -2.8619132188     0.1369345130
   36      H       7.5577626122    -0.7311339049    -1.3703452309
   37      H       6.5163402150     3.3863273995     1.7148185902
   38      H       8.0771545283     1.8949360131     0.2874699013
 ----------------------------------------------------------------

    8   -2579.8618564963      8.65E-09 Convergence criterion met
 Total energy in the final basis set = -2579.8618564963
 Final energy is   -2579.86185649626
 **  OPTIMIZATION CONVERGED  **

                    Orbital Energies (a.u.)
 --------------------------------------------------------------

 Alpha MOs
 -- Occupied --
-89.149 -89.090 -89.086 -89.076 -14.485 -14.482 -14.454 -14.443
-10.365 -10.362 -10.357 -10.356 -10.341 -10.341 -10.335 -10.332
-10.329 -10.326 -10.324 -10.322 -10.312 -10.312 -10.304 -10.297
-10.296 -10.296 -10.295 -10.294  -8.159  -8.104  -8.101  -8.091
 -6.109  -6.104  -6.103  -6.053  -6.050  -6.050  -6.047  -6.047
 -6.045  -6.041  -6.037  -6.033  -1.146  -1.086  -1.065  -1.022
 -1.010  -0.975  -0.957  -0.925  -0.919  -0.899  -0.873  -0.860
 -0.856  -0.836  -0.825  -0.801  -0.774  -0.745  -0.733  -0.712
 -0.704  -0.698  -0.687  -0.662  -0.650  -0.631  -0.625  -0.614
 -0.608  -0.598  -0.572  -0.564  -0.558  -0.549  -0.542  -0.530
 -0.529  -0.525  -0.514  -0.513  -0.511  -0.502  -0.493  -0.485
 -0.478  -0.476  -0.469  -0.455  -0.449  -0.438  -0.436  -0.433
 -0.430  -0.423  -0.420  -0.399  -0.389  -0.374  -0.368  -0.362
 -0.359  -0.352  -0.339  -0.338  -0.323  -0.305  -0.274

          Ground-State Mulliken Net Atomic Charges

     Atom                 Charge (a.u.)
  ----------------------------------------
      1 C                    -0.123082
      2 C                    -0.109694
      3 C                    -0.108130
      4 C                    -0.151464
      5 C                    -0.121175
      6 C                     0.121079
      7 C                     0.014274
      8 C                    -0.112179
      9 C                     0.035752
     10 N                    -0.173004
     11 N                    -0.282084
     12 C                    -0.013290
     13 C                     0.108055
     14 S                     0.413263
     15 N                    -0.222827
     16 C                    -0.006928
     17 N                    -0.138381
     18 S                     0.134100
     19 C                    -0.139983
     20 C                    -0.025285
     21 C                     0.000403
     22 S                     0.138834
     23 C                    -0.061032
     24 C                    -0.224683
     25 S                     0.062331
     26 C                     0.045487
     27 C                    -0.143890
     28 C                    -0.173560
     29 H                     0.116941
     30 H                     0.115655
     31 H                     0.114821
     32 H                     0.128753
     33 H                     0.114542
     34 H                     0.136520
     35 H                     0.139251
     36 H                     0.130632
     37 H                     0.132535
     38 H                     0.127445
  ----------------------------------------
  Sum of atomic charges =     0.000000

                    Cartesian Multipole Moments
 -----------------------------------------------------------------
    Charge (ESU x 10^10)
                 0.0000
    Dipole Moment (Debye)
         X       0.6624      Y       1.2191      Z      -0.0831
       Tot       1.3899
    Quadrupole Moments (Debye-Ang)
        XX    -143.9984     XY       0.1465     YY    -179.5630
        XZ      -2.4831     YZ      -0.1813     ZZ    -183.1300

 Total job time:  5661.06s(wall), 85534.86s(cpu)
        *  Thank you very much for using Q-Chem.  Have a nice day.  *
