 Q-Chem 4.4, Q-Chem, Inc., Pleasanton, CA (2016)
 Q-Chem 4.4.2 for Intel X86 Linux

User input:
--------------------------------------------------------------
$comment
OPTIMIZATION
$end

$rem
JOBTYPE OPT
EXCHANGE omegaB97X-D
BASIS cc-pVTZ
$end

$molecule
0 1
C          0.00000        0.00000        0.00000
C          1.38599        0.00000        0.00000
C         -0.68515       -1.20581        0.00000
C          2.08055       -1.19709        0.02226
C          0.00742       -2.40411        0.01179
C          1.40063       -2.41271        0.04151
C          2.15950       -3.67324        0.15696
C          3.15000       -3.81753        1.08952
C          1.92849       -4.81544       -0.65861
N          3.90172       -4.92812        1.27968
N          1.02636       -4.93526       -1.63501
C          2.72047       -5.99481       -0.47371
C          3.72589       -5.99344        0.54686
S          1.20518       -6.42345       -2.22449
N          2.39935       -6.98227       -1.31015
C          4.58521       -7.13898        0.84639
N          4.63628       -8.25491        0.18914
S          5.66574       -7.04518        2.20635
C          5.53850       -9.10417        0.74263
C          6.20238       -8.64513        1.84759
C          7.23575       -9.32194        2.60049
S          8.02710      -10.74881        2.01952
C          7.75482       -8.99354        3.82251
C          9.01187      -10.89679        3.40852
S          7.42283       -7.73663        4.98464
C          8.76323       -9.88511        4.29399
C          8.61804       -8.41836        6.06951
C          9.23923       -9.51210        5.60137
H         -0.54342        0.93472        0.00000
H          1.93260        0.93382       -0.01501
H         -1.76734       -1.21268        0.00047
H          3.16263       -1.19509        0.00785
H         -0.53593       -3.33924        0.01382
H          3.36185       -2.99842        1.76492
H          5.68114      -10.08542        0.31444
H          9.70486      -11.71394        3.50472
H          8.76872       -7.93939        7.02332
H          9.99091      -10.05140        6.15602
$end

$opt
CONSTRAINT
tors 4 6 7 8 47.06187
tors 10 13 16 18 4.63242
tors 18 20 21 22 -165.00000
ENDCONSTRAINT
$end
--------------------------------------------------------------

   16   -2579.8620172678      5.42E-09 Convergence criterion met
 Total energy in the final basis set = -2579.8620172678
   12   -2579.8624466676      5.28E-09 Convergence criterion met
 Total energy in the final basis set = -2579.8624466676
   11   -2579.8625518926      6.25E-09 Convergence criterion met
 Total energy in the final basis set = -2579.8625518926
   10   -2579.8625719824      5.12E-09 Convergence criterion met
 Total energy in the final basis set = -2579.8625719824
    9   -2579.8625786652      9.95E-09 Convergence criterion met
 Total energy in the final basis set = -2579.8625786652
    9   -2579.8625805788      6.05E-09 Convergence criterion met
 Total energy in the final basis set = -2579.8625805788

             Standard Nuclear Orientation (Angstroms)
    I     Atom           X                Y                Z
 ----------------------------------------------------------------
    1      C      -7.5891163033     2.2678415381    -0.1287183208
    2      C      -6.6358126451     2.6305658343    -1.0664477967
    3      C      -7.2816921112     1.3152227748     0.8313482937
    4      C      -5.3797466809     2.0479331088    -1.0391139265
    5      C      -6.0277803140     0.7298016388     0.8586205044
    6      C      -5.0574196037     1.0998322034    -0.0703899850
    7      C      -3.7043712050     0.5119570566    -0.0436514141
    8      C      -2.5826105898     1.2889062743    -0.1354403103
    9      C      -3.4593601744    -0.8841948615     0.0928105850
   10      N      -1.3047853524     0.8369767831    -0.1410584236
   11      N      -4.3713926425    -1.8513213294     0.2151715280
   12      C      -2.1144096926    -1.3772053016     0.0944272539
   13      C      -1.0413122824    -0.4370529479    -0.0370463486
   14      S      -3.5475894934    -3.2310919534     0.3245629072
   15      N      -2.0370690716    -2.7018722030     0.2225644913
   16      C       0.3697255443    -0.8165618078    -0.0644366731
   17      N       0.8443420692    -2.0241920894    -0.0602836807
   18      S       1.5743900686     0.4349087771    -0.1072002209
   19      C       2.1979520285    -2.0151372367    -0.0836052203
   20      C       2.7962240514    -0.7823942269    -0.1095925761
   21      C       4.2062655300    -0.4722518793    -0.1431026723
   22      S       5.3793894705    -1.6869916233    -0.5287982587
   23      C       4.8569216792     0.7100844092     0.0944249360
   24      C       6.7018140810    -0.6201208473    -0.3529020953
   25      S       4.3434651655     2.3177692318     0.5282779455
   26      C       6.2778696908     0.6348128000    -0.0192890163
   27      C       6.0096437103     2.8541231564     0.5480954146
   28      C       6.9075720364     1.9016831278     0.2510817465
   29      H      -8.5696294019     2.7234818260    -0.1475063492
   30      H      -6.8706234344     3.3641576104    -1.8253450827
   31      H      -8.0224176999     1.0280540386     1.5648964942
   32      H      -4.6432961338     2.3171474093    -1.7845424187
   33      H      -5.7964964939    -0.0143583054     1.6068941801
   34      H      -2.6843452318     2.3645423922    -0.2086142337
   35      H       2.7329233204    -2.9534496749    -0.0714465096
   36      H       7.7070729996    -0.9730494491    -0.5069211836
   37      H       6.2128781105     3.8853206934     0.7877827339
   38      H       7.9724176263     2.0719711935     0.2196617383
 ----------------------------------------------------------------

    9   -2579.8625812789      3.62E-09 Convergence criterion met
 Total energy in the final basis set = -2579.8625812789
 Final energy is   -2579.86258127889
 **  OPTIMIZATION CONVERGED  **

                    Orbital Energies (a.u.)
 --------------------------------------------------------------

 Alpha MOs
 -- Occupied --
-89.148 -89.091 -89.086 -89.079 -14.484 -14.481 -14.452 -14.443
-10.364 -10.360 -10.356 -10.355 -10.344 -10.343 -10.334 -10.333
-10.330 -10.328 -10.323 -10.322 -10.314 -10.311 -10.306 -10.297
-10.295 -10.295 -10.294 -10.294  -8.158  -8.105  -8.102  -8.094
 -6.108  -6.103  -6.102  -6.055  -6.051  -6.051  -6.048  -6.047
 -6.045  -6.043  -6.039  -6.035  -1.145  -1.086  -1.064  -1.024
 -1.009  -0.974  -0.959  -0.924  -0.921  -0.898  -0.873  -0.860
 -0.855  -0.837  -0.826  -0.802  -0.773  -0.744  -0.733  -0.713
 -0.704  -0.699  -0.687  -0.665  -0.649  -0.630  -0.624  -0.614
 -0.607  -0.599  -0.571  -0.564  -0.559  -0.548  -0.542  -0.532
 -0.531  -0.524  -0.514  -0.513  -0.513  -0.502  -0.490  -0.486
 -0.480  -0.475  -0.468  -0.455  -0.448  -0.441  -0.435  -0.432
 -0.429  -0.423  -0.420  -0.398  -0.398  -0.374  -0.367  -0.359
 -0.358  -0.352  -0.339  -0.338  -0.325  -0.308  -0.268

          Ground-State Mulliken Net Atomic Charges

     Atom                 Charge (a.u.)
  ----------------------------------------
      1 C                    -0.123372
      2 C                    -0.108494
      3 C                    -0.108492
      4 C                    -0.151532
      5 C                    -0.120597
      6 C                     0.120560
      7 C                     0.012001
      8 C                    -0.112251
      9 C                     0.034373
     10 N                    -0.175091
     11 N                    -0.281943
     12 C                    -0.010818
     13 C                     0.111112
     14 S                     0.411897
     15 N                    -0.223707
     16 C                    -0.008346
     17 N                    -0.139522
     18 S                     0.111498
     19 C                    -0.141824
     20 C                     0.010236
     21 C                     0.019047
     22 S                     0.121817
     23 C                    -0.056324
     24 C                    -0.218342
     25 S                     0.060442
     26 C                     0.037873
     27 C                    -0.151418
     28 C                    -0.168315
     29 H                     0.116741
     30 H                     0.114487
     31 H                     0.114860
     32 H                     0.128753
     33 H                     0.114220
     34 H                     0.136506
     35 H                     0.130286
     36 H                     0.131737
     37 H                     0.133756
     38 H                     0.128186
  ----------------------------------------
  Sum of atomic charges =     0.000000

                    Cartesian Multipole Moments
 -----------------------------------------------------------------
    Charge (ESU x 10^10)
                 0.0000
    Dipole Moment (Debye)
         X       1.0454      Y       1.3440      Z       0.1075
       Tot       1.7061
    Quadrupole Moments (Debye-Ang)
        XX    -142.8420     XY       0.1815     YY    -176.4050
        XZ      -1.8369     YZ      -1.7321     ZZ    -186.4159

 Total job time:  5745.31s(wall), 86824.74s(cpu)
        *  Thank you very much for using Q-Chem.  Have a nice day.  *
