 Q-Chem 4.4, Q-Chem, Inc., Pleasanton, CA (2016)
 Q-Chem 4.4.2 for Intel X86 Linux

User input:
--------------------------------------------------------------
$comment
OPTIMIZATION
$end

$rem
JOBTYPE OPT
EXCHANGE omegaB97X-D
BASIS cc-pVTZ
$end

$molecule
0 1
C          0.00000        0.00000        0.00000
C          1.38599        0.00000        0.00000
C         -0.68515       -1.20581        0.00000
C          2.08055       -1.19709        0.02226
C          0.00742       -2.40411        0.01179
C          1.40063       -2.41271        0.04151
C          2.15950       -3.67324        0.15696
C          3.15000       -3.81753        1.08952
C          1.92849       -4.81544       -0.65861
N          3.90172       -4.92812        1.27968
N          1.02636       -4.93526       -1.63501
C          2.72047       -5.99481       -0.47371
C          3.72589       -5.99344        0.54686
S          1.20518       -6.42345       -2.22449
N          2.39935       -6.98227       -1.31015
C          4.58521       -7.13898        0.84639
N          4.63628       -8.25491        0.18914
S          5.66574       -7.04518        2.20635
C          5.53850       -9.10417        0.74263
C          6.20238       -8.64513        1.84759
C          7.23575       -9.32194        2.60049
S          7.09355       -9.64080        4.29690
C          8.43418       -9.80929        2.15676
C          8.62600      -10.39143        4.39243
S          9.24721       -9.81289        0.61418
C          9.23526      -10.41623        3.16868
C         10.62862      -10.61025        1.33953
C         10.49999      -10.87040        2.64991
H         -0.54342        0.93472        0.00000
H          1.93260        0.93382       -0.01501
H         -1.76734       -1.21268        0.00047
H          3.16263       -1.19509        0.00785
H         -0.53593       -3.33924        0.01382
H          3.36185       -2.99842        1.76492
H          5.68114      -10.08542        0.31444
H          8.99797      -10.76072        5.33184
H         11.47721      -10.82607        0.71088
H         11.26793      -11.34642        3.23912
$end

$opt
CONSTRAINT
tors 4 6 7 8 47.06187
tors 10 13 16 18 4.63242
tors 18 20 21 22 60.00000
ENDCONSTRAINT
$end
--------------------------------------------------------------

   16   -2579.8602758319      4.31E-09 Convergence criterion met
 Total energy in the final basis set = -2579.8602758319
   11   -2579.8605632742      8.03E-09 Convergence criterion met
 Total energy in the final basis set = -2579.8605632742
   12   -2579.8606907298      4.73E-09 Convergence criterion met
 Total energy in the final basis set = -2579.8606907298
   11   -2579.8607250664      7.06E-09 Convergence criterion met
 Total energy in the final basis set = -2579.8607250664
   11   -2579.8607432993      5.79E-09 Convergence criterion met
 Total energy in the final basis set = -2579.8607432993
   10   -2579.8607494944      4.50E-09 Convergence criterion met
 Total energy in the final basis set = -2579.8607494944
    9   -2579.8607522411      9.71E-09 Convergence criterion met
 Total energy in the final basis set = -2579.8607522411

             Standard Nuclear Orientation (Angstroms)
    I     Atom           X                Y                Z
 ----------------------------------------------------------------
    1      C      -7.9386362020     1.7415050932    -0.4791539759
    2      C      -6.9830153496     2.2230011703    -1.3595495040
    3      C      -7.5707032958     0.8424007254     0.5106357996
    4      C      -5.6652768884     1.8112509117    -1.2463273398
    5      C      -6.2552877640     0.4271506699     0.6231658680
    6      C      -5.2845689765     0.9170636268    -0.2482170726
    7      C      -3.8727833273     0.5066168555    -0.1235466125
    8      C      -2.8523037049     1.4167311161    -0.1502846300
    9      C      -3.4675834162    -0.8466964324     0.0559354661
   10      N      -1.5316990065     1.1276999223    -0.0450927001
   11      N      -4.2588310209    -1.9200902901     0.1202661223
   12      C      -2.0768115381    -1.1669758733     0.1737969503
   13      C      -1.1225250072    -0.1008508354     0.1124546616
   14      S      -3.2817465011    -3.1847570956     0.3184146106
   15      N      -1.8459294160    -2.4709244411     0.3304395129
   16      C       0.3243001253    -0.2991510367     0.2216544790
   17      N       0.9360940996    -1.4403072835     0.3066873086
   18      S       1.3660874497     1.0889732231     0.2583472016
   19      C       2.2769235659    -1.2642868683     0.4179435886
   20      C       2.7161037528     0.0289851161     0.4275606560
   21      C       4.0938685238     0.4888813290     0.4789514652
   22      S       4.6678728746     1.5714292382     1.6998402827
   23      C       5.1458730502     0.1087261058    -0.3059199903
   24      C       6.2786807048     1.5267000912     1.1338726778
   25      S       5.3078879565    -0.9378975246    -1.6897733500
   26      C       6.3950199599     0.6977810990     0.0530186773
   27      C       7.0189584960    -0.5747131238    -1.7675804840
   28      C       7.4572619807     0.2737633548    -0.8236778995
   29      H      -8.9680866025     2.0608374193    -0.5674814289
   30      H      -7.2623015672     2.9165825797    -2.1406688882
   31      H      -8.3122136051     0.4631313575     1.2003282826
   32      H      -4.9250430207     2.1715592969    -1.9484448772
   33      H      -5.9774054745    -0.2791495487     1.3920098449
   34      H      -3.0794299767     2.4700590406    -0.2565026421
   35      H       2.9241159682    -2.1245391581     0.5036025814
   36      H       7.0428161059     2.1075948028     1.6211276271
   37      H       7.6051490645    -1.0396805148    -2.5435774537
   38      H       8.4837482205     0.5946457379    -0.7383058856
 ----------------------------------------------------------------

    9   -2579.8607530307      5.63E-09 Convergence criterion met
 Total energy in the final basis set = -2579.8607530307
 Final energy is   -2579.86075303069
 **  OPTIMIZATION CONVERGED  **

                    Orbital Energies (a.u.)
 --------------------------------------------------------------

 Alpha MOs
 -- Occupied --
-89.150 -89.089 -89.087 -89.076 -14.485 -14.482 -14.454 -14.443
-10.365 -10.363 -10.358 -10.356 -10.340 -10.340 -10.336 -10.331
-10.328 -10.325 -10.325 -10.323 -10.312 -10.311 -10.304 -10.298
-10.296 -10.296 -10.295 -10.295  -8.160  -8.103  -8.102  -8.091
 -6.110  -6.104  -6.104  -6.053  -6.051  -6.049  -6.047  -6.046
 -6.045  -6.040  -6.037  -6.032  -1.146  -1.086  -1.065  -1.021
 -1.010  -0.975  -0.956  -0.925  -0.918  -0.899  -0.875  -0.859
 -0.856  -0.833  -0.827  -0.801  -0.775  -0.745  -0.734  -0.712
 -0.705  -0.693  -0.689  -0.658  -0.652  -0.636  -0.627  -0.615
 -0.606  -0.598  -0.572  -0.564  -0.555  -0.549  -0.542  -0.529
 -0.528  -0.525  -0.514  -0.513  -0.505  -0.504  -0.498  -0.485
 -0.477  -0.475  -0.469  -0.456  -0.449  -0.437  -0.436  -0.432
 -0.431  -0.422  -0.421  -0.400  -0.384  -0.375  -0.368  -0.362
 -0.359  -0.353  -0.340  -0.338  -0.323  -0.304  -0.278

          Ground-State Mulliken Net Atomic Charges

     Atom                 Charge (a.u.)
  ----------------------------------------
      1 C                    -0.124334
      2 C                    -0.108423
      3 C                    -0.109235
      4 C                    -0.152087
      5 C                    -0.120226
      6 C                     0.121484
      7 C                     0.015027
      8 C                    -0.108730
      9 C                     0.033985
     10 N                    -0.173095
     11 N                    -0.281568
     12 C                    -0.014686
     13 C                     0.107042
     14 S                     0.412955
     15 N                    -0.222053
     16 C                    -0.007098
     17 N                    -0.136492
     18 S                     0.139927
     19 C                    -0.136210
     20 C                    -0.044476
     21 C                    -0.017676
     22 S                     0.146235
     23 C                    -0.054510
     24 C                    -0.223650
     25 S                     0.062024
     26 C                     0.049296
     27 C                    -0.141513
     28 C                    -0.177944
     29 H                     0.117940
     30 H                     0.115091
     31 H                     0.115670
     32 H                     0.128769
     33 H                     0.114059
     34 H                     0.136202
     35 H                     0.148173
     36 H                     0.130148
     37 H                     0.132363
     38 H                     0.127621
  ----------------------------------------
  Sum of atomic charges =     0.000000

                    Cartesian Multipole Moments
 -----------------------------------------------------------------
    Charge (ESU x 10^10)
                 0.0000
    Dipole Moment (Debye)
         X       0.5227      Y       0.8376      Z      -0.0932
       Tot       0.9917
    Quadrupole Moments (Debye-Ang)
        XX    -141.6774     XY      -0.0522     YY    -182.2874
        XZ      -2.1330     YZ      -0.6420     ZZ    -181.7505

 Total job time:  6536.65s(wall), 98737.30s(cpu)
        *  Thank you very much for using Q-Chem.  Have a nice day.  *
