 Q-Chem 4.4, Q-Chem, Inc., Pleasanton, CA (2016)
 Q-Chem 4.4.2 for Intel X86 Linux

User input:
--------------------------------------------------------------
$comment
OPTIMIZATION
$end

$rem
JOBTYPE OPT
EXCHANGE omegaB97X-D
BASIS cc-pVTZ
$end

$molecule
0 1
C          0.00000        0.00000        0.00000
C          1.38599        0.00000        0.00000
C         -0.68515       -1.20581        0.00000
C          2.08055       -1.19709        0.02226
C          0.00742       -2.40411        0.01179
C          1.40063       -2.41271        0.04151
C          2.15950       -3.67324        0.15696
C          3.15000       -3.81753        1.08952
C          1.92849       -4.81544       -0.65861
N          3.90172       -4.92812        1.27968
N          1.02636       -4.93526       -1.63501
C          2.72047       -5.99481       -0.47371
C          3.72589       -5.99344        0.54686
S          1.20518       -6.42345       -2.22449
N          2.39935       -6.98227       -1.31015
C          4.58521       -7.13898        0.84639
N          4.63628       -8.25491        0.18914
S          5.66574       -7.04518        2.20635
C          5.53850       -9.10417        0.74263
C          6.20238       -8.64513        1.84759
C          7.23575       -9.32194        2.60049
S          7.28351       -9.31198        4.33177
C          8.29473      -10.04975        2.13200
C          8.71060      -10.24963        4.40379
S          8.88742      -10.44442        0.54029
C          9.14295      -10.57887        3.14917
C         10.24448      -11.29428        1.25188
C         10.26118      -11.29732        2.59390
H         -0.54342        0.93472        0.00000
H          1.93260        0.93382       -0.01501
H         -1.76734       -1.21268        0.00047
H          3.16263       -1.19509        0.00785
H         -0.53593       -3.33924        0.01382
H          3.36185       -2.99842        1.76492
H          5.68114      -10.08542        0.31444
H          9.15648      -10.49755        5.35086
H         10.96820      -11.73933        0.58853
H         11.03642      -11.76881        3.17717
$end

$opt
CONSTRAINT
tors 4 6 7 8 47.06187
tors 10 13 16 18 4.63242
tors 18 20 21 22 45.00000
ENDCONSTRAINT
$end
--------------------------------------------------------------

   16   -2579.8615611515      4.44E-09 Convergence criterion met
 Total energy in the final basis set = -2579.8615611515
   12   -2579.8618330227      5.04E-09 Convergence criterion met
 Total energy in the final basis set = -2579.8618330227
   12   -2579.8619392960      4.65E-09 Convergence criterion met
 Total energy in the final basis set = -2579.8619392960
   10   -2579.8619572759      5.66E-09 Convergence criterion met
 Total energy in the final basis set = -2579.8619572759
    9   -2579.8619647482      9.61E-09 Convergence criterion met
 Total energy in the final basis set = -2579.8619647482
    8   -2579.8619660285      9.83E-09 Convergence criterion met
 Total energy in the final basis set = -2579.8619660285

             Standard Nuclear Orientation (Angstroms)
    I     Atom           X                Y                Z
 ----------------------------------------------------------------
    1      C      -7.9783321576     1.6493364788    -0.4837039513
    2      C      -7.0399601412     2.1012324730    -1.3976755948
    3      C      -7.5869592314     0.8006403690     0.5410041723
    4      C      -5.7162406262     1.7093574994    -1.2840521292
    5      C      -6.2654368154     0.4053902693     0.6542791828
    6      C      -5.3120842427     0.8653826807    -0.2519307898
    7      C      -3.8941707270     0.4749469326    -0.1314022607
    8      C      -2.8842807256     1.3932629805    -0.2160123159
    9      C      -3.4712114062    -0.8650198111     0.1000186115
   10      N      -1.5590590223     1.1226185544    -0.1209389347
   11      N      -4.2492842150    -1.9427927712     0.2237752110
   12      C      -2.0752268115    -1.1658426906     0.2068977341
   13      C      -1.1335717778    -0.0938697628     0.0825459129
   14      S      -3.2553170621    -3.1877352864     0.4586806884
   15      N      -1.8273512857    -2.4593153914     0.4153066869
   16      C       0.3162190774    -0.2711266087     0.1746441139
   17      N       0.9459937013    -1.3985795155     0.2973268295
   18      S       1.3394561287     1.1320003473     0.1323460753
   19      C       2.2858047864    -1.2007039879     0.3778210439
   20      C       2.7074144248     0.0987535502     0.3218739089
   21      C       4.0731803823     0.5830717478     0.3465236838
   22      S       4.5457785415     1.9716544909     1.2641050118
   23      C       5.1825157423     0.0428308660    -0.2439128911
   24      C       6.1913502014     1.8326637566     0.8287540116
   25      S       5.4579490771    -1.3215301401    -1.2921273658
   26      C       6.3940183797     0.7496664931     0.0195043288
   27      C       7.1631072913    -0.9309540649    -1.3619142549
   28      C       7.5201127928     0.1496791150    -0.6496761209
   29      H      -9.0126096326     1.9525041300    -0.5726161698
   30      H      -7.3376731843     2.7553878421    -2.2056099700
   31      H      -8.3152321041     0.4450563427     1.2569105022
   32      H      -4.9890930227     2.0455135364    -2.0113182755
   33      H      -5.9699008132    -0.2618641090     1.4508686074
   34      H      -3.1243905850     2.4384618550    -0.3652924315
   35      H       2.9441072651    -2.0482287292     0.4983915153
   36      H       6.9104356002     2.5514825670     1.1821195326
   37      H       7.8075183544    -1.5592885851    -1.9550740507
   38      H       8.5313481931     0.5212688412    -0.5927715471
 ----------------------------------------------------------------

    8   -2579.8619665444      6.08E-09 Convergence criterion met
 Total energy in the final basis set = -2579.8619665444
 Final energy is   -2579.86196654445
 **  OPTIMIZATION CONVERGED  **

                    Orbital Energies (a.u.)
 --------------------------------------------------------------

 Alpha MOs
 -- Occupied --
-89.149 -89.090 -89.086 -89.077 -14.485 -14.482 -14.454 -14.443
-10.365 -10.362 -10.357 -10.356 -10.342 -10.341 -10.335 -10.332
-10.329 -10.326 -10.325 -10.322 -10.312 -10.312 -10.304 -10.298
-10.296 -10.296 -10.295 -10.294  -8.159  -8.104  -8.102  -8.092
 -6.109  -6.104  -6.103  -6.054  -6.050  -6.050  -6.047  -6.047
 -6.045  -6.042  -6.038  -6.034  -1.146  -1.086  -1.064  -1.022
 -1.010  -0.975  -0.958  -0.925  -0.919  -0.899  -0.876  -0.860
 -0.856  -0.833  -0.828  -0.802  -0.775  -0.745  -0.734  -0.712
 -0.705  -0.693  -0.690  -0.659  -0.651  -0.636  -0.626  -0.615
 -0.606  -0.598  -0.572  -0.564  -0.556  -0.549  -0.542  -0.530
 -0.529  -0.525  -0.514  -0.513  -0.506  -0.504  -0.498  -0.485
 -0.477  -0.475  -0.469  -0.455  -0.449  -0.438  -0.436  -0.433
 -0.430  -0.423  -0.421  -0.399  -0.389  -0.374  -0.368  -0.362
 -0.359  -0.353  -0.339  -0.338  -0.324  -0.305  -0.274

          Ground-State Mulliken Net Atomic Charges

     Atom                 Charge (a.u.)
  ----------------------------------------
      1 C                    -0.124475
      2 C                    -0.108956
      3 C                    -0.108927
      4 C                    -0.151436
      5 C                    -0.120417
      6 C                     0.120911
      7 C                     0.014484
      8 C                    -0.109367
      9 C                     0.034070
     10 N                    -0.173539
     11 N                    -0.281393
     12 C                    -0.014071
     13 C                     0.107849
     14 S                     0.412813
     15 N                    -0.222341
     16 C                    -0.008090
     17 N                    -0.136848
     18 S                     0.129657
     19 C                    -0.144984
     20 C                    -0.026364
     21 C                    -0.002074
     22 S                     0.140286
     23 C                    -0.057832
     24 C                    -0.222775
     25 S                     0.059530
     26 C                     0.047195
     27 C                    -0.141998
     28 C                    -0.175222
     29 H                     0.117899
     30 H                     0.115457
     31 H                     0.115424
     32 H                     0.128485
     33 H                     0.114165
     34 H                     0.135931
     35 H                     0.147915
     36 H                     0.129744
     37 H                     0.131528
     38 H                     0.127766
  ----------------------------------------
  Sum of atomic charges =     0.000000

                    Cartesian Multipole Moments
 -----------------------------------------------------------------
    Charge (ESU x 10^10)
                 0.0000
    Dipole Moment (Debye)
         X       0.6524      Y       0.9000      Z      -0.0929
       Tot       1.1154
    Quadrupole Moments (Debye-Ang)
        XX    -140.6856     XY      -0.0063     YY    -180.7536
        XZ      -2.1882     YZ      -0.6226     ZZ    -183.5222

 Total job time:  5579.40s(wall), 84265.21s(cpu)
        *  Thank you very much for using Q-Chem.  Have a nice day.  *
