 Q-Chem 4.4, Q-Chem, Inc., Pleasanton, CA (2016)
 Q-Chem 4.4.2 for Intel X86 Linux

User input:
--------------------------------------------------------------
$comment
OPTIMIZATION
$end

$rem
JOBTYPE OPT
EXCHANGE omegaB97X-D
BASIS cc-pVTZ
$end

$molecule
0 1
C          0.00000        0.00000        0.00000
C          1.38599        0.00000        0.00000
C         -0.68515       -1.20581        0.00000
C          2.08055       -1.19709        0.02226
C          0.00742       -2.40411        0.01179
C          1.40063       -2.41271        0.04151
C          2.15950       -3.67324        0.15696
C          3.15000       -3.81753        1.08952
C          1.92849       -4.81544       -0.65861
N          3.90172       -4.92812        1.27968
N          1.02636       -4.93526       -1.63501
C          2.72047       -5.99481       -0.47371
C          3.72589       -5.99344        0.54686
S          1.20518       -6.42345       -2.22449
N          2.39935       -6.98227       -1.31015
C          4.58521       -7.13898        0.84639
N          4.63628       -8.25491        0.18914
S          5.66574       -7.04518        2.20635
C          5.53850       -9.10417        0.74263
C          6.20238       -8.64513        1.84759
C          7.23575       -9.32194        2.60049
S          8.91305       -9.21522        2.18214
C          7.10446      -10.11502        3.70702
C          9.40644      -10.23545        3.46146
S          5.74483      -10.68204        4.64001
C          8.33272      -10.64366        4.20300
C          6.82644      -11.60861        5.66070
C          8.12546      -11.50324        5.34016
H         -0.54342        0.93472        0.00000
H          1.93260        0.93382       -0.01501
H         -1.76734       -1.21268        0.00047
H          3.16263       -1.19509        0.00785
H         -0.53593       -3.33924        0.01382
H          3.36185       -2.99842        1.76492
H          5.68114      -10.08542        0.31444
H         10.44411      -10.48654        3.59343
H          6.39479      -12.19877        6.45270
H          8.91117      -12.02141        5.86708
$end

$opt
CONSTRAINT
tors 4 6 7 8 47.06187
tors 10 13 16 18 4.63242
tors 18 20 21 22 -90.00000
ENDCONSTRAINT
$end
--------------------------------------------------------------

   16   -2579.8587112236      4.37E-09 Convergence criterion met
 Total energy in the final basis set = -2579.8587112236
   12   -2579.8591529851      5.83E-09 Convergence criterion met
 Total energy in the final basis set = -2579.8591529851
   12   -2579.8592758985      4.66E-09 Convergence criterion met
 Total energy in the final basis set = -2579.8592758985
   10   -2579.8593045870      8.16E-09 Convergence criterion met
 Total energy in the final basis set = -2579.8593045870
   10   -2579.8593168417      6.91E-09 Convergence criterion met
 Total energy in the final basis set = -2579.8593168417
   10   -2579.8593209973      4.64E-09 Convergence criterion met
 Total energy in the final basis set = -2579.8593209973
    9   -2579.8593231723      7.86E-09 Convergence criterion met
 Total energy in the final basis set = -2579.8593231723
    9   -2579.8593243057      5.98E-09 Convergence criterion met
 Total energy in the final basis set = -2579.8593243057

             Standard Nuclear Orientation (Angstroms)
    I     Atom           X                Y                Z
 ----------------------------------------------------------------
    1      C      -7.8026279740     1.9990630434     0.3077112049
    2      C      -6.9396232668     2.4914391374    -0.6580647003
    3      C      -7.3691143629     1.0069589585     1.1747214618
    4      C      -5.6486235841     1.9986512844    -0.7508697528
    5      C      -6.0802741742     0.5109521022     1.0815989312
    6      C      -5.2002288017     1.0117501553     0.1243914186
    7      C      -3.8119446530     0.5216150399     0.0276900319
    8      C      -2.7530693432     1.3813218791    -0.0736235670
    9      C      -3.4654604732    -0.8594475145     0.0495662650
   10      N      -1.4504408912     1.0222868732    -0.1858984184
   11      N      -4.3010020536    -1.8957268607     0.1529199511
   12      C      -2.0929924355    -1.2533435515    -0.0579466909
   13      C      -1.0967586779    -0.2330318587    -0.1870859389
   14      S      -3.3806908916    -3.2164566407     0.1205940094
   15      N      -1.9186990373    -2.5751580474    -0.0264682566
   16      C       0.3359714696    -0.5087688311    -0.3265864169
   17      N       0.8794710805    -1.6820696745    -0.4404547129
   18      S       1.4525295127     0.8170036712    -0.3554995720
   19      C       2.2280962496    -1.5794063208    -0.5590199603
   20      C       2.7410997823    -0.3162012951    -0.5360281971
   21      C       4.1412647455     0.0876403665    -0.6241516325
   22      S       4.9018022267     0.4377067199    -2.1363664470
   23      C       5.0514620704     0.2543812576     0.3788157619
   24      C       6.4085256012     0.7970696869    -1.4177028679
   25      S       4.9861174075     0.0822847096     2.1114371200
   26      C       6.3488029223     0.6577013787    -0.0590559298
   27      C       6.6715066743     0.5448357598     2.2232663178
   28      C       7.2598741589     0.8139072638     1.0464564182
   29      H      -8.8106827821     2.3835856957     0.3815208756
   30      H      -7.2716708984     3.2553200671    -1.3476225735
   31      H      -8.0397153618     0.6170592905     1.9281620943
   32      H      -4.9821473269     2.3701039495    -1.5180413265
   33      H      -5.7524502806    -0.2644638781     1.7587846661
   34      H      -2.9303910560     2.4494549351    -0.0623511106
   35      H       2.8260892949    -2.4727656651    -0.6605167543
   36      H       7.2477241125     1.0836933029    -2.0281732784
   37      H       7.1296458892     0.5831500013     3.1983685544
   38      H       8.2927253298     1.1099179347     0.9485014514
 ----------------------------------------------------------------

    9   -2579.8593247909      4.73E-09 Convergence criterion met
 Total energy in the final basis set = -2579.8593247909
 Final energy is   -2579.85932479094
 **  OPTIMIZATION CONVERGED  **

                    Orbital Energies (a.u.)
 --------------------------------------------------------------

 Alpha MOs
 -- Occupied --
-89.150 -89.088 -89.086 -89.075 -14.486 -14.482 -14.455 -14.442
-10.365 -10.363 -10.358 -10.356 -10.339 -10.338 -10.336 -10.330
-10.327 -10.325 -10.324 -10.323 -10.312 -10.310 -10.303 -10.298
-10.296 -10.296 -10.296 -10.295  -8.160  -8.102  -8.101  -8.089
 -6.110  -6.104  -6.104  -6.052  -6.050  -6.048  -6.047  -6.045
 -6.045  -6.039  -6.035  -6.031  -1.147  -1.086  -1.065  -1.020
 -1.010  -0.975  -0.955  -0.926  -0.917  -0.899  -0.874  -0.859
 -0.856  -0.834  -0.825  -0.800  -0.775  -0.745  -0.734  -0.712
 -0.704  -0.695  -0.688  -0.657  -0.653  -0.633  -0.626  -0.615
 -0.607  -0.598  -0.572  -0.565  -0.556  -0.549  -0.543  -0.528
 -0.527  -0.525  -0.515  -0.513  -0.506  -0.503  -0.498  -0.483
 -0.477  -0.474  -0.468  -0.458  -0.450  -0.437  -0.436  -0.431
 -0.430  -0.422  -0.420  -0.400  -0.377  -0.373  -0.369  -0.365
 -0.359  -0.353  -0.340  -0.338  -0.322  -0.299  -0.285

          Ground-State Mulliken Net Atomic Charges

     Atom                 Charge (a.u.)
  ----------------------------------------
      1 C                    -0.123256
      2 C                    -0.109710
      3 C                    -0.109754
      4 C                    -0.152750
      5 C                    -0.121299
      6 C                     0.121749
      7 C                     0.014200
      8 C                    -0.109622
      9 C                     0.036677
     10 N                    -0.172157
     11 N                    -0.281637
     12 C                    -0.015315
     13 C                     0.105816
     14 S                     0.413646
     15 N                    -0.221877
     16 C                    -0.007775
     17 N                    -0.138110
     18 S                     0.152580
     19 C                    -0.106850
     20 C                    -0.072244
     21 C                    -0.047542
     22 S                     0.152356
     23 C                    -0.030184
     24 C                    -0.223743
     25 S                     0.060260
     26 C                     0.044521
     27 C                    -0.141005
     28 C                    -0.177407
     29 H                     0.117970
     30 H                     0.115568
     31 H                     0.116045
     32 H                     0.129563
     33 H                     0.114742
     34 H                     0.137096
     35 H                     0.140574
     36 H                     0.129908
     37 H                     0.131673
     38 H                     0.127294
  ----------------------------------------
  Sum of atomic charges =     0.000000

                    Cartesian Multipole Moments
 -----------------------------------------------------------------
    Charge (ESU x 10^10)
                 0.0000
    Dipole Moment (Debye)
         X       0.3728      Y       0.9994      Z       0.3004
       Tot       1.1082
    Quadrupole Moments (Debye-Ang)
        XX    -144.2513     XY       0.4912     YY    -183.6041
        XZ      -0.9964     YZ      -3.8134     ZZ    -179.1940

 Total job time:  7126.26s(wall), 107660.03s(cpu)
        *  Thank you very much for using Q-Chem.  Have a nice day.  *
