 Q-Chem 4.4, Q-Chem, Inc., Pleasanton, CA (2016)
 Q-Chem 4.4.2 for Intel X86 Linux

User input:
--------------------------------------------------------------
$comment
OPTIMIZATION
$end

$rem
JOBTYPE OPT
EXCHANGE omegaB97X-D
BASIS cc-pVTZ
$end

$molecule
0 1
C          0.00000        0.00000        0.00000
C          1.38599        0.00000        0.00000
C         -0.68515       -1.20581        0.00000
C          2.08055       -1.19709        0.02226
C          0.00742       -2.40411        0.01179
C          1.40063       -2.41271        0.04151
C          2.15950       -3.67324        0.15696
C          3.15000       -3.81753        1.08952
C          1.92849       -4.81544       -0.65861
N          3.90172       -4.92812        1.27968
N          1.02636       -4.93526       -1.63501
C          2.72047       -5.99481       -0.47371
C          3.72589       -5.99344        0.54686
S          1.20518       -6.42345       -2.22449
N          2.39935       -6.98227       -1.31015
C          4.58521       -7.13898        0.84639
N          4.63628       -8.25491        0.18914
S          5.66574       -7.04518        2.20635
C          5.53850       -9.10417        0.74263
C          6.20238       -8.64513        1.84759
C          7.23575       -9.32194        2.60049
S          8.84226       -9.53696        1.99007
C          7.15686       -9.87933        3.84697
C          9.37273      -10.37622        3.38120
S          5.87479      -10.06788        5.01373
C          8.36577      -10.48575        4.29958
C          6.96061      -10.94757        6.07078
C          8.20808      -11.09137        5.59700
H         -0.54342        0.93472        0.00000
H          1.93260        0.93382       -0.01501
H         -1.76734       -1.21268        0.00047
H          3.16263       -1.19509        0.00785
H         -0.53593       -3.33924        0.01382
H          3.36185       -2.99842        1.76492
H          5.68114      -10.08542        0.31444
H         10.37978      -10.74890        3.44589
H          6.56933      -11.31910        7.00391
H          8.98725      -11.61749        6.12575
$end

$opt
CONSTRAINT
tors 4 6 7 8 47.06187
tors 10 13 16 18 4.63242
tors 18 20 21 22 -105.00000
ENDCONSTRAINT
$end
--------------------------------------------------------------

   16   -2579.8592261487      4.35E-09 Convergence criterion met
 Total energy in the final basis set = -2579.8592261487
   12   -2579.8596862944      7.16E-09 Convergence criterion met
 Total energy in the final basis set = -2579.8596862944
   12   -2579.8598060846      6.56E-09 Convergence criterion met
 Total energy in the final basis set = -2579.8598060846
   10   -2579.8598238272      7.28E-09 Convergence criterion met
 Total energy in the final basis set = -2579.8598238272
   10   -2579.8598304568      4.59E-09 Convergence criterion met
 Total energy in the final basis set = -2579.8598304568
    9   -2579.8598319833      4.10E-09 Convergence criterion met
 Total energy in the final basis set = -2579.8598319833

             Standard Nuclear Orientation (Angstroms)
    I     Atom           X                Y                Z
 ----------------------------------------------------------------
    1      C      -7.7401167447     2.1035480267    -0.1776425959
    2      C      -6.8380989569     2.4052085768    -1.1852160615
    3      C      -7.3556144424     1.2714766505     0.8633173430
    4      C      -5.5565130704     1.8817706349    -1.1478644768
    5      C      -6.0762159774     0.7447216387     0.9007399385
    6      C      -5.1574663035     1.0549417038    -0.0998082047
    7      C      -3.7803220261     0.5260005050    -0.0697346840
    8      C      -2.6966007126     1.3307954553    -0.2898349999
    9      C      -3.4723367801    -0.8383146601     0.1976172806
   10      N      -1.4024341871     0.9269573017    -0.3084592128
   11      N      -4.3382775825    -1.8204919763     0.4585163426
   12      C      -2.1095474815    -1.2782635430     0.1883589368
   13      C      -1.0836440881    -0.3185224256    -0.0890952272
   14      S      -3.4542256060    -3.1497695168     0.6718623165
   15      N      -1.9724773223    -2.5789014049     0.4489020399
   16      C       0.3420050423    -0.6507568143    -0.1554345725
   17      N       0.8530531653    -1.8401986408    -0.0625132646
   18      S       1.4962764015     0.6216763529    -0.3921397901
   19      C       2.2054362758    -1.7939967984    -0.1719820768
   20      C       2.7551931939    -0.5576084123    -0.3447116653
   21      C       4.1613378866    -0.2153069817    -0.5209045131
   22      S       5.0006985731    -0.5632015647    -1.9914292189
   23      C       5.0105848129     0.4293173300     0.3321993313
   24      C       6.4642835337     0.1260985346    -1.4457640445
   25      S       4.8520939227     1.0614948699     1.9477344111
   26      C       6.3283751955     0.6246960496    -0.1797615548
   27      C       6.5275408116     1.5699549932     1.9160395578
   28      C       7.1779848607     1.2908242149     0.7747616937
   29      H      -8.7406674158     2.5129468865    -0.2046070514
   30      H      -7.1325405533     3.0450947357    -2.0056865421
   31      H      -8.0575517274     1.0303290846     1.6496634610
   32      H      -4.8584027771     2.1036122348    -1.9440898322
   33      H      -5.7861502821     0.0906761291     1.7102540904
   34      H      -2.8458417570     2.3884687640    -0.4672302336
   35      H       2.7779611511    -2.7080133015    -0.1181146529
   36      H       7.3379472419     0.1225985468    -2.0749040318
   37      H       6.9311689274     2.0593088983     2.7875239086
   38      H       8.2136809202     1.5377768935     0.6006589098
 ----------------------------------------------------------------

    8   -2579.8598326289      9.33E-09 Convergence criterion met
 Total energy in the final basis set = -2579.8598326289
 Final energy is   -2579.85983262889
 **  OPTIMIZATION CONVERGED  **

                    Orbital Energies (a.u.)
 --------------------------------------------------------------

 Alpha MOs
 -- Occupied --
-89.150 -89.088 -89.086 -89.075 -14.486 -14.482 -14.455 -14.443
-10.365 -10.363 -10.358 -10.356 -10.339 -10.339 -10.336 -10.330
-10.328 -10.325 -10.324 -10.323 -10.312 -10.311 -10.303 -10.298
-10.296 -10.296 -10.295 -10.295  -8.160  -8.103  -8.101  -8.090
 -6.110  -6.104  -6.104  -6.052  -6.050  -6.048  -6.047  -6.046
 -6.044  -6.039  -6.036  -6.031  -1.146  -1.086  -1.065  -1.020
 -1.010  -0.975  -0.955  -0.925  -0.918  -0.899  -0.874  -0.859
 -0.856  -0.834  -0.825  -0.800  -0.775  -0.745  -0.734  -0.712
 -0.704  -0.696  -0.687  -0.659  -0.652  -0.632  -0.626  -0.615
 -0.608  -0.598  -0.572  -0.565  -0.557  -0.549  -0.542  -0.528
 -0.527  -0.525  -0.515  -0.513  -0.508  -0.503  -0.496  -0.483
 -0.477  -0.474  -0.469  -0.457  -0.449  -0.437  -0.436  -0.431
 -0.431  -0.422  -0.420  -0.400  -0.378  -0.374  -0.368  -0.365
 -0.359  -0.352  -0.340  -0.338  -0.322  -0.300  -0.283

          Ground-State Mulliken Net Atomic Charges

     Atom                 Charge (a.u.)
  ----------------------------------------
      1 C                    -0.123291
      2 C                    -0.109574
      3 C                    -0.108018
      4 C                    -0.150756
      5 C                    -0.121004
      6 C                     0.119943
      7 C                     0.014929
      8 C                    -0.110950
      9 C                     0.036320
     10 N                    -0.172006
     11 N                    -0.281782
     12 C                    -0.014778
     13 C                     0.105942
     14 S                     0.413894
     15 N                    -0.221963
     16 C                    -0.006110
     17 N                    -0.138838
     18 S                     0.151014
     19 C                    -0.114144
     20 C                    -0.063328
     21 C                    -0.040796
     22 S                     0.151127
     23 C                    -0.037847
     24 C                    -0.222913
     25 S                     0.061579
     26 C                     0.044292
     27 C                    -0.140190
     28 C                    -0.176838
     29 H                     0.117350
     30 H                     0.115697
     31 H                     0.115250
     32 H                     0.128875
     33 H                     0.114663
     34 H                     0.136429
     35 H                     0.140096
     36 H                     0.129564
     37 H                     0.131225
     38 H                     0.126936
  ----------------------------------------
  Sum of atomic charges =     0.000000

                    Cartesian Multipole Moments
 -----------------------------------------------------------------
    Charge (ESU x 10^10)
                 0.0000
    Dipole Moment (Debye)
         X       0.4036      Y       1.1160      Z       0.0005
       Tot       1.1868
    Quadrupole Moments (Debye-Ang)
        XX    -144.5484     XY       0.6055     YY    -183.4534
        XZ      -1.8957     YZ      -0.9743     ZZ    -179.1658

 Total job time:  5651.90s(wall), 85310.77s(cpu)
        *  Thank you very much for using Q-Chem.  Have a nice day.  *
