 Q-Chem 4.4, Q-Chem, Inc., Pleasanton, CA (2016)
 Q-Chem 4.4.2 for Intel X86 Linux

User input:
--------------------------------------------------------------
$comment
OPTIMIZATION
$end

$rem
JOBTYPE OPT
EXCHANGE omegaB97X-D
BASIS cc-pVTZ
$end

$molecule
0 1
C          0.00000        0.00000        0.00000
C          1.38599        0.00000        0.00000
C         -0.68515       -1.20581        0.00000
C          2.08055       -1.19709        0.02226
C          0.00742       -2.40411        0.01179
C          1.40063       -2.41271        0.04151
C          2.15950       -3.67324        0.15696
C          3.15000       -3.81753        1.08952
C          1.92849       -4.81544       -0.65861
N          3.90172       -4.92812        1.27968
N          1.02636       -4.93526       -1.63501
C          2.72047       -5.99481       -0.47371
C          3.72589       -5.99344        0.54686
S          1.20518       -6.42345       -2.22449
N          2.39935       -6.98227       -1.31015
C          4.58521       -7.13898        0.84639
N          4.63628       -8.25491        0.18914
S          5.66574       -7.04518        2.20635
C          5.53850       -9.10417        0.74263
C          6.20238       -8.64513        1.84759
C          7.23575       -9.32194        2.60049
S          8.71558       -8.54541        3.05529
C          7.24721      -10.60687        3.06895
C          9.32960       -9.93638        3.83578
S          6.13971      -11.94922        2.95889
C          8.43550      -10.96867        3.76976
C          7.27134      -12.95999        3.83525
C          8.40607      -12.34305        4.20006
H         -0.54342        0.93472        0.00000
H          1.93260        0.93382       -0.01501
H         -1.76734       -1.21268        0.00047
H          3.16263       -1.19509        0.00785
H         -0.53593       -3.33924        0.01382
H          3.36185       -2.99842        1.76492
H          5.68114      -10.08542        0.31444
H         10.30611       -9.92579        4.28692
H          7.00079      -13.98825        4.01231
H          9.20355      -12.83417        4.73515
$end

$opt
CONSTRAINT
tors 4 6 7 8 47.06187
tors 10 13 16 18 4.63242
tors 18 20 21 22 -45.00000
ENDCONSTRAINT
$end
--------------------------------------------------------------

   16   -2579.8610290782      4.39E-09 Convergence criterion met
 Total energy in the final basis set = -2579.8610290782
   12   -2579.8616446588      7.25E-09 Convergence criterion met
 Total energy in the final basis set = -2579.8616446588
   12   -2579.8619301200      6.30E-09 Convergence criterion met
 Total energy in the final basis set = -2579.8619301200
   11   -2579.8620172579      7.61E-09 Convergence criterion met
 Total energy in the final basis set = -2579.8620172579
   10   -2579.8620459291      8.33E-09 Convergence criterion met
 Total energy in the final basis set = -2579.8620459291
    9   -2579.8620541881      7.26E-09 Convergence criterion met
 Total energy in the final basis set = -2579.8620541881
    9   -2579.8620570427      7.37E-09 Convergence criterion met
 Total energy in the final basis set = -2579.8620570427

             Standard Nuclear Orientation (Angstroms)
    I     Atom           X                Y                Z
 ----------------------------------------------------------------
    1      C       7.9832301592     1.5385046051    -0.6798228765
    2      C       7.1707857147     2.3048280748     0.1405585716
    3      C       7.4652723882     0.4119711375    -1.3010455923
    4      C       5.8462077273     1.9486421745     0.3346083548
    5      C       6.1427224107     0.0541880748    -1.1079696934
    6      C       5.3139594816     0.8260553001    -0.2959225403
    7      C       3.8952966902     0.4686333670    -0.1030659763
    8      C       2.8965177239     1.3973428948    -0.2053323548
    9      C       3.4559207377    -0.8606097608     0.1591278781
   10      N       1.5711716552     1.1539370915    -0.0540410795
   11      N       4.2200000388    -1.9469652516     0.2954554640
   12      C       2.0589426867    -1.1350692217     0.3126971577
   13      C       1.1321556708    -0.0496100804     0.1933181141
   14      S       3.2127682684    -3.1698764802     0.5817969000
   15      N       1.7958996525    -2.4195034228     0.5556817113
   16      C      -0.3170216720    -0.2037792875     0.3260851180
   17      N      -0.9461510478    -1.2946951450     0.6377922415
   18      S      -1.3423415576     1.1668455440     0.0301899210
   19      C      -2.2866177086    -1.0897332578     0.6726035192
   20      C      -2.7101831859     0.1773198880     0.3820439617
   21      C      -4.0783586280     0.6486122980     0.3007096593
   22      S      -4.5795523984     2.1737359517     0.9452012062
   23      C      -5.1703995058     0.0035368256    -0.2121779257
   24      C      -6.2135434594     1.9444129248     0.5040778111
   25      S      -5.4110093447    -1.5231143066    -1.0161202986
   26      C      -6.3910813788     0.7343316263    -0.1063336056
   27      C      -7.1148452151    -1.1647719838    -1.1982450838
   28      C      -7.4961405442     0.0189186067    -0.6920247711
   29      H       9.0181450837     1.8133994032    -0.8310968968
   30      H       7.5702734545     3.1789510565     0.6361185022
   31      H       8.0948373439    -0.1930039141    -1.9389803728
   32      H       5.2195567779     2.5392798827     0.9898032151
   33      H       5.7467605450    -0.8273750601    -1.5905013097
   34      H       3.1456855588     2.4256818651    -0.4352053162
   35      H      -2.9458979765    -1.9041244540     0.9339359471
   36      H      -6.9447712700     2.7060288004     0.7133031892
   37      H      -7.7409047381    -1.8902043411    -1.6918133037
   38      H      -8.5100059351     0.3860396853    -0.7261618637
 ----------------------------------------------------------------

    9   -2579.8620576949      4.77E-09 Convergence criterion met
 Total energy in the final basis set = -2579.8620576949
 Final energy is   -2579.86205769494
 **  OPTIMIZATION CONVERGED  **

                    Orbital Energies (a.u.)
 --------------------------------------------------------------

 Alpha MOs
 -- Occupied --
-89.149 -89.090 -89.087 -89.077 -14.485 -14.482 -14.454 -14.443
-10.365 -10.362 -10.357 -10.356 -10.342 -10.341 -10.335 -10.332
-10.329 -10.326 -10.325 -10.322 -10.312 -10.312 -10.304 -10.298
-10.296 -10.295 -10.295 -10.294  -8.159  -8.104  -8.102  -8.092
 -6.109  -6.104  -6.103  -6.054  -6.051  -6.050  -6.047  -6.047
 -6.045  -6.042  -6.038  -6.034  -1.146  -1.086  -1.064  -1.022
 -1.010  -0.975  -0.958  -0.925  -0.919  -0.899  -0.876  -0.860
 -0.855  -0.833  -0.828  -0.802  -0.775  -0.745  -0.734  -0.712
 -0.705  -0.693  -0.690  -0.659  -0.651  -0.636  -0.626  -0.615
 -0.606  -0.598  -0.572  -0.564  -0.556  -0.548  -0.542  -0.531
 -0.529  -0.524  -0.514  -0.514  -0.505  -0.504  -0.498  -0.486
 -0.477  -0.475  -0.469  -0.455  -0.449  -0.438  -0.436  -0.434
 -0.430  -0.423  -0.421  -0.399  -0.389  -0.374  -0.368  -0.362
 -0.359  -0.353  -0.339  -0.338  -0.324  -0.305  -0.274

          Ground-State Mulliken Net Atomic Charges

     Atom                 Charge (a.u.)
  ----------------------------------------
      1 C                    -0.124077
      2 C                    -0.108215
      3 C                    -0.109217
      4 C                    -0.150859
      5 C                    -0.119688
      6 C                     0.121304
      7 C                     0.015136
      8 C                    -0.107764
      9 C                     0.034328
     10 N                    -0.173874
     11 N                    -0.282227
     12 C                    -0.014755
     13 C                     0.108565
     14 S                     0.412808
     15 N                    -0.222022
     16 C                    -0.009543
     17 N                    -0.136469
     18 S                     0.131002
     19 C                    -0.143984
     20 C                    -0.027705
     21 C                    -0.003994
     22 S                     0.140541
     23 C                    -0.055725
     24 C                    -0.221205
     25 S                     0.059986
     26 C                     0.045438
     27 C                    -0.143345
     28 C                    -0.175493
     29 H                     0.117827
     30 H                     0.115183
     31 H                     0.114352
     32 H                     0.127215
     33 H                     0.113646
     34 H                     0.135456
     35 H                     0.147334
     36 H                     0.129372
     37 H                     0.132582
     38 H                     0.128082
  ----------------------------------------
  Sum of atomic charges =     0.000000

                    Cartesian Multipole Moments
 -----------------------------------------------------------------
    Charge (ESU x 10^10)
                 0.0000
    Dipole Moment (Debye)
         X      -0.6799      Y       0.7955      Z      -0.4987
       Tot       1.1592
    Quadrupole Moments (Debye-Ang)
        XX    -141.2292     XY       0.1937     YY    -177.2657
        XZ      -0.0466     YZ       5.7009     ZZ    -186.7159

 Total job time:  6530.18s(wall), 98662.91s(cpu)
        *  Thank you very much for using Q-Chem.  Have a nice day.  *
