 Q-Chem 4.4, Q-Chem, Inc., Pleasanton, CA (2016)
 Q-Chem 4.4.2 for Intel X86 Linux

User input:
--------------------------------------------------------------
$comment
OPTIMIZATION
$end

$rem
JOBTYPE OPT
EXCHANGE omegaB97X-D
BASIS cc-pVTZ
$end

$molecule
0 1
C          0.00000        0.00000        0.00000
C          1.38599        0.00000        0.00000
C         -0.68515       -1.20581        0.00000
C          2.08055       -1.19709        0.02226
C          0.00742       -2.40411        0.01179
C          1.40063       -2.41271        0.04151
C          2.15950       -3.67324        0.15696
C          3.15000       -3.81753        1.08952
C          1.92849       -4.81544       -0.65861
N          3.90172       -4.92812        1.27968
N          1.02636       -4.93526       -1.63501
C          2.72047       -5.99481       -0.47371
C          3.72589       -5.99344        0.54686
S          1.20518       -6.42345       -2.22449
N          2.39935       -6.98227       -1.31015
C          4.58521       -7.13898        0.84639
N          4.63628       -8.25491        0.18914
S          5.66574       -7.04518        2.20635
C          5.53850       -9.10417        0.74263
C          6.20238       -8.64513        1.84759
C          7.23575       -9.32194        2.60049
S          8.52813       -8.47146        3.37905
C          7.38394      -10.66175        2.83194
C          9.25049       -9.90046        3.97665
S          6.50296      -12.08369        2.33945
C          8.52928      -11.00278        3.61040
C          7.66835      -13.09730        3.16691
C          8.65447      -12.42733        3.78337
H         -0.54342        0.93472        0.00000
H          1.93260        0.93382       -0.01501
H         -1.76734       -1.21268        0.00047
H          3.16263       -1.19509        0.00785
H         -0.53593       -3.33924        0.01382
H          3.36185       -2.99842        1.76492
H          5.68114      -10.08542        0.31444
H         10.16025       -9.85689        4.54907
H          7.53333      -14.16576        3.12181
H          9.45236      -12.91041        4.32511
$end

$opt
CONSTRAINT
tors 4 6 7 8 47.06187
tors 10 13 16 18 4.63242
tors 18 20 21 22 -30.00000
ENDCONSTRAINT
$end
--------------------------------------------------------------

   16   -2579.8617687802      4.59E-09 Convergence criterion met
 Total energy in the final basis set = -2579.8617687802
   12   -2579.8622766733      6.71E-09 Convergence criterion met
 Total energy in the final basis set = -2579.8622766733
   12   -2579.8624985015      5.47E-09 Convergence criterion met
 Total energy in the final basis set = -2579.8624985015
   10   -2579.8625439428      9.99E-09 Convergence criterion met
 Total energy in the final basis set = -2579.8625439428
   10   -2579.8625621050      6.85E-09 Convergence criterion met
 Total energy in the final basis set = -2579.8625621050
    9   -2579.8625667226      4.79E-09 Convergence criterion met
 Total energy in the final basis set = -2579.8625667226
    9   -2579.8625683631      5.95E-09 Convergence criterion met
 Total energy in the final basis set = -2579.8625683631

             Standard Nuclear Orientation (Angstroms)
    I     Atom           X                Y                Z
 ----------------------------------------------------------------
    1      C       8.0238095768     1.5339882154    -0.4476091189
    2      C       7.1746308956     2.2686846358     0.3643345396
    3      C       7.5348312919     0.4346167573    -1.1372225003
    4      C       5.8424979263     1.9073685844     0.4823030834
    5      C       6.2046036497     0.0716532332    -1.0200054953
    6      C       5.3396967470     0.8119986656    -0.2164670757
    7      C       3.9142509530     0.4497496169    -0.0973293213
    8      C       2.9212747522     1.3842634597    -0.2028366357
    9      C       3.4634461124    -0.8867400101     0.1005972817
   10      N       1.5913475082     1.1406876112    -0.1005955397
   11      N       4.2202275174    -1.9799751530     0.2206981342
   12      C       2.0615626187    -1.1618430460     0.1992515687
   13      C       1.1417913731    -0.0688657003     0.0935804916
   14      S       3.2013760998    -3.2094238732     0.4285901006
   15      N       1.7878049801    -2.4533447090     0.3854730634
   16      C      -0.3095364267    -0.2188344276     0.1936783985
   17      N      -0.9526695598    -1.3129645317     0.4605508425
   18      S      -1.3197912911     1.1705406688    -0.0703824366
   19      C      -2.2914958448    -1.0980789503     0.4841351904
   20      C      -2.7017318360     0.1822743036     0.2268691103
   21      C      -4.0598482593     0.6765803776     0.1741563045
   22      S      -4.4654956251     2.3139239261     0.5592520129
   23      C      -5.2085907792    -0.0038098429    -0.1319060802
   24      C      -6.1352663617     2.0777066454     0.2931780569
   25      S      -5.5620246888    -1.6382636114    -0.6198605939
   26      C      -6.3950880833     0.7858132969    -0.0696417152
   27      C      -7.2647795521    -1.2468448180    -0.7289497156
   28      C      -7.5661919123     0.0247515685    -0.4222772915
   29      H       9.0647392122     1.8126343645    -0.5391754319
   30      H       7.5506230149     3.1210708103     0.9132793606
   31      H       8.1923275947    -0.1463849010    -1.7692200249
   32      H       5.1870441343     2.4727360227     1.1315419882
   33      H       5.8315058307    -0.7894807707    -1.5549091379
   34      H       3.1798411475     2.4188598196    -0.3903367142
   35      H      -2.9565105656    -1.9156092281     0.7192330184
   36      H      -6.8265580477     2.8928791517     0.4196895348
   37      H      -7.9525494735    -2.0232769953    -1.0218613141
   38      H      -8.5679374312     0.4246129592    -0.4419493032
 ----------------------------------------------------------------

    8   -2579.8625686953      8.23E-09 Convergence criterion met
 Total energy in the final basis set = -2579.8625686953
 Final energy is   -2579.86256869534
 **  OPTIMIZATION CONVERGED  **

                    Orbital Energies (a.u.)
 --------------------------------------------------------------

 Alpha MOs
 -- Occupied --
-89.149 -89.090 -89.086 -89.078 -14.485 -14.481 -14.453 -14.443
-10.365 -10.362 -10.357 -10.355 -10.343 -10.342 -10.335 -10.333
-10.330 -10.327 -10.324 -10.322 -10.313 -10.311 -10.305 -10.297
-10.295 -10.295 -10.295 -10.294  -8.159  -8.105  -8.102  -8.093
 -6.109  -6.103  -6.103  -6.055  -6.051  -6.050  -6.048  -6.047
 -6.045  -6.043  -6.039  -6.035  -1.146  -1.086  -1.064  -1.023
 -1.010  -0.974  -0.959  -0.925  -0.920  -0.899  -0.877  -0.860
 -0.855  -0.833  -0.828  -0.802  -0.775  -0.744  -0.734  -0.712
 -0.705  -0.693  -0.691  -0.660  -0.651  -0.637  -0.626  -0.614
 -0.606  -0.598  -0.571  -0.564  -0.556  -0.548  -0.542  -0.532
 -0.530  -0.524  -0.514  -0.514  -0.507  -0.504  -0.498  -0.487
 -0.477  -0.476  -0.469  -0.455  -0.449  -0.440  -0.435  -0.434
 -0.430  -0.423  -0.421  -0.399  -0.393  -0.374  -0.368  -0.362
 -0.359  -0.353  -0.339  -0.338  -0.324  -0.306  -0.272

          Ground-State Mulliken Net Atomic Charges

     Atom                 Charge (a.u.)
  ----------------------------------------
      1 C                    -0.124560
      2 C                    -0.108867
      3 C                    -0.109359
      4 C                    -0.151179
      5 C                    -0.120258
      6 C                     0.121103
      7 C                     0.013582
      8 C                    -0.109360
      9 C                     0.035168
     10 N                    -0.174408
     11 N                    -0.282216
     12 C                    -0.013857
     13 C                     0.109976
     14 S                     0.412238
     15 N                    -0.222333
     16 C                    -0.010116
     17 N                    -0.137605
     18 S                     0.119892
     19 C                    -0.143432
     20 C                    -0.013911
     21 C                     0.004596
     22 S                     0.132852
     23 C                    -0.050934
     24 C                    -0.221326
     25 S                     0.056911
     26 C                     0.043178
     27 C                    -0.146486
     28 C                    -0.171338
     29 H                     0.118201
     30 H                     0.115828
     31 H                     0.114677
     32 H                     0.127849
     33 H                     0.114387
     34 H                     0.135662
     35 H                     0.144507
     36 H                     0.130533
     37 H                     0.132461
     38 H                     0.127944
  ----------------------------------------
  Sum of atomic charges =     0.000000

                    Cartesian Multipole Moments
 -----------------------------------------------------------------
    Charge (ESU x 10^10)
                 0.0000
    Dipole Moment (Debye)
         X      -0.8251      Y       0.8766      Z      -0.3281
       Tot       1.2477
    Quadrupole Moments (Debye-Ang)
        XX    -139.7217     XY       0.0745     YY    -176.5813
        XZ      -0.4852     YZ       4.9642     ZZ    -187.8605

 Total job time:  6462.15s(wall), 97693.63s(cpu)
        *  Thank you very much for using Q-Chem.  Have a nice day.  *
