 Q-Chem 4.4, Q-Chem, Inc., Pleasanton, CA (2016)
 Q-Chem 4.4.2 for Intel X86 Linux

User input:
--------------------------------------------------------------
$comment
OPTIMIZATION
$end

$rem
JOBTYPE OPT
EXCHANGE omegaB97X-D
BASIS cc-pVTZ
$end

$molecule
0 1
C          0.00000        0.00000        0.00000
C          1.38599        0.00000        0.00000
C         -0.68515       -1.20581        0.00000
C          2.08055       -1.19709        0.02226
C          0.00742       -2.40411        0.01179
C          1.40063       -2.41271        0.04151
C          2.15950       -3.67324        0.15696
C          3.15000       -3.81753        1.08952
C          1.92849       -4.81544       -0.65861
N          3.90172       -4.92812        1.27968
N          1.02636       -4.93526       -1.63501
C          2.72047       -5.99481       -0.47371
C          3.72589       -5.99344        0.54686
S          1.20518       -6.42345       -2.22449
N          2.39935       -6.98227       -1.31015
C          4.58521       -7.13898        0.84639
N          4.63628       -8.25491        0.18914
S          5.66574       -7.04518        2.20635
C          5.53850       -9.10417        0.74263
C          6.20238       -8.64513        1.84759
C          7.23575       -9.32194        2.60049
S          7.76024      -10.92903        2.22380
C          7.95011       -8.86232        3.67244
C          8.89611      -10.97165        3.50010
S          7.93409       -7.38515        4.59888
C          8.89481       -9.79422        4.19510
C          9.17040       -8.03177        5.65890
C          9.58373       -9.26982        5.34634
H         -0.54342        0.93472        0.00000
H          1.93260        0.93382       -0.01501
H         -1.76734       -1.21268        0.00047
H          3.16263       -1.19509        0.00785
H         -0.53593       -3.33924        0.01382
H          3.36185       -2.99842        1.76492
H          5.68114      -10.08542        0.31444
H          9.48964      -11.85131        3.67664
H          9.50521       -7.41913        6.48016
H         10.33055       -9.80663        5.90989
$end

$opt
CONSTRAINT
tors 4 6 7 8 47.06187
tors 10 13 16 18 4.63242
tors 18 20 21 22 180.00000
ENDCONSTRAINT
$end
--------------------------------------------------------------

   16   -2579.8618271324      5.55E-09 Convergence criterion met
 Total energy in the final basis set = -2579.8618271324
   12   -2579.8623549170      5.50E-09 Convergence criterion met
 Total energy in the final basis set = -2579.8623549170
   11   -2579.8624719996      7.03E-09 Convergence criterion met
 Total energy in the final basis set = -2579.8624719996
   10   -2579.8625003144      7.24E-09 Convergence criterion met
 Total energy in the final basis set = -2579.8625003144
   10   -2579.8625078392      4.42E-09 Convergence criterion met
 Total energy in the final basis set = -2579.8625078392
   10   -2579.8625107150      3.83E-09 Convergence criterion met
 Total energy in the final basis set = -2579.8625107150
    9   -2579.8625117486      5.10E-09 Convergence criterion met
 Total energy in the final basis set = -2579.8625117486

             Standard Nuclear Orientation (Angstroms)
    I     Atom           X                Y                Z
 ----------------------------------------------------------------
    1      C      -7.5920315810     2.2653303227     0.0611009388
    2      C      -6.6502934575     2.7075851300    -0.8541407982
    3      C      -7.2698369403     1.2399974227     0.9376789153
    4      C      -5.3912231117     2.1311271872    -0.8879458589
    5      C      -6.0136086721     0.6606402890     0.9031803403
    6      C      -5.0551300588     1.1081900374    -0.0038968653
    7      C      -3.7013831986     0.5219092141    -0.0313425989
    8      C      -2.5781458526     1.3013395958    -0.0657265360
    9      C      -3.4589064382    -0.8811414352     0.0019103423
   10      N      -1.3005607680     0.8485302970    -0.0911035566
   11      N      -4.3732061564    -1.8530296903     0.0448967350
   12      C      -2.1149962220    -1.3754409929    -0.0223992676
   13      C      -1.0393085507    -0.4302528335    -0.0723771126
   14      S      -3.5521883376    -3.2385931541     0.0581717086
   15      N      -2.0403407091    -2.7061086124     0.0078755488
   16      C       0.3709696230    -0.8114886090    -0.0927665445
   17      N       0.8427740045    -2.0187394734    -0.1564977974
   18      S       1.5803283441     0.4339710837    -0.0166985418
   19      C       2.1956685666    -2.0143046622    -0.1488691896
   20      C       2.7990198204    -0.7852528698    -0.0751119510
   21      C       4.2102948226    -0.4832251751    -0.0412440848
   22      S       5.3942103332    -1.7469909626    -0.1026898259
   23      C       4.8571212169     0.7222456227     0.0444585796
   24      C       6.7129590941    -0.6652140550    -0.0150439650
   25      S       4.3352339053     2.3816113281     0.1439942503
   26      C       6.2817772757     0.6283895009     0.0601254272
   27      C       6.0021445227     2.9128908974     0.2054390911
   28      C       6.9064704468     1.9225323068     0.1549700017
   29      H      -8.5747262617     2.7158522086     0.0881096944
   30      H      -6.8969701781     3.4966380648    -1.5511253225
   31      H      -8.0010271521     0.8911183264     1.6539199047
   32      H      -4.6639150938     2.4630899191    -1.6170462643
   33      H      -5.7708491908    -0.1383470355     1.5885341644
   34      H      -2.6775890858     2.3796995813    -0.0629546810
   35      H       2.7259734631    -2.9542692800    -0.1954564694
   36      H       7.7213255457    -1.0420340352    -0.0224073838
   37      H       6.1998540641     3.9699229371     0.2808288792
   38      H       7.9728230329     2.0835079309     0.1843775506
 ----------------------------------------------------------------

    8   -2579.8625121037      9.07E-09 Convergence criterion met
 Total energy in the final basis set = -2579.8625121037
 Final energy is   -2579.86251210367
 **  OPTIMIZATION CONVERGED  **

                    Orbital Energies (a.u.)
 --------------------------------------------------------------

 Alpha MOs
 -- Occupied --
-89.148 -89.091 -89.087 -89.079 -14.484 -14.480 -14.452 -14.443
-10.364 -10.360 -10.356 -10.354 -10.345 -10.343 -10.334 -10.334
-10.331 -10.329 -10.323 -10.321 -10.314 -10.311 -10.306 -10.297
-10.295 -10.295 -10.294 -10.294  -8.158  -8.106  -8.102  -8.094
 -6.108  -6.102  -6.102  -6.055  -6.051  -6.051  -6.049  -6.047
 -6.045  -6.044  -6.040  -6.036  -1.145  -1.086  -1.063  -1.024
 -1.009  -0.974  -0.959  -0.924  -0.921  -0.898  -0.873  -0.860
 -0.855  -0.838  -0.826  -0.803  -0.773  -0.744  -0.732  -0.714
 -0.704  -0.699  -0.687  -0.665  -0.648  -0.630  -0.624  -0.614
 -0.607  -0.599  -0.571  -0.564  -0.559  -0.548  -0.541  -0.532
 -0.531  -0.524  -0.514  -0.513  -0.512  -0.501  -0.490  -0.486
 -0.481  -0.475  -0.468  -0.455  -0.448  -0.442  -0.435  -0.432
 -0.429  -0.423  -0.420  -0.400  -0.398  -0.373  -0.367  -0.359
 -0.357  -0.352  -0.340  -0.338  -0.325  -0.309  -0.268

          Ground-State Mulliken Net Atomic Charges

     Atom                 Charge (a.u.)
  ----------------------------------------
      1 C                    -0.123400
      2 C                    -0.108905
      3 C                    -0.109209
      4 C                    -0.151732
      5 C                    -0.120950
      6 C                     0.122221
      7 C                     0.010983
      8 C                    -0.110211
      9 C                     0.033040
     10 N                    -0.175888
     11 N                    -0.281842
     12 C                    -0.010983
     13 C                     0.112292
     14 S                     0.411542
     15 N                    -0.223879
     16 C                    -0.007855
     17 N                    -0.140171
     18 S                     0.105312
     19 C                    -0.140320
     20 C                     0.017578
     21 C                     0.020120
     22 S                     0.117433
     23 C                    -0.053213
     24 C                    -0.216561
     25 S                     0.060231
     26 C                     0.035957
     27 C                    -0.154514
     28 C                    -0.166259
     29 H                     0.116897
     30 H                     0.114660
     31 H                     0.115188
     32 H                     0.128586
     33 H                     0.113990
     34 H                     0.136250
     35 H                     0.128782
     36 H                     0.132205
     37 H                     0.134523
     38 H                     0.128101
  ----------------------------------------
  Sum of atomic charges =     0.000000

                    Cartesian Multipole Moments
 -----------------------------------------------------------------
    Charge (ESU x 10^10)
                 0.0000
    Dipole Moment (Debye)
         X       1.1404      Y       1.3373      Z       0.2264
       Tot       1.7721
    Quadrupole Moments (Debye-Ang)
        XX    -142.5096     XY       0.2599     YY    -175.3912
        XZ      -1.3005     YZ      -2.9106     ZZ    -187.4428

 Total job time:  6509.57s(wall), 98516.98s(cpu)
        *  Thank you very much for using Q-Chem.  Have a nice day.  *
