 Q-Chem 4.4, Q-Chem, Inc., Pleasanton, CA (2016)
 Q-Chem 4.4.2 for Intel X86 Linux

User input:
--------------------------------------------------------------
$comment
OPTIMIZATION
$end

$rem
JOBTYPE OPT
EXCHANGE omegaB97X-D
BASIS cc-pVTZ
$end

$molecule
0 1
C          0.00000        0.00000        0.00000
C          1.38599        0.00000        0.00000
C         -0.68515       -1.20581        0.00000
C          2.08055       -1.19709        0.02226
C          0.00742       -2.40411        0.01179
C          1.40063       -2.41271        0.04151
C          2.15950       -3.67324        0.15696
C          3.15000       -3.81753        1.08952
C          1.92849       -4.81544       -0.65861
N          3.90172       -4.92812        1.27968
N          1.02636       -4.93526       -1.63501
C          2.72047       -5.99481       -0.47371
C          3.72589       -5.99344        0.54686
S          1.20518       -6.42345       -2.22449
N          2.39935       -6.98227       -1.31015
C          4.58521       -7.13898        0.84639
N          4.63628       -8.25491        0.18914
S          5.66574       -7.04518        2.20635
C          5.53850       -9.10417        0.74263
C          6.20238       -8.64513        1.84759
C          7.23575       -9.32194        2.60049
S          6.88602      -10.58411        3.73377
C          8.58780       -9.11830        2.56707
C          8.52716      -10.80412        4.15711
S          9.62823       -8.01228        1.70985
C          9.33217       -9.95328        3.45184
C         11.02200       -8.67217        2.54183
C         10.74221       -9.66287        3.40295
H         -0.54342        0.93472        0.00000
H          1.93260        0.93382       -0.01501
H         -1.76734       -1.21268        0.00047
H          3.16263       -1.19509        0.00785
H         -0.53593       -3.33924        0.01382
H          3.36185       -2.99842        1.76492
H          5.68114      -10.08542        0.31444
H          8.80934      -11.52994        4.89926
H         11.98893       -8.24702        2.32694
H         11.49100      -10.16218        3.99750
$end

$opt
CONSTRAINT
tors 4 6 7 8 47.06187
tors 10 13 16 18 4.63242
tors 18 20 21 22 105.00000
ENDCONSTRAINT
$end
--------------------------------------------------------------

   16   -2579.8589191305      4.32E-09 Convergence criterion met
 Total energy in the final basis set = -2579.8589191305
   12   -2579.8594150896      5.60E-09 Convergence criterion met
 Total energy in the final basis set = -2579.8594150896
   11   -2579.8595532256      8.11E-09 Convergence criterion met
 Total energy in the final basis set = -2579.8595532256
   11   -2579.8596094343      6.87E-09 Convergence criterion met
 Total energy in the final basis set = -2579.8596094343
   11   -2579.8596410737      7.36E-09 Convergence criterion met
 Total energy in the final basis set = -2579.8596410737
   11   -2579.8596547358      5.74E-09 Convergence criterion met
 Total energy in the final basis set = -2579.8596547358
   10   -2579.8596594810      4.82E-09 Convergence criterion met
 Total energy in the final basis set = -2579.8596594810
    9   -2579.8596604841      4.54E-09 Convergence criterion met
 Total energy in the final basis set = -2579.8596604841

             Standard Nuclear Orientation (Angstroms)
    I     Atom           X                Y                Z
 ----------------------------------------------------------------
    1      C       7.6902765214     2.1510822483    -0.4057378931
    2      C       6.6782192234     2.8422756992     0.2407799309
    3      C       7.4277669963     0.9072135793    -0.9604202151
    4      C       5.4088888883     2.2951994785     0.3265705754
    5      C       6.1604919270     0.3572927365    -0.8730911616
    6      C       5.1326163885     1.0521819947    -0.2388827333
    7      C       3.7661927421     0.5006762725    -0.1622611307
    8      C       2.6694666296     1.2579489744    -0.4692632897
    9      C       3.4831698202    -0.8440868076     0.2100602350
   10      N       1.3805247453     0.8419701545    -0.4125821883
   11      N       4.3674526911    -1.7883161805     0.5406424819
   12      C       2.1265178931    -1.2995985000     0.2691831740
   13      C       1.0815580142    -0.3770924282    -0.0579968318
   14      S       3.5072046638    -3.1071873611     0.8773611085
   15      N       2.0132761991    -2.5763949269     0.6371867748
   16      C      -0.3441226466    -0.7147890231    -0.0254957446
   17      N      -0.8571317833    -1.8355560221     0.3812393489
   18      S      -1.4971114945     0.4613290459    -0.5663054051
   19      C      -2.2117630448    -1.8071499979     0.2877544360
   20      C      -2.7594054860    -0.6541322009    -0.1930543078
   21      C      -4.1667366115    -0.3508629273    -0.4241520205
   22      S      -5.0448314841    -1.0498031702    -1.7385278454
   23      C      -4.9849629812     0.5125609642     0.2461681704
   24      C      -6.4836987561    -0.2095138213    -1.3651310300
   25      S      -4.7758114687     1.5480537536     1.6313405854
   26      C      -6.3107454938     0.5982569727    -0.2754218101
   27      C      -6.4420009806     2.0698315571     1.4976258265
   28      C      -7.1249413174     1.5127028634     0.4843120964
   29      H       8.6814207805     2.5784960327    -0.4720696082
   30      H       6.8773393352     3.8072717836     0.6865083451
   31      H       8.2144065744     0.3622387664    -1.4639411023
   32      H       4.6252225657     2.8284356400     0.8483155891
   33      H       5.9640125001    -0.6143492072    -1.3030482333
   34      H       2.8028374441     2.2821283727    -0.7941372708
   35      H      -2.7879873310    -2.6674888528     0.5943921913
   36      H      -7.3694706379    -0.3559899737    -1.9592353837
   37      H      -6.8124791383     2.7866883128     2.2123367797
   38      H      -8.1594985267     1.7312497355     0.2699650177
 ----------------------------------------------------------------

    7   -2579.8596606621      9.35E-09 Convergence criterion met
 Total energy in the final basis set = -2579.8596606621
 Final energy is   -2579.85966066207
 **  OPTIMIZATION CONVERGED  **

                    Orbital Energies (a.u.)
 --------------------------------------------------------------

 Alpha MOs
 -- Occupied --
-89.150 -89.088 -89.086 -89.075 -14.486 -14.482 -14.455 -14.443
-10.365 -10.363 -10.358 -10.356 -10.339 -10.339 -10.336 -10.330
-10.328 -10.325 -10.324 -10.323 -10.312 -10.311 -10.303 -10.298
-10.296 -10.296 -10.296 -10.295  -8.160  -8.103  -8.101  -8.090
 -6.110  -6.104  -6.104  -6.052  -6.050  -6.048  -6.047  -6.046
 -6.044  -6.039  -6.036  -6.031  -1.146  -1.086  -1.065  -1.020
 -1.010  -0.975  -0.955  -0.926  -0.918  -0.899  -0.874  -0.859
 -0.856  -0.834  -0.825  -0.800  -0.775  -0.745  -0.734  -0.712
 -0.704  -0.696  -0.687  -0.659  -0.652  -0.632  -0.626  -0.615
 -0.608  -0.598  -0.572  -0.565  -0.557  -0.549  -0.542  -0.528
 -0.528  -0.524  -0.515  -0.513  -0.507  -0.503  -0.497  -0.483
 -0.477  -0.474  -0.468  -0.457  -0.450  -0.437  -0.436  -0.432
 -0.430  -0.422  -0.420  -0.400  -0.379  -0.373  -0.369  -0.365
 -0.359  -0.352  -0.340  -0.338  -0.322  -0.300  -0.283

          Ground-State Mulliken Net Atomic Charges

     Atom                 Charge (a.u.)
  ----------------------------------------
      1 C                    -0.123607
      2 C                    -0.110298
      3 C                    -0.109384
      4 C                    -0.152718
      5 C                    -0.122640
      6 C                     0.121093
      7 C                     0.015534
      8 C                    -0.111172
      9 C                     0.035448
     10 N                    -0.171651
     11 N                    -0.281291
     12 C                    -0.014730
     13 C                     0.106140
     14 S                     0.414449
     15 N                    -0.222387
     16 C                    -0.007446
     17 N                    -0.139195
     18 S                     0.152342
     19 C                    -0.113066
     20 C                    -0.065172
     21 C                    -0.040525
     22 S                     0.150922
     23 C                    -0.037535
     24 C                    -0.223525
     25 S                     0.061659
     26 C                     0.045051
     27 C                    -0.140601
     28 C                    -0.177002
     29 H                     0.117676
     30 H                     0.116890
     31 H                     0.115996
     32 H                     0.129476
     33 H                     0.115961
     34 H                     0.136470
     35 H                     0.140423
     36 H                     0.130126
     37 H                     0.131750
     38 H                     0.126538
  ----------------------------------------
  Sum of atomic charges =     0.000000

                    Cartesian Multipole Moments
 -----------------------------------------------------------------
    Charge (ESU x 10^10)
                 0.0000
    Dipole Moment (Debye)
         X      -0.3791      Y       1.1312      Z      -0.3490
       Tot       1.2430
    Quadrupole Moments (Debye-Ang)
        XX    -144.6119     XY      -1.8568     YY    -178.2654
        XZ      -0.6818     YZ       5.6791     ZZ    -184.4695

 Total job time:  7128.20s(wall), 107623.07s(cpu)
        *  Thank you very much for using Q-Chem.  Have a nice day.  *
