 Q-Chem 4.4, Q-Chem, Inc., Pleasanton, CA (2016)
 Q-Chem 4.4.2 for Intel X86 Linux

User input:
--------------------------------------------------------------
$comment
OPTIMIZATION
$end

$rem
JOBTYPE OPT
EXCHANGE omegaB97X-D
BASIS cc-pVTZ
$end

$molecule
0 1
C          0.00000        0.00000        0.00000
C          1.38599        0.00000        0.00000
C         -0.68515       -1.20581        0.00000
C          2.08055       -1.19709        0.02226
C          0.00742       -2.40411        0.01179
C          1.40063       -2.41271        0.04151
C          2.15950       -3.67324        0.15696
C          3.15000       -3.81753        1.08952
C          1.92849       -4.81544       -0.65861
N          3.90172       -4.92812        1.27968
N          1.02636       -4.93526       -1.63501
C          2.72047       -5.99481       -0.47371
C          3.72589       -5.99344        0.54686
S          1.20518       -6.42345       -2.22449
N          2.39935       -6.98227       -1.31015
C          4.58521       -7.13898        0.84639
N          4.63628       -8.25491        0.18914
S          5.66574       -7.04518        2.20635
C          5.53850       -9.10417        0.74263
C          6.20238       -8.64513        1.84759
C          7.23575       -9.32194        2.60049
S          6.95337      -10.81256        3.43595
C          8.53912       -8.95054        2.78470
C          8.55337      -10.90613        4.02943
S          9.49354       -7.58006        2.28326
C          9.29711       -9.84242        3.59961
C         10.87025       -8.21124        3.16446
C         10.64650       -9.37643        3.79182
H         -0.54342        0.93472        0.00000
H          1.93260        0.93382       -0.01501
H         -1.76734       -1.21268        0.00047
H          3.16263       -1.19509        0.00785
H         -0.53593       -3.33924        0.01382
H          3.36185       -2.99842        1.76492
H          5.68114      -10.08542        0.31444
H          8.85641      -11.72120        4.66273
H         11.78223       -7.63666        3.15931
H         11.39128       -9.88496        4.38358
$end

$opt
CONSTRAINT
tors 4 6 7 8 47.06187
tors 10 13 16 18 4.63242
tors 18 20 21 22 120.00000
ENDCONSTRAINT
$end
--------------------------------------------------------------

   16   -2579.8597928329      4.40E-09 Convergence criterion met
 Total energy in the final basis set = -2579.8597928329
   12   -2579.8603876629      6.13E-09 Convergence criterion met
 Total energy in the final basis set = -2579.8603876629
   12   -2579.8605975611      4.81E-09 Convergence criterion met
 Total energy in the final basis set = -2579.8605975611
   11   -2579.8606683909      6.69E-09 Convergence criterion met
 Total energy in the final basis set = -2579.8606683909
   11   -2579.8607030329      6.97E-09 Convergence criterion met
 Total energy in the final basis set = -2579.8607030329
   10   -2579.8607144809      9.58E-09 Convergence criterion met
 Total energy in the final basis set = -2579.8607144809
    9   -2579.8607170099      9.37E-09 Convergence criterion met
 Total energy in the final basis set = -2579.8607170099

             Standard Nuclear Orientation (Angstroms)
    I     Atom           X                Y                Z
 ----------------------------------------------------------------
    1      C       7.6518966953     2.1851064217    -0.4529024293
    2      C       6.6443025945     2.8618907743     0.2154783529
    3      C       7.3900531325     0.9457932637    -1.0179762224
    4      C       5.3802283306     2.3047790987     0.3134422729
    5      C       6.1279390011     0.3860824719    -0.9189950821
    6      C       5.1043267270     1.0664603527    -0.2624916557
    7      C       3.7440757989     0.5023912191    -0.1697015641
    8      C       2.6356370296     1.2534777337    -0.4486642315
    9      C       3.4793402082    -0.8499136946     0.1885630848
   10      N       1.3514899736     0.8256108951    -0.3749107870
   11      N       4.3775009319    -1.7904388063     0.4909060413
   12      C       2.1280462389    -1.3188753462     0.2633893342
   13      C       1.0693471630    -0.4010551807    -0.0324645266
   14      S       3.5349550160    -3.1220886383     0.8224867478
   15      N       2.0324980359    -2.6017797618     0.6143926215
   16      C      -0.3516027398    -0.7519760831     0.0227372386
   17      N      -0.8472672038    -1.8825894151     0.4227198837
   18      S      -1.5262584150     0.4220842661    -0.4787345720
   19      C      -2.2032945111    -1.8641622698     0.3611538502
   20      C      -2.7712709030    -0.7074173949    -0.0899363600
   21      C      -4.1817702460    -0.4211243873    -0.2963665081
   22      S      -5.1547813705    -1.3976559148    -1.3388609250
   23      C      -4.9438183338     0.6044292093     0.1889139961
   24      C      -6.5585684348    -0.4580787470    -1.0881915741
   25      S      -4.6337363754     1.9402438966     1.2638616804
   26      C      -6.3021954252     0.5899551646    -0.2478085379
   27      C      -6.3015951028     2.4506833348     1.1175934005
   28      C      -7.0562391019     1.6803163667     0.3172343303
   29      H       8.6391950177     2.6199463924    -0.5278738752
   30      H       6.8429747852     3.8231953205     0.6693227661
   31      H       8.1732713769     0.4115008250    -1.5380164263
   32      H       4.6005918777     2.8268966156     0.8521860616
   33      H       5.9321952802    -0.5822078140    -1.3567922886
   34      H       2.7545965912     2.2828450787    -0.7626129499
   35      H      -2.7645463641    -2.7325285679     0.6732512767
   36      H      -7.4853822812    -0.7286906155    -1.5643186762
   37      H      -6.6192812222     3.3278162869     1.6576538711
   38      H      -8.1013999544     1.8648135789     0.1234255619
 ----------------------------------------------------------------

    9   -2579.8607178452      4.14E-09 Convergence criterion met
 Total energy in the final basis set = -2579.8607178452
 Final energy is   -2579.86071784516
 **  OPTIMIZATION CONVERGED  **

                    Orbital Energies (a.u.)
 --------------------------------------------------------------

 Alpha MOs
 -- Occupied --
-89.150 -89.089 -89.086 -89.075 -14.486 -14.482 -14.454 -14.443
-10.365 -10.363 -10.358 -10.356 -10.340 -10.340 -10.335 -10.331
-10.328 -10.325 -10.325 -10.323 -10.312 -10.311 -10.303 -10.298
-10.296 -10.296 -10.295 -10.295  -8.160  -8.103  -8.101  -8.090
 -6.110  -6.104  -6.104  -6.053  -6.050  -6.049  -6.047  -6.047
 -6.044  -6.040  -6.036  -6.032  -1.146  -1.086  -1.065  -1.021
 -1.010  -0.975  -0.956  -0.925  -0.919  -0.899  -0.874  -0.860
 -0.856  -0.835  -0.825  -0.800  -0.774  -0.745  -0.734  -0.712
 -0.704  -0.697  -0.687  -0.660  -0.651  -0.631  -0.625  -0.615
 -0.608  -0.598  -0.572  -0.565  -0.557  -0.549  -0.542  -0.529
 -0.528  -0.524  -0.514  -0.513  -0.508  -0.502  -0.496  -0.484
 -0.477  -0.475  -0.469  -0.456  -0.449  -0.437  -0.436  -0.433
 -0.430  -0.422  -0.420  -0.400  -0.383  -0.374  -0.368  -0.363
 -0.359  -0.352  -0.340  -0.338  -0.322  -0.303  -0.279

          Ground-State Mulliken Net Atomic Charges

     Atom                 Charge (a.u.)
  ----------------------------------------
      1 C                    -0.123641
      2 C                    -0.110301
      3 C                    -0.109506
      4 C                    -0.152616
      5 C                    -0.122660
      6 C                     0.121105
      7 C                     0.015548
      8 C                    -0.111360
      9 C                     0.035700
     10 N                    -0.172284
     11 N                    -0.281678
     12 C                    -0.014290
     13 C                     0.106712
     14 S                     0.413969
     15 N                    -0.222617
     16 C                    -0.007108
     17 N                    -0.138898
     18 S                     0.145783
     19 C                    -0.127990
     20 C                    -0.047928
     21 C                    -0.021110
     22 S                     0.146992
     23 C                    -0.050053
     24 C                    -0.225264
     25 S                     0.062457
     26 C                     0.045209
     27 C                    -0.141710
     28 C                    -0.175166
     29 H                     0.117570
     30 H                     0.116812
     31 H                     0.115919
     32 H                     0.129355
     33 H                     0.115946
     34 H                     0.136387
     35 H                     0.141352
     36 H                     0.130348
     37 H                     0.132062
     38 H                     0.126951
  ----------------------------------------
  Sum of atomic charges =     0.000000

                    Cartesian Multipole Moments
 -----------------------------------------------------------------
    Charge (ESU x 10^10)
                 0.0000
    Dipole Moment (Debye)
         X      -0.4893      Y       1.1482      Z      -0.3720
       Tot       1.3023
    Quadrupole Moments (Debye-Ang)
        XX    -144.4154     XY      -1.3709     YY    -176.4431
        XZ      -0.5294     YZ       5.6649     ZZ    -186.3323

 Total job time:  6559.07s(wall), 99063.62s(cpu)
        *  Thank you very much for using Q-Chem.  Have a nice day.  *
