 Q-Chem 4.4, Q-Chem, Inc., Pleasanton, CA (2016)
 Q-Chem 4.4.2 for Intel X86 Linux

User input:
--------------------------------------------------------------
$comment
OPTIMIZATION
$end

$rem
JOBTYPE OPT
EXCHANGE omegaB97X-D
BASIS cc-pVTZ
$end

$molecule
0 1
C          0.00000        0.00000        0.00000
C          1.38599        0.00000        0.00000
C         -0.68515       -1.20581        0.00000
C          2.08055       -1.19709        0.02226
C          0.00742       -2.40411        0.01179
C          1.40063       -2.41271        0.04151
C          2.15950       -3.67324        0.15696
C          3.15000       -3.81753        1.08952
C          1.92849       -4.81544       -0.65861
N          3.90172       -4.92812        1.27968
N          1.02636       -4.93526       -1.63501
C          2.72047       -5.99481       -0.47371
C          3.72589       -5.99344        0.54686
S          1.20518       -6.42345       -2.22449
N          2.39935       -6.98227       -1.31015
C          4.58521       -7.13898        0.84639
N          4.63628       -8.25491        0.18914
S          5.66574       -7.04518        2.20635
C          5.53850       -9.10417        0.74263
C          6.20238       -8.64513        1.84759
C          7.23575       -9.32194        2.60049
S          7.08526      -10.96911        3.11421
C          8.44314       -8.83529        3.02004
C          8.60789      -10.97753        3.89043
S          9.23579       -7.28673        2.90071
C          9.23042       -9.76738        3.75859
C         10.58620       -7.90157        3.83271
C         10.46838       -9.18453        4.20880
H         -0.54342        0.93472        0.00000
H          1.93260        0.93382       -0.01501
H         -1.76734       -1.21268        0.00047
H          3.16263       -1.19509        0.00785
H         -0.53593       -3.33924        0.01382
H          3.36185       -2.99842        1.76492
H          5.68114      -10.08542        0.31444
H          8.95628      -11.85587        4.40459
H         11.39958       -7.22882        4.05114
H         11.21086       -9.70200        4.79568
$end

$opt
CONSTRAINT
tors 4 6 7 8 47.06187
tors 10 13 16 18 4.63242
tors 18 20 21 22 135.00000
ENDCONSTRAINT
$end
--------------------------------------------------------------

   16   -2579.8607504932      4.59E-09 Convergence criterion met
 Total energy in the final basis set = -2579.8607504932
   12   -2579.8613883530      5.76E-09 Convergence criterion met
 Total energy in the final basis set = -2579.8613883530
   12   -2579.8616197748      4.70E-09 Convergence criterion met
 Total energy in the final basis set = -2579.8616197748
   11   -2579.8616722378      4.75E-09 Convergence criterion met
 Total energy in the final basis set = -2579.8616722378
   11   -2579.8616968993      5.59E-09 Convergence criterion met
 Total energy in the final basis set = -2579.8616968993
   10   -2579.8617035361      6.34E-09 Convergence criterion met
 Total energy in the final basis set = -2579.8617035361
    9   -2579.8617059806      7.54E-09 Convergence criterion met
 Total energy in the final basis set = -2579.8617059806

             Standard Nuclear Orientation (Angstroms)
    I     Atom           X                Y                Z
 ----------------------------------------------------------------
    1      C       7.6364439252     2.2034505260    -0.4142644652
    2      C       6.6438419233     2.8491922462     0.3053223872
    3      C       7.3595806244     0.9940254660    -1.0341718854
    4      C       5.3800170218     2.2908775866     0.4007190821
    5      C       6.0976866940     0.4335139606    -0.9384639021
    6      C       5.0888503139     1.0830493152    -0.2298212891
    7      C       3.7301723786     0.5150496254    -0.1380711290
    8      C       2.6159792564     1.2775904335    -0.3565332502
    9      C       3.4733538910    -0.8546905413     0.1544182889
   10      N       1.3336943353     0.8436797561    -0.2845000468
   11      N       4.3776913903    -1.8073492016     0.3935257593
   12      C       2.1242347618    -1.3302135858     0.2265725110
   13      C       1.0592422321    -0.4007206838    -0.0048368338
   14      S       3.5426295959    -3.1565047782     0.6696288073
   15      N       2.0363225170    -2.6295788459     0.5123108867
   16      C      -0.3582651610    -0.7611667423     0.0497457396
   17      N      -0.8437941739    -1.9152936137     0.3895884876
   18      S      -1.5468290468     0.4322020940    -0.3730030520
   19      C      -2.1993771319    -1.9032214742     0.3443035876
   20      C      -2.7804433092    -0.7267978915    -0.0394952197
   21      C      -4.1918134776    -0.4435821438    -0.2122559972
   22      S      -5.2389152209    -1.5812395051    -0.9867376744
   23      C      -4.9167618447     0.6657895332     0.1279767802
   24      C      -6.6194715206    -0.5907029202    -0.8177810504
   25      S      -4.5352213952     2.1708206565     0.9188790882
   26      C      -6.3020549063     0.5901915538    -0.2056037348
   27      C      -6.2086450827     2.6676794885     0.7930362321
   28      C      -7.0159423164     1.7745889226     0.1981955705
   29      H       8.6235881529     2.6390765858    -0.4867006954
   30      H       6.8546553186     3.7863644470     0.8020838663
   31      H       8.1308750375     0.4824638994    -1.5933743406
   32      H       4.6130512638     2.7885523051     0.9792573314
   33      H       5.8904825938    -0.5115375312    -1.4194241220
   34      H       2.7285987985     2.3226023275    -0.6166913986
   35      H      -2.7504802307    -2.7904533064     0.6196173514
   36      H      -7.5766768842    -0.9290076208    -1.1758546308
   37      H      -6.4890985424     3.6321638494     1.1842458902
   38      H      -8.0716863308     1.9335791059     0.0431654130
 ----------------------------------------------------------------

    9   -2579.8617067299      3.96E-09 Convergence criterion met
 Total energy in the final basis set = -2579.8617067299
 Final energy is   -2579.86170672992
 **  OPTIMIZATION CONVERGED  **

                    Orbital Energies (a.u.)
 --------------------------------------------------------------

 Alpha MOs
 -- Occupied --
-89.149 -89.089 -89.086 -89.076 -14.485 -14.482 -14.454 -14.443
-10.365 -10.362 -10.357 -10.356 -10.341 -10.341 -10.335 -10.332
-10.329 -10.326 -10.325 -10.322 -10.312 -10.312 -10.304 -10.297
-10.296 -10.296 -10.295 -10.294  -8.159  -8.104  -8.102  -8.091
 -6.109  -6.104  -6.103  -6.053  -6.050  -6.050  -6.047  -6.047
 -6.045  -6.041  -6.037  -6.033  -1.146  -1.086  -1.065  -1.022
 -1.010  -0.975  -0.957  -0.925  -0.919  -0.899  -0.874  -0.860
 -0.855  -0.836  -0.825  -0.801  -0.774  -0.745  -0.733  -0.712
 -0.704  -0.698  -0.687  -0.662  -0.650  -0.631  -0.625  -0.614
 -0.608  -0.598  -0.572  -0.564  -0.558  -0.549  -0.542  -0.530
 -0.529  -0.524  -0.514  -0.514  -0.510  -0.502  -0.494  -0.484
 -0.478  -0.476  -0.469  -0.455  -0.449  -0.438  -0.436  -0.434
 -0.430  -0.423  -0.420  -0.400  -0.388  -0.374  -0.368  -0.362
 -0.359  -0.352  -0.339  -0.338  -0.323  -0.305  -0.274

          Ground-State Mulliken Net Atomic Charges

     Atom                 Charge (a.u.)
  ----------------------------------------
      1 C                    -0.123732
      2 C                    -0.110161
      3 C                    -0.109938
      4 C                    -0.152624
      5 C                    -0.122815
      6 C                     0.121233
      7 C                     0.015357
      8 C                    -0.110898
      9 C                     0.035511
     10 N                    -0.173461
     11 N                    -0.282070
     12 C                    -0.014093
     13 C                     0.108766
     14 S                     0.413213
     15 N                    -0.222825
     16 C                    -0.008750
     17 N                    -0.138274
     18 S                     0.135903
     19 C                    -0.139721
     20 C                    -0.026871
     21 C                     0.001031
     22 S                     0.139135
     23 C                    -0.062241
     24 C                    -0.223633
     25 S                     0.063008
     26 C                     0.044795
     27 C                    -0.143783
     28 C                    -0.174021
     29 H                     0.117440
     30 H                     0.116680
     31 H                     0.115946
     32 H                     0.129281
     33 H                     0.116061
     34 H                     0.136211
     35 H                     0.139951
     36 H                     0.130366
     37 H                     0.132612
     38 H                     0.127411
  ----------------------------------------
  Sum of atomic charges =     0.000000

                    Cartesian Multipole Moments
 -----------------------------------------------------------------
    Charge (ESU x 10^10)
                 0.0000
    Dipole Moment (Debye)
         X      -0.6577      Y       1.1648      Z      -0.3374
       Tot       1.3795
    Quadrupole Moments (Debye-Ang)
        XX    -143.8300     XY      -0.9090     YY    -175.4417
        XZ      -0.6952     YZ       5.3664     ZZ    -187.4441

 Total job time:  6594.07s(wall), 99643.63s(cpu)
        *  Thank you very much for using Q-Chem.  Have a nice day.  *
