 Q-Chem 4.4, Q-Chem, Inc., Pleasanton, CA (2016)
 Q-Chem 4.4.2 for Intel X86 Linux

User input:
--------------------------------------------------------------
$comment
OPTIMIZATION
$end

$rem
JOBTYPE OPT
EXCHANGE omegaB97X-D
BASIS cc-pVTZ
$end

$molecule
0 1
C          0.00000        0.00000        0.00000
C          1.38599        0.00000        0.00000
C         -0.68515       -1.20581        0.00000
C          2.08055       -1.19709        0.02226
C          0.00742       -2.40411        0.01179
C          1.40063       -2.41271        0.04151
C          2.15950       -3.67324        0.15696
C          3.15000       -3.81753        1.08952
C          1.92849       -4.81544       -0.65861
N          3.90172       -4.92812        1.27968
N          1.02636       -4.93526       -1.63501
C          2.72047       -5.99481       -0.47371
C          3.72589       -5.99344        0.54686
S          1.20518       -6.42345       -2.22449
N          2.39935       -6.98227       -1.31015
C          4.58521       -7.13898        0.84639
N          4.63628       -8.25491        0.18914
S          5.66574       -7.04518        2.20635
C          5.53850       -9.10417        0.74263
C          6.20238       -8.64513        1.84759
C          7.23575       -9.32194        2.60049
S          8.28533      -10.50102        1.88784
C          7.56569       -9.17434        3.91957
C          9.12469      -10.79195        3.34792
S          6.92962       -8.21632        5.23037
C          8.63641      -10.00891        4.35678
C          8.08686       -8.94209        6.32777
C          8.90822       -9.83969        5.76121
H         -0.54342        0.93472        0.00000
H          1.93260        0.93382       -0.01501
H         -1.76734       -1.21268        0.00047
H          3.16263       -1.19509        0.00785
H         -0.53593       -3.33924        0.01382
H          3.36185       -2.99842        1.76492
H          5.68114      -10.08542        0.31444
H          9.91506      -11.52048        3.39012
H          8.06165       -8.64154        7.36262
H          9.66601      -10.37909        6.30739
$end

$opt
CONSTRAINT
tors 4 6 7 8 47.06187
tors 10 13 16 18 4.63242
tors 18 20 21 22 -150.00000
ENDCONSTRAINT
$end
--------------------------------------------------------------

   16   -2579.8618996550      5.05E-09 Convergence criterion met
 Total energy in the final basis set = -2579.8618996550
   12   -2579.8623056541      6.37E-09 Convergence criterion met
 Total energy in the final basis set = -2579.8623056541
   12   -2579.8624088961      5.51E-09 Convergence criterion met
 Total energy in the final basis set = -2579.8624088961
   10   -2579.8624198624      3.44E-09 Convergence criterion met
 Total energy in the final basis set = -2579.8624198624
    9   -2579.8624244635      8.34E-09 Convergence criterion met
 Total energy in the final basis set = -2579.8624244635

             Standard Nuclear Orientation (Angstroms)
    I     Atom           X                Y                Z
 ----------------------------------------------------------------
    1      C      -7.6121708107     2.2361157858    -0.2792238280
    2      C      -6.6598400504     2.5356438645    -1.2399862033
    3      C      -7.3011168417     1.3546463249     0.7455575858
    4      C      -5.4010946885     1.9625223471    -1.1707142243
    5      C      -6.0445303219     0.7784249258     0.8147911283
    6      C      -5.0748521065     1.0871874087    -0.1369924223
    7      C      -3.7182339742     0.5109008792    -0.0693178359
    8      C      -2.6020748832     1.2875048031    -0.2161575863
    9      C      -3.4632838514    -0.8709485550     0.1612621286
   10      N      -1.3213782557     0.8438915170    -0.1997543258
   11      N      -4.3684649977    -1.8330995391     0.3536994432
   12      C      -2.1150487735    -1.3541561386     0.1895126959
   13      C      -1.0492977217    -0.4186421943    -0.0139672039
   14      S      -3.5348690941    -3.1968947819     0.5539679047
   15      N      -2.0284277974    -2.6663584391     0.4083519645
   16      C       0.3643932548    -0.7921312583    -0.0382569406
   17      N       0.8439570313    -1.9954283612     0.0319215546
   18      S       1.5613768007     0.4591958976    -0.1849307310
   19      C       2.1982627669    -1.9823841551    -0.0157988499
   20      C       2.7879957101    -0.7521912733    -0.1288174620
   21      C       4.1976010658    -0.4429166793    -0.2240403014
   22      S       5.3118994784    -1.5723892041    -0.9168958972
   23      C       4.8832014271     0.6813477893     0.1512731625
   24      C       6.6626197542    -0.5562319407    -0.6707469020
   25      S       4.4313304759     2.1895115511     0.8982151759
   26      C       6.2879608094     0.6246304017    -0.0936733830
   27      C       6.1018381022     2.7115785737     0.8710647990
   28      C       6.9574588866     1.8244024078     0.3389273394
   29      H      -8.5947382023     2.6849145423    -0.3298676249
   30      H      -6.8974207562     3.2140464607    -2.0478059879
   31      H      -8.0415771204     1.1146980560     1.4961706414
   32      H      -4.6649699837     2.1836767234    -1.9321210818
   33      H      -5.8108070102     0.0867229453     1.6111699178
   34      H      -2.7116474510     2.3552313512    -0.3594325144
   35      H       2.7408673690    -2.9142269503     0.0464617117
   36      H       7.6458424873    -0.8791232793    -0.9670804884
   37      H       6.3414398206     3.6854791650     1.2660461306
   38      H       8.0183143767     1.9974562795     0.2464514583
 ----------------------------------------------------------------

    8   -2579.8624253275      9.10E-09 Convergence criterion met
 Total energy in the final basis set = -2579.8624253275
 Final energy is   -2579.86242532754
 **  OPTIMIZATION CONVERGED  **

                    Orbital Energies (a.u.)
 --------------------------------------------------------------

 Alpha MOs
 -- Occupied --
-89.149 -89.090 -89.086 -89.078 -14.485 -14.481 -14.453 -14.443
-10.364 -10.361 -10.357 -10.355 -10.343 -10.342 -10.335 -10.333
-10.330 -10.327 -10.324 -10.322 -10.313 -10.311 -10.305 -10.297
-10.295 -10.295 -10.295 -10.294  -8.159  -8.105  -8.102  -8.092
 -6.109  -6.103  -6.103  -6.054  -6.051  -6.050  -6.048  -6.047
 -6.045  -6.042  -6.038  -6.034  -1.145  -1.086  -1.064  -1.023
 -1.009  -0.974  -0.958  -0.925  -0.920  -0.898  -0.873  -0.860
 -0.855  -0.837  -0.826  -0.802  -0.774  -0.744  -0.733  -0.713
 -0.704  -0.699  -0.687  -0.663  -0.649  -0.630  -0.624  -0.614
 -0.607  -0.599  -0.571  -0.564  -0.559  -0.549  -0.542  -0.531
 -0.530  -0.524  -0.514  -0.513  -0.512  -0.502  -0.491  -0.486
 -0.479  -0.475  -0.469  -0.455  -0.449  -0.439  -0.436  -0.433
 -0.430  -0.423  -0.420  -0.399  -0.394  -0.374  -0.367  -0.360
 -0.359  -0.352  -0.339  -0.338  -0.324  -0.307  -0.271

          Ground-State Mulliken Net Atomic Charges

     Atom                 Charge (a.u.)
  ----------------------------------------
      1 C                    -0.123243
      2 C                    -0.109090
      3 C                    -0.108162
      4 C                    -0.151610
      5 C                    -0.120622
      6 C                     0.120561
      7 C                     0.013376
      8 C                    -0.112594
      9 C                     0.035285
     10 N                    -0.174054
     11 N                    -0.281935
     12 C                    -0.012077
     13 C                     0.109742
     14 S                     0.412532
     15 N                    -0.223263
     16 C                    -0.008604
     17 N                    -0.138578
     18 S                     0.122760
     19 C                    -0.142848
     20 C                    -0.005930
     21 C                     0.014703
     22 S                     0.129592
     23 C                    -0.062975
     24 C                    -0.221708
     25 S                     0.062115
     26 C                     0.042356
     27 C                    -0.147518
     28 C                    -0.171319
     29 H                     0.116777
     30 H                     0.115108
     31 H                     0.114730
     32 H                     0.128801
     33 H                     0.114232
     34 H                     0.136579
     35 H                     0.134659
     36 H                     0.131024
     37 H                     0.133403
     38 H                     0.127794
  ----------------------------------------
  Sum of atomic charges =     0.000000

                    Cartesian Multipole Moments
 -----------------------------------------------------------------
    Charge (ESU x 10^10)
                 0.0000
    Dipole Moment (Debye)
         X       0.8554      Y       1.2865      Z      -0.0086
       Tot       1.5449
    Quadrupole Moments (Debye-Ang)
        XX    -143.4219     XY       0.1156     YY    -177.8788
        XZ      -2.2946     YZ      -0.7819     ZZ    -184.8994

 Total job time:  4988.53s(wall), 75404.35s(cpu)
        *  Thank you very much for using Q-Chem.  Have a nice day.  *
