 Q-Chem 4.4, Q-Chem, Inc., Pleasanton, CA (2016)
 Q-Chem 4.4.2 for Intel X86 Linux

User input:
--------------------------------------------------------------
$comment
OPTIMIZATION
$end

$rem
JOBTYPE OPT
EXCHANGE omegaB97X-D
BASIS cc-pVTZ
$end

$molecule
0 1
C          0.00000        0.00000        0.00000
C          1.38599        0.00000        0.00000
C         -0.68515       -1.20581        0.00000
C          2.08055       -1.19709        0.02226
C          0.00742       -2.40411        0.01179
C          1.40063       -2.41271        0.04151
C          2.15950       -3.67324        0.15696
C          3.15000       -3.81753        1.08952
C          1.92849       -4.81544       -0.65861
N          3.90172       -4.92812        1.27968
N          1.02636       -4.93526       -1.63501
C          2.72047       -5.99481       -0.47371
C          3.72589       -5.99344        0.54686
S          1.20518       -6.42345       -2.22449
N          2.39935       -6.98227       -1.31015
C          4.58521       -7.13898        0.84639
N          4.63628       -8.25491        0.18914
S          5.66574       -7.04518        2.20635
C          5.53850       -9.10417        0.74263
C          6.20238       -8.64513        1.84759
C          7.23575       -9.32194        2.60049
S          7.27271      -11.04306        2.79045
C          8.30641       -8.78040        3.25705
C          8.68699      -11.01345        3.74956
S          8.87255       -7.15226        3.52016
C          9.13665       -9.73328        3.91796
C         10.18919       -7.76426        4.50105
C         10.21999       -9.10025        4.62549
H         -0.54342        0.93472        0.00000
H          1.93260        0.93382       -0.01501
H         -1.76734       -1.21268        0.00047
H          3.16263       -1.19509        0.00785
H         -0.53593       -3.33924        0.01382
H          3.36185       -2.99842        1.76492
H          5.68114      -10.08542        0.31444
H          9.10214      -11.92478        4.14244
H         10.86704       -7.05131        4.94164
H         10.96204       -9.62576        5.20572
$end

$opt
CONSTRAINT
tors 4 6 7 8 47.06187
tors 10 13 16 18 4.63242
tors 18 20 21 22 150.00000
ENDCONSTRAINT
$end
--------------------------------------------------------------

   16   -2579.8614427344      4.92E-09 Convergence criterion met
 Total energy in the final basis set = -2579.8614427344
   12   -2579.8620574086      6.12E-09 Convergence criterion met
 Total energy in the final basis set = -2579.8620574086
   11   -2579.8622281560      7.88E-09 Convergence criterion met
 Total energy in the final basis set = -2579.8622281560
   10   -2579.8622706815      8.65E-09 Convergence criterion met
 Total energy in the final basis set = -2579.8622706815
   10   -2579.8622839601      5.51E-09 Convergence criterion met
 Total energy in the final basis set = -2579.8622839601
   10   -2579.8622880926      4.20E-09 Convergence criterion met
 Total energy in the final basis set = -2579.8622880926
    9   -2579.8622895050      5.36E-09 Convergence criterion met
 Total energy in the final basis set = -2579.8622895050

             Standard Nuclear Orientation (Angstroms)
    I     Atom           X                Y                Z
 ----------------------------------------------------------------
    1      C       7.6124844892     2.2307503047    -0.3494849084
    2      C       6.6482898688     2.8202433825     0.4524391051
    3      C       7.3103153304     1.0709769968    -1.0475498336
    4      C       5.3867027801     2.2569196696     0.5506816744
    5      C       6.0516695670     0.5045102830    -0.9475880809
    6      C       5.0706733938     1.0987765362    -0.1562226838
    7      C       3.7142642339     0.5248561120    -0.0681623383
    8      C       2.5941484972     1.2986234179    -0.1982060167
    9      C       3.4666854442    -0.8636731655     0.1284987415
   10      N       1.3145456391     0.8548669475    -0.1386253458
   11      N       4.3779353107    -1.8269945897     0.2832114160
   12      C       2.1205440823    -1.3487293905     0.1905492576
   13      C       1.0486334798    -0.4094864047     0.0446159682
   14      S       3.5518661992    -3.1960653459     0.4773310831
   15      N       2.0414505690    -2.6654507288     0.3838634517
   16      C      -0.3650816943    -0.7824888662     0.0799195271
   17      N      -0.8433051651    -1.9634308072     0.3241382520
   18      S      -1.5640271770     0.4338663688    -0.2409694143
   19      C      -2.1976918885    -1.9580363524     0.2819064402
   20      C      -2.7892677869    -0.7581264885    -0.0083064223
   21      C      -4.1995360124    -0.4681319752    -0.1463363673
   22      S      -5.3122591021    -1.6872232657    -0.6663329543
   23      C      -4.8865928589     0.6978545264     0.0628463272
   24      C      -6.6643287521    -0.6484735155    -0.5701698068
   25      S      -4.4362487935     2.3004171512     0.5784737535
   26      C      -6.2913883801     0.6043746028    -0.1705804959
   27      C      -6.1073885805     2.8107004982     0.4771206159
   28      C      -6.9621401143     1.8540562451     0.0814089720
   29      H       8.5973018982     2.6710824072    -0.4251432360
   30      H       6.8803188619     3.7165341678     1.0113422978
   31      H       8.0589800189     0.6030766201    -1.6719133297
   32      H       4.6422214184     2.7094789521     1.1922771307
   33      H       5.8237614004    -0.4015595713    -1.4903750893
   34      H       2.6991078074     2.3614083019    -0.3772868542
   35      H      -2.7393255624    -2.8701252840     0.4857864761
   36      H      -7.6471341778    -1.0122001018    -0.8163159791
   37      H      -6.3465605041     3.8320881999     0.7254621123
   38      H      -8.0233529049     2.0104261522    -0.0338854038
 ----------------------------------------------------------------

    8   -2579.8622899389      9.97E-09 Convergence criterion met
 Total energy in the final basis set = -2579.8622899389
 Final energy is   -2579.86228993893
 **  OPTIMIZATION CONVERGED  **

                    Orbital Energies (a.u.)
 --------------------------------------------------------------

 Alpha MOs
 -- Occupied --
-89.149 -89.090 -89.086 -89.078 -14.485 -14.481 -14.453 -14.443
-10.364 -10.361 -10.357 -10.355 -10.343 -10.342 -10.335 -10.332
-10.330 -10.327 -10.324 -10.322 -10.313 -10.311 -10.305 -10.297
-10.295 -10.295 -10.295 -10.294  -8.159  -8.105  -8.102  -8.092
 -6.109  -6.103  -6.103  -6.054  -6.051  -6.050  -6.048  -6.047
 -6.045  -6.042  -6.038  -6.034  -1.145  -1.086  -1.064  -1.023
 -1.009  -0.974  -0.958  -0.925  -0.920  -0.898  -0.873  -0.860
 -0.855  -0.837  -0.826  -0.802  -0.774  -0.744  -0.733  -0.713
 -0.704  -0.699  -0.687  -0.663  -0.649  -0.630  -0.624  -0.614
 -0.607  -0.599  -0.571  -0.564  -0.559  -0.548  -0.542  -0.531
 -0.530  -0.524  -0.514  -0.514  -0.511  -0.502  -0.492  -0.485
 -0.479  -0.475  -0.468  -0.455  -0.449  -0.439  -0.435  -0.434
 -0.430  -0.423  -0.420  -0.399  -0.394  -0.374  -0.367  -0.360
 -0.359  -0.352  -0.339  -0.338  -0.324  -0.307  -0.271

          Ground-State Mulliken Net Atomic Charges

     Atom                 Charge (a.u.)
  ----------------------------------------
      1 C                    -0.123676
      2 C                    -0.109835
      3 C                    -0.110248
      4 C                    -0.152882
      5 C                    -0.122581
      6 C                     0.121721
      7 C                     0.013972
      8 C                    -0.109599
      9 C                     0.034507
     10 N                    -0.174849
     11 N                    -0.282053
     12 C                    -0.013839
     13 C                     0.111012
     14 S                     0.412441
     15 N                    -0.223231
     16 C                    -0.010228
     17 N                    -0.138166
     18 S                     0.123839
     19 C                    -0.143560
     20 C                    -0.006340
     21 C                     0.013996
     22 S                     0.130225
     23 C                    -0.062167
     24 C                    -0.222195
     25 S                     0.061710
     26 C                     0.042802
     27 C                    -0.147682
     28 C                    -0.171138
     29 H                     0.117293
     30 H                     0.116260
     31 H                     0.116072
     32 H                     0.129251
     33 H                     0.115901
     34 H                     0.136018
     35 H                     0.135435
     36 H                     0.131041
     37 H                     0.133138
     38 H                     0.127636
  ----------------------------------------
  Sum of atomic charges =     0.000000

                    Cartesian Multipole Moments
 -----------------------------------------------------------------
    Charge (ESU x 10^10)
                 0.0000
    Dipole Moment (Debye)
         X      -0.8561      Y       1.2323      Z      -0.3166
       Tot       1.5336
    Quadrupole Moments (Debye-Ang)
        XX    -143.3580     XY      -0.6212     YY    -174.9432
        XZ      -0.8723     YZ       4.8604     ZZ    -187.8921

 Total job time:  6466.06s(wall), 97789.23s(cpu)
        *  Thank you very much for using Q-Chem.  Have a nice day.  *
