 Q-Chem 4.4, Q-Chem, Inc., Pleasanton, CA (2016)
 Q-Chem 4.4.2 for Intel X86 Linux

User input:
--------------------------------------------------------------
$comment
SP
$end

$rem
MEM_STATIC 5000
MEM_TOTAL 20000
JOBTYPE SP
EXCHANGE B3LYP
BASIS 6-31g(d,p)
$end

$molecule
0 1
C         -22.012000    -13.940000     -3.621000
C         -21.523000    -13.034000     -2.719000
N         -23.282000    -14.267000     -3.614000
C         -22.404000    -12.526000     -1.686000
C         -24.196000    -13.654000     -2.774000
C         -23.784000    -12.764000     -1.727000
C         -24.762000    -11.892000     -0.855000
C         -26.096000    -12.356000     -0.682000
C         -24.447000    -10.633000     -0.278000
N         -27.048000    -11.655000     -0.056000
N         -23.287000     -9.936000     -0.462000
C         -25.472000     -9.880000      0.341000
C         -26.788000    -10.412000      0.450000
S         -23.425000     -8.561000      0.353000
N         -24.999000     -8.703000      0.831000
C         -27.914000     -9.692000      1.057000
S         -27.980000     -7.958000      1.512000
C         -29.113000    -10.279000      1.396000
C         -29.529000     -8.112000      2.204000
S         -29.579000    -11.985000      1.480000
C         -30.061000     -9.393000      2.026000
C         -30.093000     -7.085000      3.090000
C         -31.032000    -11.525000      2.451000
C         -31.217000    -10.156000      2.592000
N         -30.974000     -7.458000      4.032000
S         -29.156000     -5.698000      3.375000
C         -30.959000     -6.458000      5.032000
C         -30.004000     -5.450000      4.823000
C         -21.109000    -14.471000     -4.730000
H         -20.471000    -12.771000     -2.781000
H         -21.977000    -11.899000     -0.908000
H         -25.237000    -13.905000     -2.974000
H         -26.393000    -13.320000     -1.092000
H         -31.724000    -12.320000      2.697000
H         -32.026000     -9.617000      3.071000
H         -31.628000     -6.482000      5.882000
H         -29.948000     -4.616000      5.509000
H         -20.059000    -14.273000     -4.481000
C         -21.483000    -13.746000     -6.088000
H         -21.217000    -15.550000     -4.893000
H         -21.188000    -12.690000     -6.072000
H         -22.574000    -13.718000     -6.198000
C         -20.766000    -14.429000     -7.286000
H         -19.685000    -14.575000     -7.173000
C         -21.178000    -13.802000     -8.659000
H         -21.256000    -15.411000     -7.264000
H         -20.982000    -12.723000     -8.686000
H         -22.271000    -13.842000     -8.741000
C         -20.421000    -14.500000     -9.868000
H         -20.392000    -13.774000    -10.690000
C         -21.040000    -15.802000    -10.360000
H         -19.358000    -14.688000     -9.677000
H         -21.981000    -15.540000    -10.860000
H         -21.294000    -16.404000     -9.478000
H         -20.409000    -16.309000    -11.100000
C         -19.964000    -12.146000      2.358000
C         -19.583000    -13.022000      1.347000
N         -21.137000    -12.355000      2.952000
C         -20.274000    -14.208000      1.083000
C         -21.927000    -13.410000      2.622000
C         -21.500000    -14.468000      1.749000
C         -22.319000    -15.619000      1.414000
C         -23.314000    -16.109000      2.261000
C         -22.370000    -16.289000      0.142000
N         -23.986000    -17.236000      2.037000
N         -21.577000    -15.981000     -0.853000
C         -23.144000    -17.373000     -0.135000
C         -23.990000    -17.810000      0.876000
S         -21.834000    -16.953000     -2.066000
N         -23.073000    -17.807000     -1.470000
C         -24.724000    -19.146000      0.777000
S         -24.699000    -20.216000     -0.649000
C         -25.429000    -19.770000      1.821000
C         -25.319000    -21.538000      0.324000
S         -25.913000    -19.147000      3.438000
C         -25.710000    -21.123000      1.521000
C         -25.404000    -22.911000     -0.179000
C         -26.492000    -20.837000      3.710000
C         -26.379000    -21.699000      2.606000
N         -25.925000    -23.912000      0.508000
S         -25.046000    -23.227000     -1.856000
C         -26.086000    -25.061000     -0.300000
C         -25.723000    -24.817000     -1.637000
C         -19.172000    -10.875000      2.766000
H         -18.700000    -12.760000      0.772000
H         -19.851000    -14.996000      0.468000
H         -22.867000    -13.484000      3.166000
H         -23.395000    -15.744000      3.284000
H         -26.729000    -21.151000      4.717000
H         -26.689000    -22.736000      2.671000
H         -26.372000    -25.987000      0.182000
H         -25.627000    -25.564000     -2.413000
H         -19.492000    -10.552000      3.765000
C         -19.306000     -9.665000      1.869000
H         -18.139000    -11.237000      2.835000
H         -20.374000     -9.417000      1.836000
H         -19.064000     -9.857000      0.816000
C         -18.570000     -8.477000      2.365000
H         -18.723000     -7.639000      1.673000
C         -17.028000     -8.650000      2.566000
H         -19.026000     -8.226000      3.331000
H         -16.852000     -9.476000      3.267000
H         -16.638000     -7.770000      3.091000
C         -16.178000     -8.777000      1.276000
H         -16.504000     -9.612000      0.644000
C         -14.673000     -9.074000      1.547000
H         -16.244000     -7.818000      0.747000
H         -14.055000     -9.154000      0.644000
H         -14.534000    -10.082000      1.958000
H         -14.208000     -8.425000      2.298000
$end

--------------------------------------------------------------

             Standard Nuclear Orientation (Angstroms)
    I     Atom           X                Y                Z
 ----------------------------------------------------------------
    1      C       1.6224549211     3.4808769685    -2.0325044312
    2      C       0.6158825169     3.7865685533    -1.1567615179
    3      N       1.6656291453     2.3056420450    -2.6128809132
    4      C      -0.3372851088     2.7560676373    -0.7950249572
    5      C       0.6629637768     1.3652854067    -2.4480884630
    6      C      -0.3861478774     1.5377179299    -1.4849245299
    7      C      -1.6534477560     0.6121630345    -1.3642963689
    8      C      -1.5429883913    -0.7331773946    -1.8144506298
    9      C      -2.9325055013     1.0262665125    -0.9062957209
   10      N      -2.5742352676    -1.5838326592    -1.8644156264
   11      N      -3.2934923770     2.3044272308    -0.5880840713
   12      C      -4.0253712611     0.1338764602    -1.0066920639
   13      C      -3.8291975918    -1.1900297177    -1.4920263031
   14      S      -4.8425094680     2.2705456144    -0.1718004085
   15      N      -5.1702625932     0.6927254839    -0.5312242876
   16      C      -4.9084753915    -2.1726230558    -1.6482145323
   17      S      -6.6750237564    -1.8740248681    -1.5572035623
   18      C      -4.7029749139    -3.5162751953    -1.8706094102
   19      C      -7.0479617695    -3.5282366123    -1.7199356845
   20      S      -3.2268432879    -4.4889852077    -1.7730458176
   21      C      -5.9076175233    -4.3063092187    -1.9432897071
   22      C      -8.3792990859    -4.0623651936    -1.4035994574
   23      C      -4.2347033431    -5.9886466061    -1.7433170578
   24      C      -5.5939241305    -5.7692118369    -1.9239665335
   25      N      -8.4821254978    -5.3340719456    -0.9854575367
   26      S      -9.5664345042    -2.9567330386    -0.9023509795
   27      C      -9.7021256280    -5.4398162725    -0.2778963595
   28      C     -10.3889464534    -4.2239004204    -0.1309412830
   29      C       2.6235117593     4.5557763750    -2.4444843734
   30      H       0.6036436898     4.7821380271    -0.7227008839
   31      H      -1.0599219839     2.9748646358    -0.0135738583
   32      H       0.7415820264     0.4973691004    -3.1017110270
   33      H      -0.5842330329    -1.1110847198    -2.1659889867
   34      H      -3.7037920408    -6.9316626222    -1.7594099926
   35      H      -6.4019892901    -6.4870119750    -2.0029390580
   36      H     -10.0614602986    -6.3817145848     0.1149689659
   37      H     -11.3549359398    -4.2108002581     0.3548371623
   38      H       2.5822307140     5.3929271510    -1.7365440838
   39      C       2.2590389937     5.0664169409    -3.8991564380
   40      H       3.6576156319     4.1920922269    -2.4734156896
   41      H       1.3271158474     5.6442885229    -3.8983292563
   42      H       2.0405070026     4.2060891369    -4.5435513778
   43      C       3.3897019677     5.9753584163    -4.4570172036
   44      H       3.7157066950     6.7883288452    -3.7971338809
   45      C       3.1134204157     6.4293487203    -5.9286025079
   46      H       4.2014385391     5.2405067259    -4.5343782521
   47      H       2.1520232184     6.9501170679    -6.0174943373
   48      H       2.9500391282     5.5334053195    -6.5398021296
   49      C       4.2694908821     7.3719501410    -6.4735223537
   50      H       3.8326695420     7.9873701644    -7.2697926041
   51      C       5.5019217671     6.6513425306    -7.0048111505
   52      H       4.6086595609     8.1222786061    -5.7498056953
   53      H       5.2074355983     6.1623302937    -7.9419717176
   54      H       5.7592961971     5.8600439650    -6.2889557301
   55      H       6.3185688748     7.3438177392    -7.2422465876
   56      C      -1.3548552870     3.1604367386     3.8150696798
   57      C      -0.1663978750     3.6435173295     3.2776125907
   58      N      -1.5709683897     1.8476973169     3.7655082269
   59      C       0.8771653661     2.7996601671     2.8869031702
   60      C      -0.6512982045     0.9912425475     3.2490617355
   61      C       0.6771759930     1.3946024350     2.8799017327
   62      C       1.6821381747     0.4853297902     2.3592662836
   63      C       1.6926820334    -0.8780065729     2.6571534908
   64      C       2.6642575163     0.7850091023     1.3517351880
   65      N       2.6734482197    -1.7045617483     2.3010731209
   66      N       2.8250674758     1.9851668231     0.8542418694
   67      C       3.5990997264    -0.0904195548     0.8928716911
   68      C       3.5434868362    -1.3832846551     1.3970671281
   69      S       4.0304488524     1.9895051441    -0.1602722586
   70      N       4.4036055949     0.4146677393    -0.1431201684
   71      C       4.6710953464    -2.3832986845     1.1482218173
   72      S       6.0873027914    -2.0799515947     0.1083477788
   73      C       4.8098757388    -3.6316808758     1.7795845555
   74      C       6.9169268689    -3.4484447844     0.8279054762
   75      S       3.6626773129    -4.5470773618     2.8202857830
   76      C       6.1041889689    -4.1683136633     1.5889316932
   77      C       8.3285666959    -3.7378760443     0.5654830214
   78      C       5.0465772401    -5.6919147815     3.0190149298
   79      C       6.1936651122    -5.3890453279     2.2659621377
   80      N       8.9604699029    -4.7956682279     1.0421223329
   81      S       9.1799565981    -2.8042674011    -0.6361238760
   82      C      10.2346700546    -4.9441764569     0.4476938014
   83      C      10.4654305030    -3.9764343474    -0.5468406752
   84      C      -2.4986133886     4.0533574704     4.3661404302
   85      H      -0.0648644882     4.7210071233     3.1900642289
   86      H       1.8780379512     3.1729480472     2.6945279459
   87      H      -0.9314910973    -0.0606547468     3.2530648706
   88      H       1.0403987942    -1.2770682970     3.4327766700
   89      H       5.0020710091    -6.4317235375     3.8061084440
   90      H       7.0814401395    -6.0088918784     2.3237527486
   91      H      10.9036093585    -5.6907985323     0.8559482370
   92      H      11.4071187706    -3.7946183020    -1.0464076199
   93      H      -3.1537683511     3.4504328425     5.0080001252
   94      C      -3.4001078485     4.7188935129     3.3507417327
   95      H      -1.9677420048     4.7763143228     4.9973321312
   96      H      -3.8418710410     3.9144025851     2.7500282994
   97      H      -2.8679858468     5.3216305310     2.6038874884
   98      C      -4.5030236096     5.4997697294     3.9613685896
   99      H      -5.1193693304     5.9410281009     3.1676898120
  100      C      -4.0824288302     6.6532747364     4.9312243678
  101      H      -5.1092522178     4.7739564637     4.5179429134
  102      H      -3.4751756175     6.2312474862     5.7422666205
  103      H      -4.9765827838     7.0322971828     5.4401012609
  104      C      -3.4181395475     7.8916219787     4.2770494245
  105      H      -2.5221726930     7.6275594104     3.7022108770
  106      C      -2.9092700856     8.9438529549     5.3068731198
  107      H      -4.1766961261     8.3733455648     3.6474366041
  108      H      -2.4478718003     9.8328742075     4.8591166740
  109      H      -2.0559530353     8.5594853277     5.8799503737
  110      H      -3.6369220085     9.2134266595     6.0810046957
 ----------------------------------------------------------------

    9   -5663.5183967704      6.49E-06 Convergence criterion met
 Total energy in the final basis set = -5663.5183967704

                    Orbital Energies (a.u.)
 --------------------------------------------------------------

 Alpha MOs
 -- Occupied --
-88.991 -88.988 -88.931 -88.925 -88.920 -88.917 -88.908 -88.907
-14.383 -14.382 -14.380 -14.368 -14.351 -14.349 -14.341 -14.339
-14.327 -14.326 -10.269 -10.266 -10.264 -10.259 -10.256 -10.256
-10.247 -10.245 -10.243 -10.241 -10.240 -10.238 -10.236 -10.235
-10.233 -10.233 -10.232 -10.231 -10.231 -10.231 -10.230 -10.229
-10.228 -10.228 -10.225 -10.223 -10.222 -10.221 -10.221 -10.217
-10.214 -10.209 -10.208 -10.204 -10.198 -10.196 -10.195 -10.191
-10.190 -10.190 -10.187 -10.183 -10.183 -10.183 -10.182 -10.182
-10.180 -10.178 -10.177 -10.170  -8.046  -8.044  -7.994  -7.985
 -7.981  -7.976  -7.966  -7.965  -6.011  -6.009  -6.005  -6.004
 -6.003  -6.002  -5.958  -5.955  -5.952  -5.950  -5.946  -5.945
 -5.942  -5.942  -5.941  -5.938  -5.937  -5.933  -5.931  -5.930
 -5.928  -5.926  -5.922  -5.922  -1.049  -1.033  -0.972  -0.966
 -0.955  -0.953  -0.937  -0.936  -0.905  -0.904  -0.898  -0.895
 -0.836  -0.835  -0.831  -0.826  -0.818  -0.816  -0.809  -0.805
 -0.799  -0.798  -0.790  -0.789  -0.781  -0.778  -0.768  -0.762
 -0.750  -0.747  -0.739  -0.734  -0.722  -0.714  -0.709  -0.706
 -0.693  -0.691  -0.674  -0.673  -0.662  -0.652  -0.648  -0.646
 -0.632  -0.629  -0.627  -0.626  -0.609  -0.602  -0.598  -0.593
 -0.589  -0.589  -0.588  -0.581  -0.576  -0.576  -0.569  -0.556
 -0.548  -0.545  -0.539  -0.536  -0.520  -0.519  -0.510  -0.509
 -0.503  -0.501  -0.496  -0.493  -0.489  -0.485  -0.478  -0.477
 -0.475  -0.470  -0.468  -0.463  -0.462  -0.458  -0.454  -0.451
 -0.443  -0.442  -0.438  -0.433  -0.431  -0.430  -0.429  -0.429
 -0.426  -0.425  -0.422  -0.421  -0.418  -0.417  -0.416  -0.410
 -0.410  -0.408  -0.407  -0.403  -0.401  -0.400  -0.398  -0.394
 -0.392  -0.391  -0.389  -0.389  -0.388  -0.386  -0.381  -0.380
 -0.378  -0.375  -0.373  -0.370  -0.365  -0.364  -0.356  -0.355
 -0.354  -0.350  -0.349  -0.348  -0.347  -0.344  -0.342  -0.340
 -0.338  -0.336  -0.336  -0.334  -0.332  -0.327  -0.325  -0.324
 -0.317  -0.310  -0.308  -0.307  -0.305  -0.303  -0.301  -0.297
 -0.297  -0.296  -0.293  -0.290  -0.288  -0.279  -0.277  -0.276
 -0.269  -0.269  -0.267  -0.260  -0.250  -0.250  -0.247  -0.246
 -0.244  -0.239  -0.232  -0.225  -0.194  -0.190

          Ground-State Mulliken Net Atomic Charges

     Atom                 Charge (a.u.)
  ----------------------------------------
      1 C                     0.283183
      2 C                    -0.104566
      3 N                    -0.494589
      4 C                    -0.088192
      5 C                     0.044578
      6 C                     0.045660
      7 C                     0.030465
      8 C                     0.065751
      9 C                     0.213693
     10 N                    -0.529419
     11 N                    -0.546341
     12 C                     0.208051
     13 C                     0.313564
     14 S                     0.616731
     15 N                    -0.571423
     16 C                    -0.213611
     17 S                     0.332422
     18 C                    -0.117523
     19 C                    -0.236145
     20 S                     0.282460
     21 C                     0.118340
     22 C                     0.062629
     23 C                    -0.316320
     24 C                    -0.035084
     25 N                    -0.421356
     26 S                     0.300361
     27 C                     0.097548
     28 C                    -0.300057
     29 C                    -0.220266
     30 H                     0.083223
     31 H                     0.126543
     32 H                     0.108849
     33 H                     0.119107
     34 H                     0.132921
     35 H                     0.127687
     36 H                     0.119573
     37 H                     0.136063
     38 H                     0.093056
     39 C                    -0.186572
     40 H                     0.108634
     41 H                     0.091990
     42 H                     0.118953
     43 C                    -0.175284
     44 H                     0.092893
     45 C                    -0.184833
     46 H                     0.100410
     47 H                     0.089559
     48 H                     0.094930
     49 C                    -0.181570
     50 H                     0.087597
     51 C                    -0.311252
     52 H                     0.090983
     53 H                     0.103112
     54 H                     0.105562
     55 H                     0.101142
     56 C                     0.270850
     57 C                    -0.137769
     58 N                    -0.484229
     59 C                    -0.054261
     60 C                     0.066528
     61 C                     0.037469
     62 C                     0.067117
     63 C                     0.029859
     64 C                     0.223953
     65 N                    -0.500912
     66 N                    -0.548147
     67 C                     0.178186
     68 C                     0.304162
     69 S                     0.632799
     70 N                    -0.545986
     71 C                    -0.247691
     72 S                     0.314264
     73 C                    -0.119583
     74 C                    -0.250162
     75 S                     0.273826
     76 C                     0.201569
     77 C                     0.088963
     78 C                    -0.305109
     79 C                    -0.071361
     80 N                    -0.451841
     81 S                     0.264092
     82 C                     0.110224
     83 C                    -0.312714
     84 C                    -0.212452
     85 H                     0.080403
     86 H                     0.117664
     87 H                     0.104577
     88 H                     0.108773
     89 H                     0.125090
     90 H                     0.126774
     91 H                     0.120430
     92 H                     0.131440
     93 H                     0.116309
     94 C                    -0.173488
     95 H                     0.104108
     96 H                     0.103843
     97 H                     0.091636
     98 C                    -0.178924
     99 H                     0.087539
    100 C                    -0.177756
    101 H                     0.093008
    102 H                     0.093700
    103 H                     0.091018
    104 C                    -0.169945
    105 H                     0.093968
    106 C                    -0.327285
    107 H                     0.097995
    108 H                     0.100852
    109 H                     0.099530
    110 H                     0.103273
  ----------------------------------------
  Sum of atomic charges =     0.000000

                    Cartesian Multipole Moments
 -----------------------------------------------------------------
    Charge (ESU x 10^10)
                 0.0000
    Dipole Moment (Debye)
         X      -1.7693      Y       3.1072      Z       1.0950
       Tot       3.7396
    Quadrupole Moments (Debye-Ang)
        XX    -380.4249     XY       6.8637     YY    -414.9533
        XZ     -11.0463     YZ      -0.4382     ZZ    -453.5407

 Total job time:  84.80s(wall), 1011.71s(cpu)
        *  Thank you very much for using Q-Chem.  Have a nice day.  *
