 Q-Chem 4.4, Q-Chem, Inc., Pleasanton, CA (2016)
 Q-Chem 4.4.2 for Intel X86 Linux

User input:
--------------------------------------------------------------
$comment
SP
$end

$rem
MEM_STATIC 5000
MEM_TOTAL 20000
JOBTYPE SP
EXCHANGE B3LYP
BASIS 6-31g(d,p)
$end

$molecule
0 1
C           3.628000      8.313000      2.806000
C           2.287000      8.209000      2.378000
N           4.258000      9.459000      2.861000
C           1.574000      9.332000      1.948000
C           3.606000     10.581000      2.454000
C           2.305000     10.562000      1.892000
C           1.611000     11.803000      1.541000
C           2.222000     12.835000      0.790000
C           0.262000     12.004000      1.910000
N           1.667000     14.056000      0.636000
N          -0.523000     11.123000      2.536000
C          -0.350000     13.276000      1.721000
C           0.445000     14.270000      1.059000
S          -1.934000     11.923000      2.724000
N          -1.580000     13.377000      2.232000
C          -0.019000     15.644000      0.852000
S          -1.628000     16.318000      1.410000
C           0.589000     16.656000      0.156000
C          -1.342000     17.923000      0.691000
S           1.980000     16.734000     -0.788000
C          -0.147000     17.861000      0.063000
C          -2.233000     19.057000      0.717000
C           1.466000     18.341000     -1.454000
C           0.272000     18.780000     -0.922000
N          -1.721000     20.283000      0.587000
S          -3.813000     18.913000      1.295000
C          -2.665000     21.186000      0.837000
C          -3.906000     20.645000      1.230000
C           4.478000      7.153000      3.287000
H           1.772000      7.253000      2.347000
H           0.581000      9.192000      1.531000
H           4.103000     11.530000      2.649000
H           3.220000     12.698000      0.379000
H           2.076000     18.864000     -2.178000
H          -0.184000     19.712000     -1.236000
H          -2.514000     22.239000      0.637000
H          -4.803000     21.179000      1.515000
H           4.754000      6.629000      2.364000
C           3.777000      6.165000      4.301000
H           5.457000      7.479000      3.660000
H           2.980000      5.728000      3.687000
H           3.309000      6.800000      5.063000
C           4.728000      5.050000      4.912000
H           4.750000      4.144000      4.294000
C           4.298000      4.630000      6.369000
H           5.733000      5.486000      4.874000
H           3.262000      4.269000      6.341000
H           4.230000      5.505000      7.028000
C           5.121000      3.494000      7.046000
H           4.725000      3.290000      8.049000
C           6.651000      3.739000      7.104000
H           4.869000      2.564000      6.522000
H           7.242000      2.874000      7.430000
H           6.897000      4.616000      7.715000
H           7.071000      4.007000      6.127000
C           5.824000     14.701000      8.016000
C           5.599000     13.326000      7.836000
N           6.217000     15.458000      6.978000
C           5.703000     12.756000      6.595000
C           6.427000     14.968000      5.751000
C           6.108000     13.583000      5.495000
C           6.261000     13.009000      4.121000
C           6.842000     11.693000      3.962000
C           6.044000     13.691000      2.861000
N           7.149000     11.134000      2.768000
N           5.502000     14.914000      2.744000
C           6.301000     13.074000      1.578000
C           6.930000     11.744000      1.600000
S           5.315000     15.229000      1.148000
N           5.931000     13.901000      0.495000
C           7.265000     11.136000      0.329000
S           7.248000     11.922000     -1.282000
C           7.597000      9.831000      0.216000
C           7.810000     10.427000     -2.035000
S           7.614000      8.550000      1.368000
C           7.979000      9.456000     -1.057000
C           8.145000     10.312000     -3.424000
C           8.317000      7.467000      0.135000
C           8.336000      8.064000     -1.135000
N           8.217000      9.132000     -4.011000
S           7.905000     11.676000     -4.430000
C           8.321000      9.273000     -5.347000
C           8.222000     10.573000     -5.805000
C           5.457000     15.370000      9.315000
H           5.244000     12.707000      8.655000
H           5.281000     11.767000      6.445000
H           6.924000     15.531000      4.962000
H           7.218000     11.079000      4.780000
H           8.606000      6.453000      0.378000
H           8.658000      7.596000     -2.058000
H           8.529000      8.480000     -6.053000
H           8.398000     10.920000     -6.815000
H           5.272000     16.429000      9.093000
C           6.690000     15.452000     10.291000
H           4.537000     14.973000      9.761000
H           7.619000     15.733000      9.779000
H           6.950000     14.431000     10.595000
C           6.410000     16.336000     11.555000
H           7.334000     16.175000     12.124000
C           5.286000     15.821000     12.376000
H           6.357000     17.396000     11.277000
H           5.450000     14.762000     12.608000
H           4.318000     15.837000     11.860000
C           5.116000     16.630000     13.712000
H           6.101000     16.627000     14.195000
C           3.976000     16.093000     14.623000
H           4.867000     17.677000     13.504000
H           4.207000     15.072000     14.950000
H           2.973000     16.083000     14.179000
H           3.805000     16.602000     15.580000
$end

--------------------------------------------------------------

             Standard Nuclear Orientation (Angstroms)
    I     Atom           X                Y                Z
 ----------------------------------------------------------------
    1      C      -3.4122148897     0.3076396873    -2.9511337079
    2      C      -2.6840240292    -0.2428914035    -4.0276719509
    3      N      -2.9039477849     0.4265866003    -1.7508182568
    4      C      -1.3860130335    -0.7309910122    -3.8506854339
    5      C      -1.6433549531    -0.0329844582    -1.5286985720
    6      C      -0.8806682791    -0.7128019703    -2.5110239700
    7      C       0.5020693120    -1.1198667424    -2.2516920872
    8      C       0.8898872066    -1.8058179621    -1.0763563034
    9      C       1.5163873349    -0.8759520996    -3.2045969071
   10      N       2.1812259627    -2.0039975349    -0.7361342083
   11      N       1.3480092313    -0.3297390713    -4.4118922901
   12      C       2.8811296822    -1.1139771429    -2.8743373056
   13      C       3.1297643884    -1.6945197134    -1.5861385218
   14      S       2.8596742232    -0.2686308766    -5.0262209813
   15      N       3.7509489427    -0.7182079688    -3.8076128356
   16      C       4.4814590988    -1.9362670727    -1.0757459042
   17      S       6.0372471830    -1.5256877419    -1.9506567855
   18      C       4.8584345808    -2.5678359349     0.0806425506
   19      C       7.0767123605    -2.2067784885    -0.6737818740
   20      S       4.0055490776    -3.3789445446     1.2834684489
   21      C       6.2528719643    -2.7220733138     0.2653726631
   22      C       8.5181880653    -2.2572101109    -0.6629447206
   23      C       5.5460025583    -4.0811190636     1.9347402957
   24      C       6.6589788470    -3.6593426171     1.2384864555
   25      N       9.1523913735    -2.3329460355     0.5093053524
   26      S       9.4172092592    -1.8283302914    -2.0264119895
   27      C      10.4580502937    -2.1664432533     0.3180552348
   28      C      10.8262234764    -1.8925521669    -1.0148525566
   29      C      -4.8214828727     0.8589763555    -3.0483583474
   30      H      -3.1137768341    -0.3263259764    -5.0218918454
   31      H      -0.9014106185    -1.2386259150    -4.6795432654
   32      H      -1.1991399176     0.2120485222    -0.5652325161
   33      H       0.1412646032    -2.1236260407    -0.3536833325
   34      H       5.5377476139    -4.7429487025     2.7901456879
   35      H       7.6542599722    -4.0092116012     1.4878118969
   36      H      11.1772802233    -2.3461193275     1.1067470737
   37      H      11.8159486758    -1.6887955792    -1.4020440889
   38      H      -5.4520021059    -0.0373328330    -3.0902670005
   39      C      -5.1049628001     1.7987212171    -4.2862031381
   40      H      -5.1542583403     1.3224829687    -2.1111987518
   41      H      -4.9848645962     1.1114698926    -5.1326285857
   42      H      -4.2770420699     2.5175746376    -4.3124714560
   43      C      -6.5347794702     2.4890625497    -4.2865698676
   44      H      -7.2901293763     1.8709893156    -4.7872454078
   45      C      -6.5185196660     3.8979112277    -4.9929904372
   46      H      -6.8196170091     2.5463083693    -3.2296141010
   47      H      -6.1593017799     3.7724793878    -6.0223739245
   48      H      -5.7566726742     4.5523987522    -4.5505367772
   49      C      -7.8817806634     4.6420407908    -5.1110778900
   50      H      -7.7419342881     5.6031077411    -5.6221887472
   51      C      -8.6367750591     4.8423484352    -3.7716193016
   52      H      -8.4807971781     4.0921392983    -5.8471265050
   53      H      -9.6628077589     5.2169825702    -3.8750028779
   54      H      -8.0708410209     5.4780450122    -3.0798284905
   55      H      -8.7400693407     3.9097218335    -3.2039125874
   56      C       0.4997192263     5.7315897500     2.3451477413
   57      C      -0.4457497480     5.5243723781     1.3269142811
   58      N       0.7924176351     4.7382970066     3.2010911783
   59      C      -1.0224768381     4.2953032872     1.1464370430
   60      C       0.2132158109     3.5333750140     3.1519257574
   61      C      -0.6857870831     3.2417515069     2.0600138898
   62      C      -1.3031667932     1.8847557929     1.9252328612
   63      C      -2.7016800938     1.7731790783     1.5696921677
   64      C      -0.7023456662     0.6136973258     2.2762846333
   65      N      -3.3933014511     0.6097100502     1.5505683900
   66      N       0.5844651698     0.4535700147     2.6250813024
   67      C      -1.4130534947    -0.6433112542     2.1888157105
   68      C      -2.8426402309    -0.5703051052     1.8482619467
   69      S       0.8616430339    -1.1512038283     2.7962050715
   70      N      -0.5943821747    -1.7514946662     2.4977247510
   71      C      -3.5940847067    -1.8081158526     1.8262221366
   72      S      -3.0548210340    -3.4096576354     2.4242728113
   73      C      -4.8269714841    -1.8968231427     1.2802008818
   74      C      -4.6132966923    -4.1153820654     1.9872549037
   75      S      -5.7779502067    -0.7549111368     0.4084036347
   76      C      -5.4254465164    -3.1310632355     1.4400665410
   77      C      -4.9854257888    -5.4681006679     2.2812673486
   78      C      -7.1273379525    -1.9233978619     0.3740745686
   79      C      -6.7400321877    -3.1830686070     0.8566653461
   80      N      -5.9844770171    -6.0521275527     1.6464742790
   81      S      -3.8232977688    -6.4847934056     3.0201356332
   82      C      -6.0101414150    -7.3720593750     1.9161302136
   83      C      -4.9563125360    -7.8304173709     2.6835399096
   84      C       1.3202375059     6.9946458372     2.3781640014
   85      H      -0.6657970699     6.3038363730     0.6030620472
   86      H      -1.5421302397     4.1017926398     0.2130459291
   87      H       0.3029185176     2.7966000683     3.9491804870
   88      H      -3.3716304263     2.6191696732     1.4181584574
   89      H      -8.0868897442    -1.6600745505    -0.0509985932
   90      H      -7.3553026011    -4.0748366427     0.8854592490
   91      H      -6.7972637779    -8.0599885270     1.6373097200
   92      H      -4.8481166509    -8.8180175576     3.1129866718
   93      H       2.2515533558     6.7620713355     2.9106580285
   94      C       0.6711637529     8.0807408731     3.3155485736
   95      H       1.6046215426     7.3517044314     1.3808877709
   96      H       0.2869315322     7.6581875698     4.2525439346
   97      H      -0.2726020664     8.4020883482     2.8589317991
   98      C       1.6039788725     9.3181079663     3.5528893190
   99      H       0.9348902306     9.9691412616     4.1290264882
  100      C       1.9427351894    10.0291042349     2.2949662436
  101      H       2.4511466293     9.0419667863     4.1930032467
  102      H       1.0249892749    10.2696968675     1.7453676431
  103      H       2.5285506705     9.4260203900     1.5902350196
  104      C       2.7524521895    11.3479260124     2.5657881389
  105      H       2.1644891098    11.9197891644     3.2943448987
  106      C       3.0887417442    12.1469438050     1.2749086316
  107      H       3.7148572122    11.1233191850     3.0399213959
  108      H       2.1642065051    12.4885150253     0.7939775626
  109      H       3.6797938062    11.6121832976     0.5212948977
  110      H       3.6441674169    13.0867236441     1.3866546651
 ----------------------------------------------------------------

    9   -5663.5425789540      9.68E-06 Convergence criterion met
 Total energy in the final basis set = -5663.5425789540

                    Orbital Energies (a.u.)
 --------------------------------------------------------------

 Alpha MOs
 -- Occupied --
-88.986 -88.981 -88.933 -88.921 -88.920 -88.916 -88.905 -88.901
-14.389 -14.383 -14.380 -14.370 -14.347 -14.344 -14.340 -14.338
-14.323 -14.322 -10.267 -10.263 -10.260 -10.257 -10.256 -10.254
-10.253 -10.253 -10.239 -10.237 -10.236 -10.235 -10.234 -10.233
-10.232 -10.230 -10.228 -10.227 -10.226 -10.226 -10.225 -10.225
-10.225 -10.224 -10.220 -10.219 -10.218 -10.215 -10.213 -10.210
-10.208 -10.204 -10.200 -10.199 -10.195 -10.192 -10.192 -10.191
-10.186 -10.186 -10.182 -10.182 -10.182 -10.182 -10.182 -10.179
-10.178 -10.177 -10.173 -10.173  -8.043  -8.036  -7.995  -7.983
 -7.979  -7.974  -7.965  -7.961  -6.008  -6.002  -6.001  -6.001
 -5.995  -5.994  -5.959  -5.955  -5.953  -5.947  -5.944  -5.944
 -5.940  -5.940  -5.939  -5.936  -5.935  -5.931  -5.930  -5.926
 -5.925  -5.922  -5.921  -5.917  -1.054  -1.022  -0.982  -0.973
 -0.965  -0.945  -0.940  -0.932  -0.919  -0.910  -0.908  -0.890
 -0.838  -0.837  -0.833  -0.819  -0.817  -0.807  -0.805  -0.803
 -0.796  -0.796  -0.794  -0.790  -0.779  -0.779  -0.766  -0.760
 -0.747  -0.745  -0.738  -0.733  -0.720  -0.712  -0.708  -0.706
 -0.690  -0.687  -0.673  -0.666  -0.656  -0.649  -0.649  -0.634
 -0.633  -0.629  -0.625  -0.619  -0.611  -0.605  -0.599  -0.595
 -0.591  -0.590  -0.585  -0.580  -0.575  -0.572  -0.565  -0.564
 -0.553  -0.544  -0.542  -0.533  -0.527  -0.513  -0.510  -0.504
 -0.503  -0.503  -0.499  -0.489  -0.488  -0.481  -0.479  -0.472
 -0.469  -0.469  -0.467  -0.462  -0.460  -0.455  -0.447  -0.443
 -0.440  -0.437  -0.437  -0.436  -0.434  -0.430  -0.429  -0.428
 -0.427  -0.424  -0.422  -0.420  -0.419  -0.417  -0.415  -0.411
 -0.410  -0.408  -0.404  -0.400  -0.399  -0.397  -0.395  -0.394
 -0.392  -0.389  -0.387  -0.387  -0.384  -0.382  -0.382  -0.381
 -0.379  -0.374  -0.371  -0.371  -0.368  -0.364  -0.353  -0.351
 -0.349  -0.347  -0.347  -0.343  -0.342  -0.341  -0.338  -0.335
 -0.331  -0.330  -0.329  -0.327  -0.326  -0.325  -0.320  -0.318
 -0.317  -0.316  -0.313  -0.311  -0.305  -0.305  -0.300  -0.299
 -0.296  -0.294  -0.289  -0.288  -0.284  -0.281  -0.280  -0.278
 -0.272  -0.267  -0.265  -0.261  -0.252  -0.249  -0.244  -0.243
 -0.239  -0.238  -0.230  -0.220  -0.191  -0.185

          Ground-State Mulliken Net Atomic Charges

     Atom                 Charge (a.u.)
  ----------------------------------------
      1 C                     0.291971
      2 C                    -0.132728
      3 N                    -0.478660
      4 C                    -0.037220
      5 C                     0.073963
      6 C                     0.006283
      7 C                     0.031426
      8 C                     0.040262
      9 C                     0.229068
     10 N                    -0.535418
     11 N                    -0.563069
     12 C                     0.201112
     13 C                     0.340797
     14 S                     0.595496
     15 N                    -0.535050
     16 C                    -0.238465
     17 S                     0.288665
     18 C                    -0.074644
     19 C                    -0.221046
     20 S                     0.261266
     21 C                     0.113486
     22 C                     0.042287
     23 C                    -0.327591
     24 C                    -0.015012
     25 N                    -0.416638
     26 S                     0.298482
     27 C                     0.128988
     28 C                    -0.319183
     29 C                    -0.246014
     30 H                     0.086352
     31 H                     0.116536
     32 H                     0.100651
     33 H                     0.128051
     34 H                     0.122315
     35 H                     0.131319
     36 H                     0.115497
     37 H                     0.131939
     38 H                     0.113128
     39 C                    -0.190249
     40 H                     0.125523
     41 H                     0.095789
     42 H                     0.103573
     43 C                    -0.177414
     44 H                     0.096209
     45 C                    -0.181925
     46 H                     0.101548
     47 H                     0.091874
     48 H                     0.092129
     49 C                    -0.180472
     50 H                     0.093467
     51 C                    -0.319092
     52 H                     0.092241
     53 H                     0.100675
     54 H                     0.103363
     55 H                     0.104821
     56 C                     0.280051
     57 C                    -0.116954
     58 N                    -0.488943
     59 C                    -0.075104
     60 C                     0.111517
     61 C                     0.005885
     62 C                     0.024986
     63 C                     0.065795
     64 C                     0.198819
     65 N                    -0.513945
     66 N                    -0.557148
     67 C                     0.161446
     68 C                     0.322911
     69 S                     0.635566
     70 N                    -0.562682
     71 C                    -0.219541
     72 S                     0.331057
     73 C                    -0.107226
     74 C                    -0.238503
     75 S                     0.298786
     76 C                     0.145949
     77 C                     0.068618
     78 C                    -0.322112
     79 C                    -0.056014
     80 N                    -0.435451
     81 S                     0.261091
     82 C                     0.139065
     83 C                    -0.313336
     84 C                    -0.225999
     85 H                     0.085249
     86 H                     0.111320
     87 H                     0.119708
     88 H                     0.116801
     89 H                     0.125895
     90 H                     0.123960
     91 H                     0.115628
     92 H                     0.129177
     93 H                     0.121155
     94 C                    -0.193623
     95 H                     0.105881
     96 H                     0.106043
     97 H                     0.088680
     98 C                    -0.177472
     99 H                     0.093064
    100 C                    -0.161751
    101 H                     0.099350
    102 H                     0.090944
    103 H                     0.093189
    104 C                    -0.177447
    105 H                     0.094058
    106 C                    -0.328175
    107 H                     0.096774
    108 H                     0.099928
    109 H                     0.103223
    110 H                     0.099193
  ----------------------------------------
  Sum of atomic charges =     0.000000

                    Cartesian Multipole Moments
 -----------------------------------------------------------------
    Charge (ESU x 10^10)
                 0.0000
    Dipole Moment (Debye)
         X       1.6102      Y      -1.2903      Z      -3.1795
       Tot       3.7904
    Quadrupole Moments (Debye-Ang)
        XX    -393.7997     XY      -3.1988     YY    -408.9537
        XZ      -0.2231     YZ     -14.3299     ZZ    -432.7912

 Total job time:  85.77s(wall), 1028.75s(cpu)
        *  Thank you very much for using Q-Chem.  Have a nice day.  *
