 Q-Chem 4.4, Q-Chem, Inc., Pleasanton, CA (2016)
 Q-Chem 4.4.2 for Intel X86 Linux

User input:
--------------------------------------------------------------
$comment
SP
$end

$rem
MEM_STATIC 5000
MEM_TOTAL 20000
JOBTYPE SP
EXCHANGE B3LYP
BASIS 6-31g(d,p)
$end

$molecule
0 1
C          10.042000     22.664000      3.320000
C          11.152000     22.924000      4.143000
N           8.963000     21.959000      3.734000
C          11.109000     22.529000      5.497000
C           8.948000     21.536000      5.042000
C          10.010000     21.772000      5.981000
C           9.869000     21.197000      7.367000
C          10.631000     21.890000      8.331000
C           9.005000     20.135000      7.870000
N          10.546000     21.679000      9.697000
N           8.196000     19.353000      7.060000
C           8.994000     19.868000      9.255000
C           9.725000     20.697000     10.148000
S           7.567000     18.310000      8.175000
N           8.134000     18.905000      9.604000
C           9.667000     20.568000     11.615000
S           8.941000     19.149000     12.486000
C          10.153000     21.452000     12.601000
C           9.223000     19.943000     14.085000
S          10.750000     23.045000     12.386000
C           9.841000     21.112000     13.892000
C           8.569000     19.492000     15.268000
C          10.868000     23.233000     14.160000
C          10.395000     22.074000     14.820000
N           8.235000     18.244000     15.386000
S           8.338000     20.506000     16.619000
C           7.797000     18.025000     16.687000
C           7.785000     19.155000     17.518000
C          10.049000     23.118000      1.868000
H          12.032000     23.384000      3.704000
H          12.002000     22.636000      6.106000
H           8.027000     21.002000      5.273000
H          11.294000     22.682000      7.985000
H          11.280000     24.137000     14.588000
H          10.325000     21.911000     15.889000
H           7.442000     17.017000     16.858000
H           7.381000     19.334000     18.505000
H          10.943000     23.694000      1.600000
C           8.857000     24.069000      1.668000
H           9.834000     22.315000      1.152000
H           8.915000     24.728000      2.543000
H           7.884000     23.572000      1.765000
C           8.842000     24.955000      0.407000
H           8.091000     25.749000      0.498000
C           8.678000     24.075000     -0.843000
H           9.819000     25.420000      0.222000
H           7.842000     23.374000     -0.726000
H           9.497000     23.376000     -1.055000
C           8.393000     24.916000     -2.112000
H           7.582000     25.619000     -1.883000
C           7.831000     24.074000     -3.284000
H           9.240000     25.540000     -2.423000
H           7.147000     24.563000     -3.989000
H           7.194000     23.314000     -2.815000
H           8.668000     23.598000     -3.809000
C          12.212000     29.930000      6.050000
C          12.413000     28.888000      5.198000
N          11.702000     29.723000      7.272000
C          11.695000     27.654000      5.441000
C          11.123000     28.563000      7.516000
C          11.014000     27.431000      6.684000
C          10.075000     26.286000      6.860000
C           9.444000     25.801000      5.736000
C           9.646000     25.808000      8.124000
N           8.440000     24.950000      5.797000
N          10.091000     26.312000      9.326000
C           8.659000     24.870000      8.208000
C           8.062000     24.404000      7.001000
S           9.324000     25.505000     10.525000
N           8.265000     24.682000      9.476000
C           6.914000     23.477000      7.003000
S           6.636000     22.442000      8.421000
C           6.151000     23.080000      5.880000
C           5.321000     21.615000      7.516000
S           6.033000     23.708000      4.267000
C           5.336000     21.990000      6.170000
C           4.512000     20.548000      8.005000
C           4.761000     22.425000      3.975000
C           4.479000     21.659000      5.069000
N           4.953000     19.891000      9.096000
S           2.890000     20.162000      7.565000
C           4.071000     18.964000      9.569000
C           2.904000     18.954000      8.840000
C          12.908000     31.243000      5.846000
H          13.025000     28.966000      4.305000
H          11.624000     26.885000      4.678000
H          10.615000     28.499000      8.477000
H           9.714000     26.200000      4.760000
H           4.399000     22.322000      2.960000
H           3.863000     20.767000      5.052000
H           4.369000     18.264000     10.339000
H           2.027000     18.339000      8.989000
H          13.702000     31.396000      6.588000
C          11.899000     32.461000      5.791000
H          13.386000     31.164000      4.862000
H          11.502000     32.692000      6.788000
H          11.040000     32.191000      5.165000
C          12.477000     33.740000      5.245000
H          13.234000     33.945000      6.012000
C          11.425000     34.866000      5.253000
H          12.786000     33.676000      4.194000
H          11.957000     35.824000      5.292000
H          10.904000     34.873000      6.218000
C          10.463000     34.773000      4.019000
H          11.091000     34.667000      3.125000
C           9.539000     36.078000      3.816000
H           9.863000     33.858000      4.089000
H          10.126000     37.004000      3.828000
H           8.829000     36.186000      4.645000
H           9.057000     36.069000      2.830000
$end

--------------------------------------------------------------

             Standard Nuclear Orientation (Angstroms)
    I     Atom           X                Y                Z
 ----------------------------------------------------------------
    1      C       2.6865943230     3.0480936972    -2.4776425607
    2      C       2.4982374571     1.8433828106    -3.1778013791
    3      N       1.7144649683     3.6354738672    -1.7410211833
    4      C       1.2788874553     1.1485438746    -3.0309190249
    5      C       0.5122131996     2.9763608926    -1.6401312862
    6      C       0.2184108571     1.7258403543    -2.2844445383
    7      C      -1.1666951234     1.1546185136    -2.1210767586
    8      C      -1.2106192322    -0.2438412076    -2.3015485868
    9      C      -2.4123868443     1.7906948820    -1.7075456350
   10      N      -2.3166833385    -1.0339907704    -2.0369963967
   11      N      -2.5455471282     3.1537414303    -1.4919593505
   12      C      -3.5576778127     0.9871000356    -1.5281607957
   13      C      -3.4627259914    -0.4263938724    -1.6380249099
   14      S      -4.1585878521     3.2515797619    -1.1524858112
   15      N      -4.6269203944     1.6716422126    -1.1075751213
   16      C      -4.5762024654    -1.3453674603    -1.3417957984
   17      S      -6.3017501818    -0.8206056023    -1.1264168975
   18      C      -4.5504556895    -2.7479048890    -1.1932230398
   19      C      -6.7985687988    -2.5079863596    -0.7108709413
   20      S      -3.1786723358    -3.7712179125    -1.0868092883
   21      C      -5.7355904470    -3.3130388394    -0.7986292936
   22      C      -8.0478250938    -2.7852883289    -0.0839193266
   23      C      -4.2504571082    -5.1615637032    -0.7483421797
   24      C      -5.6030086364    -4.7496634282    -0.6887391007
   25      N      -9.0639185524    -2.0069771641    -0.2955081120
   26      S      -8.3104045849    -4.2024686741     0.8268001035
   27      C     -10.1935098667    -2.5932922363     0.2636556375
   28      C      -9.9768213008    -3.8116064364     0.9242323364
   29      C       4.0085689369     3.7928956471    -2.5877433128
   30      H       3.2804093376     1.5004889717    -3.8481385812
   31      H       1.0923610528     0.2746896340    -3.6484671343
   32      H      -0.1855623344     3.5238739507    -1.0075992670
   33      H      -0.2984106388    -0.7465610713    -2.6204486038
   34      H      -3.8386507671    -6.1559677561    -0.6400826901
   35      H      -6.4677185954    -5.3677117994    -0.4777346040
   36      H     -11.0816120425    -1.9799714936     0.1833923719
   37      H     -10.6044869050    -4.4226598015     1.5583267098
   38      H       4.7565385035     3.2588107043    -3.1861836201
   39      C       4.6015548229     3.9078523120    -1.1733820774
   40      H       3.9014449584     4.8433438742    -2.8856912535
   41      H       4.4700056370     2.8980363220    -0.7656609985
   42      H       4.0129806451     4.5498929741    -0.5066653268
   43      C       6.0907299569     4.2824230071    -1.0414873667
   44      H       6.4511689306     4.0927145940    -0.0232474813
   45      C       6.3073048478     5.7252877277    -1.5262890938
   46      H       6.7183215496     3.7180271372    -1.7433171856
   47      H       5.5862260153     6.4103948203    -1.0629753890
   48      H       6.1091129255     5.9149019357    -2.5888672858
   49      C       7.7224195503     6.2490688607    -1.1770460505
   50      H       7.9131042808     6.0418732126    -0.1163480270
   51      C       7.8410082051     7.7898413792    -1.2787749900
   52      H       8.5253755177     5.7378751201    -1.7224346039
   53      H       8.5489568819     8.2979064038    -0.6119312288
   54      H       6.8709572038     8.1775254361    -0.9440629841
   55      H       8.0184774337     8.0611805873    -2.3264627808
   56      C       6.2836890796    -3.9532575904    -0.7460116936
   57      C       6.1768289186    -2.8532703398    -1.5401640433
   58      N       5.2042418336    -4.4601732166    -0.1344046376
   59      C       5.0159632545    -2.0020463796    -1.3816153775
   60      C       4.1193060040    -3.7126978481    -0.0667894087
   61      C       3.8803831743    -2.4397081274    -0.6217146762
   62      C       2.7888760221    -1.4964247998    -0.2441558058
   63      C       3.1124225709    -0.1631837886    -0.1235405636
   64      C       1.5047891841    -1.9127382391     0.1894628203
   65      N       2.2949238852     0.7200095044     0.4127462124
   66      N       1.1076395174    -3.2297691457     0.2568922897
   67      C       0.6134234759    -1.0031318213     0.6784948630
   68      C       1.0136384429     0.3619912433     0.7602322408
   69      S      -0.4224254012    -3.2650564990     0.8355071423
   70      N      -0.4638208263    -1.6035017963     1.2052819230
   71      C       0.1579562340     1.3925149437     1.3791553865
   72      S      -1.5962079408     1.1222132486     1.4744341423
   73      C       0.5190487913     2.7323304169     1.6537708680
   74      C      -1.7853480003     2.7979041136     2.0977038774
   75      S       2.0519577096     3.5438561164     1.6949204397
   76      C      -0.5905269060     3.5108655641     1.9686514747
   77      C      -3.0150991256     3.4225422301     2.4577460881
   78      C       1.1275079247     5.0363467157     2.2118357191
   79      C      -0.2150546944     4.8386804364     2.3587018345
   80      N      -4.1505503523     2.8488559258     2.0127230145
   81      S      -3.2705654179     4.6571363392     3.6341789842
   82      C      -5.2840580775     3.4363386591     2.4933541361
   83      C      -4.9954030168     4.4575999080     3.3692158361
   84      C       7.4691224712    -4.8671619012    -0.8436210418
   85      H       6.9568367422    -2.5453901437    -2.2292754856
   86      H       4.9907413612    -1.0013205436    -1.8017137675
   87      H       3.3206732637    -4.1211990077     0.5504573400
   88      H       4.1140147203     0.1678992555    -0.3916341744
   89      H       1.6915550062     5.9578169833     2.2798168617
   90      H      -0.9384497339     5.6300498108     2.5194598210
   91      H      -6.2535094176     3.1724923349     2.0905474623
   92      H      -5.6855522663     5.0891746955     3.9117674938
   93      H       7.2054353430    -5.8164225380    -1.3271314779
   94      C       8.1818108830    -5.0855812443     0.5524442211
   95      H       8.1780098205    -4.3477443399    -1.4998718497
   96      H       7.5849550601    -5.7363965597     1.2045036907
   97      H       8.2718074276    -4.1214733766     1.0672778265
   98      C       9.5584992044    -5.6911392729     0.4745356856
   99      H       9.3074409650    -6.6713589532     0.0508587583
  100      C      10.1555294261    -5.8818446183     1.8823106624
  101      H      10.2940976107    -5.0600111424    -0.0400032027
  102      H      10.8950827949    -6.6895812617     1.8281689078
  103      H       9.4016157996    -6.3280858897     2.5420060250
  104      C      10.7710479938    -4.5521059796     2.4388904371
  105      H      11.4255519037    -4.1451961371     1.6572863097
  106      C      11.6620352650    -4.7547248543     3.7667071693
  107      H       9.9743114328    -3.8149384996     2.5935512233
  108      H      12.4075680886    -5.5494224737     3.6449471481
  109      H      11.0392192916    -5.0818609495     4.6081863660
  110      H      12.2506417802    -3.8547873570     3.9863793599
 ----------------------------------------------------------------

    9   -5663.5053621715      9.82E-06 Convergence criterion met
 Total energy in the final basis set = -5663.5053621715

                    Orbital Energies (a.u.)
 --------------------------------------------------------------

 Alpha MOs
 -- Occupied --
-88.986 -88.980 -88.932 -88.925 -88.924 -88.917 -88.911 -88.911
-14.386 -14.384 -14.374 -14.374 -14.350 -14.345 -14.340 -14.340
-14.326 -14.319 -10.266 -10.261 -10.261 -10.261 -10.259 -10.252
-10.246 -10.245 -10.243 -10.240 -10.240 -10.236 -10.234 -10.234
-10.233 -10.232 -10.232 -10.231 -10.231 -10.230 -10.229 -10.227
-10.227 -10.227 -10.222 -10.219 -10.217 -10.217 -10.214 -10.213
-10.212 -10.211 -10.210 -10.209 -10.205 -10.204 -10.200 -10.196
-10.185 -10.184 -10.182 -10.178 -10.176 -10.176 -10.175 -10.174
-10.174 -10.172 -10.171 -10.170  -8.040  -8.035  -7.993  -7.988
 -7.981  -7.975  -7.971  -7.970  -6.005  -6.000  -5.999  -5.997
 -5.994  -5.993  -5.957  -5.953  -5.952  -5.950  -5.948  -5.946
 -5.946  -5.942  -5.939  -5.938  -5.936  -5.936  -5.934  -5.932
 -5.932  -5.931  -5.928  -5.926  -1.027  -1.019  -0.977  -0.966
 -0.954  -0.944  -0.940  -0.925  -0.912  -0.907  -0.899  -0.883
 -0.838  -0.837  -0.829  -0.826  -0.817  -0.807  -0.804  -0.804
 -0.802  -0.799  -0.792  -0.791  -0.780  -0.779  -0.764  -0.760
 -0.747  -0.746  -0.738  -0.738  -0.725  -0.719  -0.708  -0.707
 -0.691  -0.689  -0.675  -0.665  -0.651  -0.649  -0.643  -0.640
 -0.631  -0.630  -0.620  -0.618  -0.608  -0.607  -0.605  -0.599
 -0.594  -0.593  -0.584  -0.583  -0.579  -0.574  -0.563  -0.560
 -0.547  -0.542  -0.539  -0.535  -0.524  -0.522  -0.518  -0.516
 -0.503  -0.502  -0.494  -0.492  -0.480  -0.478  -0.474  -0.472
 -0.469  -0.468  -0.466  -0.460  -0.458  -0.458  -0.450  -0.447
 -0.443  -0.442  -0.441  -0.440  -0.438  -0.435  -0.432  -0.427
 -0.424  -0.423  -0.419  -0.419  -0.417  -0.413  -0.413  -0.411
 -0.409  -0.409  -0.405  -0.401  -0.399  -0.398  -0.394  -0.392
 -0.392  -0.389  -0.388  -0.386  -0.382  -0.382  -0.381  -0.378
 -0.378  -0.376  -0.372  -0.366  -0.364  -0.355  -0.354  -0.353
 -0.353  -0.351  -0.350  -0.347  -0.344  -0.343  -0.338  -0.337
 -0.334  -0.331  -0.330  -0.328  -0.326  -0.324  -0.322  -0.318
 -0.314  -0.312  -0.306  -0.302  -0.300  -0.299  -0.296  -0.296
 -0.294  -0.291  -0.290  -0.287  -0.287  -0.282  -0.277  -0.276
 -0.271  -0.269  -0.264  -0.262  -0.256  -0.253  -0.248  -0.243
 -0.242  -0.240  -0.232  -0.228  -0.191  -0.190

          Ground-State Mulliken Net Atomic Charges

     Atom                 Charge (a.u.)
  ----------------------------------------
      1 C                     0.292702
      2 C                    -0.135754
      3 N                    -0.486044
      4 C                    -0.090359
      5 C                     0.073471
      6 C                     0.031385
      7 C                     0.063582
      8 C                     0.044029
      9 C                     0.202409
     10 N                    -0.549659
     11 N                    -0.550030
     12 C                     0.238495
     13 C                     0.317204
     14 S                     0.618061
     15 N                    -0.549375
     16 C                    -0.224510
     17 S                     0.338138
     18 C                    -0.122137
     19 C                    -0.222745
     20 S                     0.288645
     21 C                     0.157220
     22 C                     0.061243
     23 C                    -0.323055
     24 C                    -0.070135
     25 N                    -0.425107
     26 S                     0.279335
     27 C                     0.105996
     28 C                    -0.314870
     29 C                    -0.218987
     30 H                     0.090628
     31 H                     0.103662
     32 H                     0.134432
     33 H                     0.109944
     34 H                     0.134352
     35 H                     0.112848
     36 H                     0.113299
     37 H                     0.141771
     38 H                     0.090373
     39 C                    -0.189022
     40 H                     0.119648
     41 H                     0.094814
     42 H                     0.121612
     43 C                    -0.178533
     44 H                     0.096579
     45 C                    -0.174376
     46 H                     0.086268
     47 H                     0.087512
     48 H                     0.094529
     49 C                    -0.180924
     50 H                     0.091330
     51 C                    -0.323600
     52 H                     0.090846
     53 H                     0.101013
     54 H                     0.099932
     55 H                     0.102749
     56 C                     0.276372
     57 C                    -0.125782
     58 N                    -0.463976
     59 C                    -0.118665
     60 C                     0.076555
     61 C                     0.052404
     62 C                     0.039887
     63 C                     0.084118
     64 C                     0.216106
     65 N                    -0.534125
     66 N                    -0.562334
     67 C                     0.255793
     68 C                     0.299762
     69 S                     0.626093
     70 N                    -0.602130
     71 C                    -0.228503
     72 S                     0.365841
     73 C                    -0.105328
     74 C                    -0.198784
     75 S                     0.304454
     76 C                     0.103776
     77 C                     0.032492
     78 C                    -0.305361
     79 C                    -0.066734
     80 N                    -0.434864
     81 S                     0.281625
     82 C                     0.133400
     83 C                    -0.316763
     84 C                    -0.223754
     85 H                     0.088792
     86 H                     0.090017
     87 H                     0.108738
     88 H                     0.108570
     89 H                     0.129918
     90 H                     0.116522
     91 H                     0.127871
     92 H                     0.131127
     93 H                     0.117423
     94 C                    -0.174685
     95 H                     0.087474
     96 H                     0.112240
     97 H                     0.088635
     98 C                    -0.171574
     99 H                     0.089512
    100 C                    -0.175862
    101 H                     0.087174
    102 H                     0.086264
    103 H                     0.087822
    104 C                    -0.180107
    105 H                     0.092964
    106 C                    -0.327131
    107 H                     0.102747
    108 H                     0.103841
    109 H                     0.107576
    110 H                     0.101724
  ----------------------------------------
  Sum of atomic charges =     0.000000

                    Cartesian Multipole Moments
 -----------------------------------------------------------------
    Charge (ESU x 10^10)
                 0.0000
    Dipole Moment (Debye)
         X      -1.4785      Y       0.9064      Z       1.1191
       Tot       2.0640
    Quadrupole Moments (Debye-Ang)
        XX    -401.4749     XY      11.7291     YY    -421.6800
        XZ     -29.5523     YZ       7.6022     ZZ    -443.1235

 Total job time:  99.02s(wall), 1172.93s(cpu)
        *  Thank you very much for using Q-Chem.  Have a nice day.  *
