 Q-Chem 4.4, Q-Chem, Inc., Pleasanton, CA (2016)
 Q-Chem 4.4.2 for Intel X86 Linux

User input:
--------------------------------------------------------------
$comment
SP
$end

$rem
MEM_STATIC 5000
MEM_TOTAL 20000
JOBTYPE SP
EXCHANGE B3LYP
BASIS 6-31g(d,p)
$end

$molecule
0 1
C          13.337000     -0.656000     -7.454000
C          12.165000     -0.266000     -8.087000
N          14.334000      0.218000     -7.062000
C          12.173000      1.039000     -8.600000
C          14.256000      1.457000     -7.475000
C          13.244000      1.924000     -8.344000
C          13.172000      3.288000     -8.929000
C          12.070000      4.053000     -8.798000
C          14.341000      3.929000     -9.497000
N          12.014000      5.397000     -9.102000
N          15.496000      3.311000     -9.776000
C          14.265000      5.298000     -9.767000
C          13.061000      6.055000     -9.615000
S          16.437000      4.491000    -10.280000
N          15.439000      5.751000    -10.280000
C          12.941000      7.518000     -9.862000
S          14.301000      8.620000    -10.325000
C          11.843000      8.258000     -9.572000
C          13.232000     10.026000    -10.200000
S          10.281000      7.788000     -9.022000
C          11.982000      9.657000     -9.762000
C          13.608000     11.443000    -10.070000
C           9.882000      9.512000     -8.893000
C          10.913000     10.398000     -9.220000
N          12.726000     12.390000    -10.428000
S          15.231000     11.946000     -9.860000
C          13.402000     13.580000    -10.604000
C          14.751000     13.454000    -10.437000
C          13.453000     -1.978000     -6.784000
H          11.303000     -0.919000     -8.179000
H          11.308000      1.436000     -9.122000
H          15.056000      2.134000     -7.179000
H          11.128000      3.639000     -8.442000
H           8.906000      9.843000     -8.565000
H          10.785000     11.469000     -9.115000
H          12.909000     14.520000    -10.813000
H          15.415000     14.248000    -10.750000
H          14.483000     -2.302000     -6.591000
C          12.852000     -3.187000     -7.628000
H          12.891000     -1.960000     -5.841000
H          13.064000     -3.007000     -8.689000
H          11.767000     -3.324000     -7.552000
C          13.670000     -4.501000     -7.280000
H          13.283000     -5.224000     -8.009000
C          13.427000     -5.224000     -5.899000
H          14.734000     -4.450000     -7.543000
H          12.359000     -5.244000     -5.649000
H          13.833000     -4.579000     -5.111000
C          13.996000     -6.594000     -5.654000
H          13.758000     -6.778000     -4.599000
C          15.552000     -6.779000     -5.740000
H          13.513000     -7.271000     -6.371000
H          15.762000     -7.706000     -5.192000
H          16.078000     -5.943000     -5.263000
H          15.800000     -6.757000     -6.808000
C           5.824000     14.701000      8.016000
C           5.599000     13.326000      7.836000
N           6.217000     15.458000      6.978000
C           5.703000     12.756000      6.595000
C           6.427000     14.968000      5.751000
C           6.108000     13.583000      5.495000
C           6.261000     13.009000      4.121000
C           6.842000     11.693000      3.962000
C           6.044000     13.691000      2.861000
N           7.149000     11.134000      2.768000
N           5.502000     14.914000      2.744000
C           6.301000     13.074000      1.578000
C           6.930000     11.744000      1.600000
S           5.315000     15.229000      1.148000
N           5.931000     13.901000      0.495000
C           7.265000     11.136000      0.329000
S           7.248000     11.922000     -1.282000
C           7.597000      9.831000      0.216000
C           7.810000     10.427000     -2.035000
S           7.614000      8.550000      1.368000
C           7.979000      9.456000     -1.057000
C           8.145000     10.312000     -3.424000
C           8.317000      7.467000      0.135000
C           8.336000      8.064000     -1.135000
N           8.217000      9.132000     -4.011000
S           7.905000     11.676000     -4.430000
C           8.321000      9.273000     -5.347000
C           8.222000     10.573000     -5.805000
C           5.457000     15.370000      9.315000
H           5.244000     12.707000      8.655000
H           5.281000     11.767000      6.445000
H           6.924000     15.531000      4.962000
H           7.218000     11.079000      4.780000
H           8.606000      6.453000      0.378000
H           8.658000      7.596000     -2.058000
H           8.529000      8.480000     -6.053000
H           8.398000     10.920000     -6.815000
H           5.272000     16.429000      9.093000
C           6.690000     15.452000     10.291000
H           4.537000     14.973000      9.761000
H           7.619000     15.733000      9.779000
H           6.950000     14.431000     10.595000
C           6.410000     16.336000     11.555000
H           7.334000     16.175000     12.124000
C           5.286000     15.821000     12.376000
H           6.357000     17.396000     11.277000
H           5.450000     14.762000     12.608000
H           4.318000     15.837000     11.860000
C           5.116000     16.630000     13.712000
H           6.101000     16.627000     14.195000
C           3.976000     16.093000     14.623000
H           4.867000     17.677000     13.504000
H           4.207000     15.072000     14.950000
H           2.973000     16.083000     14.179000
H           3.805000     16.602000     15.580000
$end

--------------------------------------------------------------

             Standard Nuclear Orientation (Angstroms)
    I     Atom           X                Y                Z
 ----------------------------------------------------------------
    1      C      -9.6369685483     4.8538237717    -0.0778969468
    2      C      -9.4582187201     4.2426176807    -1.3111238575
    3      N      -9.2392558329     4.3017527416     1.1256773856
    4      C      -9.1315484836     2.8800459948    -1.2568748285
    5      C      -8.8415842682     3.0553078540     1.1231340023
    6      C      -8.8573675934     2.2371474284    -0.0291499926
    7      C      -8.5223415786     0.7899116476    -0.0633722697
    8      C      -7.5928186103     0.3022104741    -0.9089044198
    9      C      -9.0351806604    -0.1279620586     0.9339090023
   10      N      -7.0643728100    -0.9695447502    -0.8362980450
   11      N     -10.0149690359     0.1518098619     1.8031226766
   12      C      -8.4601132879    -1.3996739557     1.0037901010
   13      C      -7.4810105237    -1.8628487265     0.0696616790
   14      S     -10.0996561994    -1.1581069284     2.7024797173
   15      N      -9.0364701868    -2.1323814370     1.9925299414
   16      C      -6.8208240077    -3.1959402762     0.1225642720
   17      S      -7.0745377604    -4.4432372529     1.4102958369
   18      C      -5.7874461742    -3.5728317597    -0.6695134154
   19      C      -5.8113164515    -5.4618477934     0.7018281301
   20      S      -5.0472475896    -2.7822608452    -2.0075521609
   21      C      -5.2166765681    -4.8362456910    -0.3684664175
   22      C      -5.0799911533    -6.5717446076     1.3338545300
   23      C      -3.8582671127    -4.0987831036    -2.0409073532
   24      C      -4.0049764282    -5.0721550801    -1.0479776618
   25      N      -4.4994627784    -7.5001022697     0.5566570923
   26      S      -5.2560755407    -6.9601564808     2.9919765114
   27      C      -4.2338071368    -8.6158176186     1.3238978240
   28      C      -4.6833700060    -8.4968679074     2.6073736488
   29      C      -9.9018876640     6.3124387012     0.0330099943
   30      H      -9.5610934438     4.7763868377    -2.2504982655
   31      H      -8.9809545447     2.3082302573    -2.1671858896
   32      H      -8.5496300814     2.6216882590     2.0784778146
   33      H      -7.1996268943     0.8998676710    -1.7296980293
   34      H      -3.0658542485    -4.1258858592    -2.7764807984
   35      H      -3.2926685733    -5.8829203817    -0.9493513699
   36      H      -3.6913820735    -9.4764961136     0.9560152626
   37      H      -4.7323442731    -9.3652199130     3.2499211688
   38      H     -10.3206959300     6.6273230563     0.9966346511
   39      C     -10.9696150014     6.8584397003    -1.0143959642
   40      H      -8.9754538954     6.8678083997    -0.1637181694
   41      H     -11.7449010635     6.0941489027    -1.1480226782
   42      H     -10.5809367352     7.0779551182    -2.0156512697
   43      C     -11.7343496529     8.0857714633    -0.3619684537
   44      H     -12.5304148224     8.2861920521    -1.0900143543
   45      C     -11.0048569924     9.4793229592    -0.2403391541
   46      H     -12.3021764181     7.8315097786     0.5417957636
   47      H     -10.4283088202     9.7010004039    -1.1469676975
   48      H     -10.2144046437     9.3753341347     0.5121077933
   49      C     -11.7839860252    10.7085784161     0.1372518574
   50      H     -11.0056330771    11.4742633392     0.2441082403
   51      C     -12.5328037653    10.7196289703     1.5163482563
   52      H     -12.5099254956    10.8837726362    -0.6677486833
   53      H     -12.7082635330    11.7793738287     1.7397038140
   54      H     -11.9156892415    10.2748632610     2.3065723564
   55      H     -13.4132339653    10.0787736835     1.3868910649
   56      C      13.1587006591     1.5152616893     0.8248691413
   57      C      12.3563132097     2.5533545755     0.3226863651
   58      N      12.6483434496     0.2803318082     0.9642452774
   59      C      11.0765920840     2.3078345682    -0.0990134883
   60      C      11.3831204309    -0.0290502323     0.6589217344
   61      C      10.5536064706     0.9794975830     0.0422695685
   62      C       9.1537670668     0.6586294009    -0.3799321051
   63      C       8.0972397440     1.6128321682    -0.1192693054
   64      C       8.6648616323    -0.6053035887    -0.8930187197
   65      N       6.7826243710     1.3731018499    -0.3353290094
   66      N       9.4492963573    -1.6427317335    -1.2270651332
   67      C       7.2706437405    -0.8452193573    -1.1953825639
   68      C       6.3239629298     0.2207112554    -0.8312227480
   69      S       8.4969069306    -2.7988795577    -1.8886439936
   70      N       7.0508911641    -2.1182252290    -1.7653675250
   71      C       4.9144121226    -0.0243441325    -1.0558210085
   72      S       4.1446573533    -1.5852153271    -1.4854309585
   73      C       3.9916730892     0.9617030223    -1.0080540251
   74      C       2.5526923241    -0.8214073010    -1.4743564299
   75      S       4.1471094870     2.6670255961    -0.8181370819
   76      C       2.6904338562     0.5217061536    -1.1503818658
   77      C       1.3244266625    -1.5378670259    -1.6555191391
   78      C       2.3682861024     2.8113814376    -0.7698074066
   79      C       1.7369445735     1.5975430172    -1.0823360666
   80      N       0.2126757977    -0.9089269626    -1.9880810302
   81      S       1.4072684975    -3.2149601973    -1.9881266027
   82      C      -0.7493193184    -1.7914888930    -2.3216118919
   83      C      -0.3441021248    -3.1123368435    -2.3485324719
   84      C      14.6345678695     1.7281343391     1.0396998005
   85      H      12.7639554090     3.5481843265     0.1674813266
   86      H      10.5816090590     3.0581388631    -0.7078979355
   87      H      10.9140815869    -0.9692459063     0.9462084509
   88      H       8.2328542022     2.5599348538     0.4023639199
   89      H       1.8873119423     3.7641104042    -0.5916575445
   90      H       0.6693432593     1.4366496647    -1.1770871245
   91      H      -1.7894838126    -1.5556252654    -2.5032025696
   92      H      -0.9763838021    -3.9823848187    -2.4698642544
   93      H      15.1168886631     0.7443436436     0.9725245102
   94      C      14.9478550710     2.1440931663     2.5257746248
   95      H      15.0961837262     2.3618111937     0.2726995105
   96      H      14.3700184477     1.5674072761     3.2590441664
   97      H      14.5195875330     3.1390081160     2.6966200484
   98      C      16.4824921931     2.1556332109     2.8456304217
   99      H      16.4740335080     2.5572457206     3.8664603991
  100      C      17.2367665261     3.1116299600     1.9972304887
  101      H      16.8739586623     1.1313562735     2.8817380242
  102      H      16.7698034850     4.1023524678     2.0483717708
  103      H      17.2220942356     2.8616757414     0.9291276787
  104      C      18.7430521161     3.2191852267     2.4306039835
  105      H      18.7337579937     3.4386865414     3.5054322452
  106      C      19.5586658835     4.2454156090     1.5942336200
  107      H      19.2532807477     2.2569757789     2.3069361953
  108      H      19.1584866168     5.2551368981     1.7460574419
  109      H      19.5967928376     4.0598430101     0.5137919761
  110      H      20.6175401488     4.3831616463     1.8471808865
 ----------------------------------------------------------------

    9   -5663.5215245239      9.22E-06 Convergence criterion met
 Total energy in the final basis set = -5663.5215245239

                    Orbital Energies (a.u.)
 --------------------------------------------------------------

 Alpha MOs
 -- Occupied --
-88.990 -88.986 -88.931 -88.930 -88.924 -88.924 -88.914 -88.906
-14.388 -14.387 -14.385 -14.375 -14.351 -14.346 -14.345 -14.341
-14.329 -14.326 -10.270 -10.269 -10.265 -10.263 -10.260 -10.258
-10.258 -10.257 -10.246 -10.242 -10.242 -10.238 -10.237 -10.235
-10.231 -10.230 -10.230 -10.230 -10.229 -10.229 -10.229 -10.228
-10.227 -10.225 -10.224 -10.222 -10.222 -10.220 -10.218 -10.213
-10.212 -10.209 -10.209 -10.203 -10.202 -10.201 -10.196 -10.195
-10.189 -10.185 -10.185 -10.184 -10.183 -10.183 -10.180 -10.179
-10.178 -10.176 -10.174 -10.174  -8.046  -8.042  -7.993  -7.988
 -7.986  -7.983  -7.974  -7.966  -6.011  -6.007  -6.006  -6.004
 -6.001  -6.000  -5.957  -5.954  -5.953  -5.951  -5.950  -5.949
 -5.947  -5.947  -5.945  -5.944  -5.943  -5.939  -5.938  -5.935
 -5.931  -5.930  -5.927  -5.922  -1.054  -1.027  -0.976  -0.971
 -0.957  -0.951  -0.942  -0.936  -0.916  -0.912  -0.912  -0.894
 -0.844  -0.841  -0.837  -0.821  -0.818  -0.808  -0.807  -0.807
 -0.805  -0.800  -0.799  -0.794  -0.788  -0.783  -0.770  -0.764
 -0.749  -0.748  -0.743  -0.737  -0.725  -0.724  -0.710  -0.710
 -0.694  -0.691  -0.674  -0.670  -0.661  -0.653  -0.648  -0.638
 -0.638  -0.633  -0.629  -0.624  -0.615  -0.609  -0.600  -0.593
 -0.592  -0.590  -0.588  -0.585  -0.581  -0.575  -0.567  -0.553
 -0.552  -0.548  -0.545  -0.538  -0.528  -0.515  -0.512  -0.510
 -0.508  -0.507  -0.504  -0.492  -0.490  -0.485  -0.481  -0.477
 -0.474  -0.474  -0.473  -0.467  -0.464  -0.460  -0.453  -0.449
 -0.448  -0.442  -0.440  -0.439  -0.436  -0.433  -0.432  -0.431
 -0.429  -0.429  -0.427  -0.424  -0.422  -0.420  -0.414  -0.413
 -0.412  -0.411  -0.406  -0.403  -0.401  -0.400  -0.398  -0.397
 -0.395  -0.391  -0.391  -0.391  -0.387  -0.387  -0.386  -0.385
 -0.383  -0.378  -0.374  -0.373  -0.372  -0.366  -0.360  -0.356
 -0.355  -0.354  -0.351  -0.348  -0.346  -0.345  -0.345  -0.341
 -0.338  -0.335  -0.334  -0.332  -0.331  -0.327  -0.323  -0.320
 -0.319  -0.317  -0.308  -0.308  -0.304  -0.304  -0.299  -0.299
 -0.296  -0.292  -0.292  -0.289  -0.288  -0.287  -0.284  -0.280
 -0.274  -0.274  -0.272  -0.265  -0.255  -0.250  -0.250  -0.249
 -0.247  -0.243  -0.235  -0.225  -0.198  -0.189

          Ground-State Mulliken Net Atomic Charges

     Atom                 Charge (a.u.)
  ----------------------------------------
      1 C                     0.244679
      2 C                    -0.095511
      3 N                    -0.471731
      4 C                    -0.094440
      5 C                     0.114581
      6 C                     0.038100
      7 C                     0.029459
      8 C                     0.059135
      9 C                     0.210656
     10 N                    -0.555468
     11 N                    -0.528877
     12 C                     0.169398
     13 C                     0.350655
     14 S                     0.605927
     15 N                    -0.547068
     16 C                    -0.225101
     17 S                     0.323926
     18 C                    -0.094568
     19 C                    -0.216318
     20 S                     0.291458
     21 C                     0.133481
     22 C                     0.023619
     23 C                    -0.318283
     24 C                    -0.041350
     25 N                    -0.422301
     26 S                     0.291675
     27 C                     0.115247
     28 C                    -0.304113
     29 C                    -0.219336
     30 H                     0.100958
     31 H                     0.095018
     32 H                     0.100884
     33 H                     0.114122
     34 H                     0.112541
     35 H                     0.130107
     36 H                     0.117528
     37 H                     0.129758
     38 H                     0.122796
     39 C                    -0.199137
     40 H                     0.124037
     41 H                     0.101843
     42 H                     0.093929
     43 C                    -0.199329
     44 H                     0.083736
     45 C                    -0.171928
     46 H                     0.099104
     47 H                     0.086475
     48 H                     0.087331
     49 C                    -0.177291
     50 H                     0.093669
     51 C                    -0.316904
     52 H                     0.092426
     53 H                     0.106801
     54 H                     0.103387
     55 H                     0.106682
     56 C                     0.280661
     57 C                    -0.116809
     58 N                    -0.488615
     59 C                    -0.072979
     60 C                     0.111940
     61 C                     0.007678
     62 C                     0.033526
     63 C                     0.046344
     64 C                     0.202818
     65 N                    -0.525195
     66 N                    -0.555547
     67 C                     0.171353
     68 C                     0.317010
     69 S                     0.612858
     70 N                    -0.552413
     71 C                    -0.217714
     72 S                     0.334604
     73 C                    -0.105049
     74 C                    -0.234833
     75 S                     0.281549
     76 C                     0.145969
     77 C                     0.071126
     78 C                    -0.316261
     79 C                    -0.053948
     80 N                    -0.435986
     81 S                     0.261174
     82 C                     0.140376
     83 C                    -0.313657
     84 C                    -0.226727
     85 H                     0.086609
     86 H                     0.106122
     87 H                     0.119865
     88 H                     0.118657
     89 H                     0.129454
     90 H                     0.127553
     91 H                     0.122898
     92 H                     0.123715
     93 H                     0.121353
     94 C                    -0.193830
     95 H                     0.106514
     96 H                     0.106149
     97 H                     0.089114
     98 C                    -0.177228
     99 H                     0.093616
    100 C                    -0.161979
    101 H                     0.099398
    102 H                     0.091100
    103 H                     0.093024
    104 C                    -0.177420
    105 H                     0.094269
    106 C                    -0.328201
    107 H                     0.096842
    108 H                     0.100097
    109 H                     0.103290
    110 H                     0.099690
  ----------------------------------------
  Sum of atomic charges =     0.000000

                    Cartesian Multipole Moments
 -----------------------------------------------------------------
    Charge (ESU x 10^10)
                 0.0000
    Dipole Moment (Debye)
         X      -0.9403      Y      -0.1642      Z      -0.1828
       Tot       0.9719
    Quadrupole Moments (Debye-Ang)
        XX    -431.9573     XY      16.3122     YY    -402.4781
        XZ       3.3619     YZ     -17.9233     ZZ    -439.8708

 Total job time:  78.39s(wall), 914.68s(cpu)
        *  Thank you very much for using Q-Chem.  Have a nice day.  *
