 Q-Chem 4.4, Q-Chem, Inc., Pleasanton, CA (2016)
 Q-Chem 4.4.2 for Intel X86 Linux

User input:
--------------------------------------------------------------
$comment
SP
$end

$rem
MEM_STATIC 5000
MEM_TOTAL 20000
JOBTYPE SP
EXCHANGE B3LYP
BASIS 6-31g(d,p)
$end

$molecule
0 1
C           7.683000     20.016000     -2.905000
C           8.338000     20.424000     -1.732000
N           6.425000     19.475000     -2.880000
C           7.646000     20.234000     -0.499000
C           5.856000     19.230000     -1.683000
C           6.349000     19.637000     -0.444000
C           5.554000     19.345000      0.820000
C           4.131000     19.268000      0.761000
C           6.173000     18.951000      2.030000
N           3.407000     18.854000      1.800000
N           7.514000     19.011000      2.148000
C           5.439000     18.676000      3.143000
C           4.012000     18.542000      2.982000
S           7.711000     18.562000      3.744000
N           6.243000     18.414000      4.210000
C           3.156000     18.077000      4.100000
S           3.634000     17.112000      5.527000
C           1.822000     18.182000      4.088000
C           1.947000     17.016000      6.152000
S           0.755000     19.140000      3.014000
C           1.180000     17.587000      5.197000
C           1.516000     16.210000      7.237000
C          -0.591000     18.557000      3.976000
C          -0.241000     17.738000      5.045000
N           0.313000     16.403000      7.739000
S           2.428000     14.874000      7.851000
C           0.133000     15.610000      8.849000
C           1.170000     14.756000      9.089000
C           8.339000     20.077000     -4.297000
H           9.328000     20.871000     -1.749000
H           8.100000     20.660000      0.391000
H           4.832000     18.864000     -1.739000
H           3.630000     19.673000     -0.117000
H          -1.571000     18.879000      3.647000
H          -0.921000     17.182000      5.680000
H          -0.758000     15.663000      9.461000
H           1.271000     14.081000      9.929000
H           7.711000     20.511000     -5.084000
C           9.019000     18.829000     -4.791000
H           9.134000     20.831000     -4.239000
H           8.304000     18.078000     -5.148000
H           9.679000     18.250000     -4.134000
C           9.989000     19.242000     -6.026000
H           9.609000     19.946000     -6.776000
C          10.404000     18.051000     -6.906000
H          10.942000     19.695000     -5.727000
H           9.520000     17.649000     -7.416000
H          10.730000     17.181000     -6.323000
C          11.489000     18.399000     -7.982000
H          11.147000     19.247000     -8.587000
C          11.822000     17.222000     -8.859000
H          12.397000     18.687000     -7.438000
H          10.913000     16.837000     -9.338000
H          12.195000     16.396000     -8.240000
H          12.502000     17.564000     -9.649000
C           5.824000     14.701000      8.016000
C           5.599000     13.326000      7.836000
N           6.217000     15.458000      6.978000
C           5.703000     12.756000      6.595000
C           6.427000     14.968000      5.751000
C           6.108000     13.583000      5.495000
C           6.261000     13.009000      4.121000
C           6.842000     11.693000      3.962000
C           6.044000     13.691000      2.861000
N           7.149000     11.134000      2.768000
N           5.502000     14.914000      2.744000
C           6.301000     13.074000      1.578000
C           6.930000     11.744000      1.600000
S           5.315000     15.229000      1.148000
N           5.931000     13.901000      0.495000
C           7.265000     11.136000      0.329000
S           7.248000     11.922000     -1.282000
C           7.597000      9.831000      0.216000
C           7.810000     10.427000     -2.035000
S           7.614000      8.550000      1.368000
C           7.979000      9.456000     -1.057000
C           8.145000     10.312000     -3.424000
C           8.317000      7.467000      0.135000
C           8.336000      8.064000     -1.135000
N           8.217000      9.132000     -4.011000
S           7.905000     11.676000     -4.430000
C           8.321000      9.273000     -5.347000
C           8.222000     10.573000     -5.805000
C           5.457000     15.370000      9.315000
H           5.244000     12.707000      8.655000
H           5.281000     11.767000      6.445000
H           6.924000     15.531000      4.962000
H           7.218000     11.079000      4.780000
H           8.606000      6.453000      0.378000
H           8.658000      7.596000     -2.058000
H           8.529000      8.480000     -6.053000
H           8.398000     10.920000     -6.815000
H           5.272000     16.429000      9.093000
C           6.690000     15.452000     10.291000
H           4.537000     14.973000      9.761000
H           7.619000     15.733000      9.779000
H           6.950000     14.431000     10.595000
C           6.410000     16.336000     11.555000
H           7.334000     16.175000     12.124000
C           5.286000     15.821000     12.376000
H           6.357000     17.396000     11.277000
H           5.450000     14.762000     12.608000
H           4.318000     15.837000     11.860000
C           5.116000     16.630000     13.712000
H           6.101000     16.627000     14.195000
C           3.976000     16.093000     14.623000
H           4.867000     17.677000     13.504000
H           4.207000     15.072000     14.950000
H           2.973000     16.083000     14.179000
H           3.805000     16.602000     15.580000
$end

--------------------------------------------------------------

             Standard Nuclear Orientation (Angstroms)
    I     Atom           X                Y                Z
 ----------------------------------------------------------------
    1      C       4.9300973835     5.2126576788     0.8057454565
    2      C       4.0450233147     5.3024296148     1.8920248369
    3      N       4.5035426688     4.8616544507    -0.4475373565
    4      C       2.6748162113     4.9920999397     1.6440712393
    5      C       3.2186481702     4.4867853870    -0.6060123154
    6      C       2.2127403654     4.5867327206     0.3541850698
    7      C       0.7877370705     4.1862562269     0.0020924859
    8      C       0.3226370427     4.3255330956    -1.3390349943
    9      C      -0.0503646701     3.4942178080     0.9082742001
   10      N      -0.8544136633     3.8371718206    -1.7278124377
   11      N       0.3319441818     3.3393872540     2.1911118520
   12      C      -1.3156461747     3.1290427642     0.5635135561
   13      C      -1.6815814202     3.2320048080    -0.8277794445
   14      S      -1.0119111718     2.5839180776     2.8321618594
   15      N      -1.9688791675     2.5649986475     1.6164569979
   16      C      -2.9744100997     2.6985213021    -1.3206022874
   17      S      -3.9975081853     1.4316492335    -0.5828059272
   18      C      -3.4711682182     2.9935771106    -2.5276227684
   19      C      -5.1883704061     1.4656879818    -1.9342860546
   20      S      -2.9911063484     4.2735976287    -3.6855593272
   21      C      -4.6609235645     2.3046660136    -2.8531280929
   22      C      -6.2528158641     0.5457078798    -2.1165344533
   23      C      -4.3083565602     3.7237681906    -4.7051614401
   24      C      -5.0664720834     2.6823932969    -4.1790234502
   25      N      -7.1846636665     0.8140892943    -3.0087749419
   26      S      -6.3222929865    -0.9961611913    -1.3345826024
   27      C      -8.1804425422    -0.1336797991    -2.9495535238
   28      C      -7.9157941844    -1.1564346538    -2.0857139821
   29      C       6.4485567437     5.4315775098     0.9401935090
   30      H       4.3757414255     5.5988452874     2.8834688747
   31      H       1.9736084369     5.1796304493     2.4520514155
   32      H       2.9329977964     4.2873183622    -1.6376540991
   33      H       0.8975041471     4.9509733066    -2.0204029967
   34      H      -4.4072359764     4.2370188222    -5.6533816941
   35      H      -5.8383882695     2.1231312095    -4.6949035905
   36      H      -9.0812389135    -0.0661253442    -3.5455705479
   37      H      -8.5724373787    -1.9804385619    -1.8381997907
   38      H       6.8890327855     6.0868241615     0.1794427731
   39      C       7.3029987342     4.2101607366     1.1451568006
   40      H       6.6016354499     6.0408851376     1.8397579171
   41      H       7.4546514621     3.6467564926     0.2165814897
   42      H       7.0112054763     3.4329382643     1.8615867854
   43      C       8.7520434871     4.6980533450     1.6918963244
   44      H       9.2187637200     5.5737772383     1.2252102555
   45      C       9.8568514830     3.6402338165     1.5321367010
   46      H       8.7772841864     4.9480792599     2.7594491095
   47      H      10.0455596916     3.4683632627     0.4653613147
   48      H       9.5434221126     2.6411343566     1.8586750585
   49      C      11.2098241163     4.0195094083     2.2261972740
   50      H      11.5401626524     5.0034981094     1.8730178752
   51      C      12.2797661239     2.9864872714     1.9950342037
   52      H      11.0121373975     4.0708556779     3.3039855287
   53      H      12.4286375860     2.8290869039     0.9193904838
   54      H      11.9454572580     2.0169208906     2.3858597598
   55      H      13.2196280671     3.3657725772     2.4148748692
   56      C      -5.1926111397    -1.6800242020     1.8032702156
   57      C      -4.9485222387    -2.9527567908     1.2608475339
   58      N      -4.1797961531    -0.8108353928     1.9570837943
   59      C      -3.6998564868    -3.2962674844     0.8151668819
   60      C      -2.9140739963    -1.0942214745     1.6294120830
   61      C      -2.6337250807    -2.3494101493     0.9725803875
   62      C      -1.2438996416    -2.6796097889     0.5252388549
   63      C      -0.7267485131    -4.0140010557     0.7412311172
   64      C      -0.2443520278    -1.7557650585     0.0280180973
   65      N       0.5527305277    -4.3843881756     0.5001652226
   66      N      -0.4818796301    -0.4671882050    -0.2658055415
   67      C       1.1053523804    -2.1592293978    -0.3011346598
   68      C       1.4752818298    -3.5470478205     0.0184544955
   69      S       0.8814654637     0.1564898600    -0.9243841824
   70      N       1.8679917579    -1.1046641116    -0.8488492176
   71      C       2.8418441709    -3.9550924292    -0.2332138680
   72      S       4.2266914973    -2.8947785272    -0.6471441903
   73      C       3.2228565374    -5.2515554010    -0.2276157167
   74      C       5.3049208217    -4.2924759183    -0.6888757972
   75      S       2.3190143943    -6.7098833305    -0.0704437390
   76      C       4.5812857169    -5.4392824073    -0.3904246085
   77      C       6.7221180519    -4.1994295237    -0.8829515018
   78      C       3.8431763872    -7.6395596839    -0.0660736822
   79      C       4.9495913023    -6.8303277986    -0.3671713264
   80      N       7.4283939403    -5.2508392326    -1.2542532571
   81      S       7.3989034784    -2.6550471026    -1.1778691580
   82      C       8.6808470731    -4.8853647730    -1.5909765405
   83      C       8.9128384143    -3.5231476016    -1.5805173089
   84      C      -6.6040271874    -1.2131573301     2.0473830266
   85      H      -5.7617763598    -3.6532644015     1.0939528908
   86      H      -3.6020063774    -4.1707766425     0.1792705943
   87      H      -2.0691175145    -0.4739555315     1.9257526032
   88      H      -1.2681765314    -4.8139739204     1.2456070850
   89      H       3.8460909282    -8.7115739927     0.0807010679
   90      H       5.9743427958    -7.1636565345    -0.4829872597
   91      H       9.5016686111    -5.5580671724    -1.8013868170
   92      H       9.8675411322    -3.0268975822    -1.6978358444
   93      H      -6.5929544463    -0.1160561942     2.0122192394
   94      C      -7.0546192180    -1.4873133319     3.5310926709
   95      H      -7.3097335218    -1.5490230736     1.2779041303
   96      H      -6.2711290892    -1.2535715041     4.2629765252
   97      H      -7.1178308767    -2.5730943341     3.6708814449
   98      C      -8.4268009866    -0.8173524189     3.8858060326
   99      H      -8.5887092749    -1.2096520473     4.8974110483
  100      C      -9.5397479094    -1.3071036605     3.0348448887
  101      H      -8.3152463100     0.2720422869     3.9526471059
  102      H      -9.5678298465    -2.4030225643     3.0541881330
  103      H      -9.4259223476    -1.0592228373     1.9722373229
  104      C     -10.9285563741    -0.7389380672     3.5003294825
  105      H     -11.0072063175    -0.9705958926     4.5697554212
  106      C     -12.1277437270    -1.2641857503     2.6613094803
  107      H     -10.9527342126     0.3530908204     3.4088836472
  108      H     -12.2229085066    -2.3500069510     2.7824168077
  109      H     -12.0901666737    -1.0497000422     1.5862146723
  110      H     -13.1325539180    -0.9187473854     2.9355353291
 ----------------------------------------------------------------

   10   -5663.5273257459      5.98E-06 Convergence criterion met
 Total energy in the final basis set = -5663.5273257459

                    Orbital Energies (a.u.)
 --------------------------------------------------------------

 Alpha MOs
 -- Occupied --
-88.992 -88.988 -88.925 -88.925 -88.924 -88.913 -88.907 -88.902
-14.389 -14.389 -14.380 -14.376 -14.353 -14.347 -14.342 -14.337
-14.329 -14.327 -10.270 -10.266 -10.264 -10.264 -10.261 -10.259
-10.255 -10.249 -10.243 -10.242 -10.239 -10.235 -10.234 -10.232
-10.232 -10.232 -10.231 -10.231 -10.231 -10.231 -10.227 -10.226
-10.225 -10.225 -10.222 -10.221 -10.220 -10.220 -10.217 -10.216
-10.212 -10.211 -10.204 -10.202 -10.200 -10.198 -10.197 -10.189
-10.188 -10.186 -10.186 -10.186 -10.185 -10.181 -10.180 -10.180
-10.177 -10.176 -10.173 -10.171  -8.048  -8.043  -7.987  -7.984
 -7.984  -7.972  -7.967  -7.961  -6.013  -6.008  -6.007  -6.006
 -6.002  -6.001  -5.951  -5.948  -5.948  -5.947  -5.945  -5.944
 -5.944  -5.941  -5.940  -5.937  -5.933  -5.932  -5.928  -5.928
 -5.926  -5.923  -5.923  -5.917  -1.053  -1.028  -0.977  -0.969
 -0.958  -0.952  -0.939  -0.929  -0.913  -0.912  -0.904  -0.896
 -0.842  -0.833  -0.826  -0.823  -0.812  -0.810  -0.808  -0.801
 -0.801  -0.801  -0.796  -0.793  -0.785  -0.783  -0.767  -0.765
 -0.749  -0.749  -0.738  -0.735  -0.725  -0.715  -0.711  -0.709
 -0.692  -0.692  -0.676  -0.671  -0.654  -0.649  -0.647  -0.640
 -0.634  -0.632  -0.626  -0.620  -0.611  -0.606  -0.595  -0.595
 -0.593  -0.590  -0.588  -0.582  -0.577  -0.577  -0.573  -0.569
 -0.549  -0.549  -0.540  -0.539  -0.521  -0.517  -0.510  -0.508
 -0.507  -0.500  -0.494  -0.493  -0.487  -0.485  -0.479  -0.476
 -0.474  -0.473  -0.467  -0.466  -0.464  -0.461  -0.451  -0.449
 -0.441  -0.440  -0.437  -0.436  -0.434  -0.432  -0.429  -0.428
 -0.428  -0.427  -0.424  -0.422  -0.421  -0.419  -0.416  -0.413
 -0.411  -0.409  -0.405  -0.404  -0.402  -0.401  -0.394  -0.393
 -0.392  -0.391  -0.388  -0.387  -0.386  -0.385  -0.384  -0.382
 -0.379  -0.376  -0.375  -0.374  -0.372  -0.363  -0.356  -0.352
 -0.350  -0.350  -0.348  -0.347  -0.346  -0.346  -0.340  -0.339
 -0.335  -0.332  -0.330  -0.328  -0.326  -0.325  -0.324  -0.322
 -0.321  -0.314  -0.313  -0.309  -0.305  -0.302  -0.301  -0.299
 -0.298  -0.293  -0.289  -0.289  -0.285  -0.282  -0.279  -0.278
 -0.273  -0.272  -0.268  -0.267  -0.250  -0.249  -0.249  -0.247
 -0.245  -0.241  -0.228  -0.226  -0.192  -0.190

          Ground-State Mulliken Net Atomic Charges

     Atom                 Charge (a.u.)
  ----------------------------------------
      1 C                     0.251470
      2 C                    -0.115923
      3 N                    -0.474859
      4 C                    -0.074665
      5 C                     0.059514
      6 C                     0.055424
      7 C                     0.009634
      8 C                     0.064152
      9 C                     0.216453
     10 N                    -0.517460
     11 N                    -0.562188
     12 C                     0.217997
     13 C                     0.274433
     14 S                     0.612565
     15 N                    -0.508242
     16 C                    -0.233594
     17 S                     0.339411
     18 C                    -0.096737
     19 C                    -0.240183
     20 S                     0.277952
     21 C                     0.161536
     22 C                     0.047302
     23 C                    -0.310717
     24 C                    -0.051392
     25 N                    -0.439027
     26 S                     0.281884
     27 C                     0.133860
     28 C                    -0.322198
     29 C                    -0.216337
     30 H                     0.096131
     31 H                     0.110864
     32 H                     0.091424
     33 H                     0.124332
     34 H                     0.127396
     35 H                     0.116395
     36 H                     0.115861
     37 H                     0.123025
     38 H                     0.120058
     39 C                    -0.171325
     40 H                     0.094566
     41 H                     0.112171
     42 H                     0.102929
     43 C                    -0.188194
     44 H                     0.092852
     45 C                    -0.183003
     46 H                     0.091596
     47 H                     0.087357
     48 H                     0.082821
     49 C                    -0.178457
     50 H                     0.091142
     51 C                    -0.310098
     52 H                     0.093058
     53 H                     0.099895
     54 H                     0.102717
     55 H                     0.099857
     56 C                     0.275339
     57 C                    -0.113993
     58 N                    -0.484726
     59 C                    -0.073358
     60 C                     0.119136
     61 C                     0.012192
     62 C                     0.033767
     63 C                     0.046620
     64 C                     0.203380
     65 N                    -0.525117
     66 N                    -0.564885
     67 C                     0.169012
     68 C                     0.317960
     69 S                     0.621649
     70 N                    -0.550242
     71 C                    -0.216568
     72 S                     0.337954
     73 C                    -0.105370
     74 C                    -0.235500
     75 S                     0.282310
     76 C                     0.145534
     77 C                     0.068956
     78 C                    -0.315862
     79 C                    -0.054482
     80 N                    -0.434372
     81 S                     0.265400
     82 C                     0.139695
     83 C                    -0.312962
     84 C                    -0.218127
     85 H                     0.084908
     86 H                     0.107655
     87 H                     0.113984
     88 H                     0.118197
     89 H                     0.129363
     90 H                     0.126412
     91 H                     0.117540
     92 H                     0.131556
     93 H                     0.126447
     94 C                    -0.199233
     95 H                     0.103822
     96 H                     0.105064
     97 H                     0.087809
     98 C                    -0.176781
     99 H                     0.093342
    100 C                    -0.161886
    101 H                     0.100936
    102 H                     0.089319
    103 H                     0.093583
    104 C                    -0.177140
    105 H                     0.094279
    106 C                    -0.328236
    107 H                     0.098269
    108 H                     0.099297
    109 H                     0.102318
    110 H                     0.100399
  ----------------------------------------
  Sum of atomic charges =     0.000000

                    Cartesian Multipole Moments
 -----------------------------------------------------------------
    Charge (ESU x 10^10)
                 0.0000
    Dipole Moment (Debye)
         X      -0.2084      Y      -2.0096      Z       1.9274
       Tot       2.7923
    Quadrupole Moments (Debye-Ang)
        XX    -391.0048     XY      17.9426     YY    -434.7467
        XZ       2.3169     YZ       8.0855     ZZ    -440.8288

 Total job time:  95.23s(wall), 1133.48s(cpu)
        *  Thank you very much for using Q-Chem.  Have a nice day.  *
