 Q-Chem 4.4, Q-Chem, Inc., Pleasanton, CA (2016)
 Q-Chem 4.4.2 for Intel X86 Linux

User input:
--------------------------------------------------------------
$comment
SP
$end

$rem
MEM_STATIC 5000
MEM_TOTAL 20000
JOBTYPE SP
EXCHANGE B3LYP
BASIS 6-31g(d,p)
$end

$molecule
0 1
C          14.923000     18.372000     15.135000
C          13.802000     19.062000     14.825000
N          15.753000     17.959000     14.178000
C          13.388000     19.313000     13.499000
C          15.400000     18.074000     12.940000
C          14.203000     18.764000     12.500000
C          13.809000     18.917000     11.091000
C          12.518000     18.559000     10.659000
C          14.677000     19.365000     10.128000
N          12.053000     18.717000      9.386000
N          15.815000     20.008000     10.334000
C          14.270000     19.467000      8.752000
C          12.929000     19.072000      8.387000
S          16.312000     20.628000      8.976000
N          15.115000     20.134000      7.952000
C          12.473000     18.890000      7.023000
S          13.043000     19.682000      5.613000
C          11.451000     18.083000      6.610000
C          11.926000     18.867000      4.523000
S          10.509000     16.970000      7.616000
C          11.177000     18.013000      5.278000
C          12.055000     18.851000      3.153000
C           9.705000     16.433000      6.109000
C          10.268000     16.949000      4.969000
N          11.189000     18.179000      2.391000
S          13.493000     19.288000      2.344000
C          11.619000     18.148000      1.064000
C          12.779000     18.915000      0.819000
C          15.299000     18.207000     16.580000
H          13.144000     19.419000     15.612000
H          12.417000     19.692000     13.195000
H          16.132000     17.831000     12.172000
H          11.737000     18.239000     11.347000
H           9.039000     15.581000      6.156000
H           9.973000     16.682000      3.961000
H          11.041000     17.810000      0.214000
H          13.215000     19.242000     -0.116000
H          16.177000     18.837000     16.765000
C          15.601000     16.738000     16.986000
H          14.450000     18.485000     17.218000
H          16.362000     16.356000     16.295000
H          14.688000     16.135000     16.907000
C          16.092000     16.701000     18.495000
H          16.948000     17.361000     18.681000
C          16.294000     15.233000     18.971000
H          15.266000     17.053000     19.126000
H          16.743000     14.622000     18.178000
H          15.269000     14.894000     19.170000
C          17.044000     15.009000     20.326000
H          18.088000     15.301000     20.160000
C          17.053000     13.563000     20.776000
H          16.577000     15.499000     21.189000
H          17.630000     13.035000     20.007000
H          16.062000     13.106000     20.892000
H          17.651000     13.471000     21.690000
C           5.824000     14.701000      8.016000
C           5.599000     13.326000      7.836000
N           6.217000     15.458000      6.978000
C           5.703000     12.756000      6.595000
C           6.427000     14.968000      5.751000
C           6.108000     13.583000      5.495000
C           6.261000     13.009000      4.121000
C           6.842000     11.693000      3.962000
C           6.044000     13.691000      2.861000
N           7.149000     11.134000      2.768000
N           5.502000     14.914000      2.744000
C           6.301000     13.074000      1.578000
C           6.930000     11.744000      1.600000
S           5.315000     15.229000      1.148000
N           5.931000     13.901000      0.495000
C           7.265000     11.136000      0.329000
S           7.248000     11.922000     -1.282000
C           7.597000      9.831000      0.216000
C           7.810000     10.427000     -2.035000
S           7.614000      8.550000      1.368000
C           7.979000      9.456000     -1.057000
C           8.145000     10.312000     -3.424000
C           8.317000      7.467000      0.135000
C           8.336000      8.064000     -1.135000
N           8.217000      9.132000     -4.011000
S           7.905000     11.676000     -4.430000
C           8.321000      9.273000     -5.347000
C           8.222000     10.573000     -5.805000
C           5.457000     15.370000      9.315000
H           5.244000     12.707000      8.655000
H           5.281000     11.767000      6.445000
H           6.924000     15.531000      4.962000
H           7.218000     11.079000      4.780000
H           8.606000      6.453000      0.378000
H           8.658000      7.596000     -2.058000
H           8.529000      8.480000     -6.053000
H           8.398000     10.920000     -6.815000
H           5.272000     16.429000      9.093000
C           6.690000     15.452000     10.291000
H           4.537000     14.973000      9.761000
H           7.619000     15.733000      9.779000
H           6.950000     14.431000     10.595000
C           6.410000     16.336000     11.555000
H           7.334000     16.175000     12.124000
C           5.286000     15.821000     12.376000
H           6.357000     17.396000     11.277000
H           5.450000     14.762000     12.608000
H           4.318000     15.837000     11.860000
C           5.116000     16.630000     13.712000
H           6.101000     16.627000     14.195000
C           3.976000     16.093000     14.623000
H           4.867000     17.677000     13.504000
H           4.207000     15.072000     14.950000
H           2.973000     16.083000     14.179000
H           3.805000     16.602000     15.580000
$end

--------------------------------------------------------------

             Standard Nuclear Orientation (Angstroms)
    I     Atom           X                Y                Z
 ----------------------------------------------------------------
    1      C     -10.3717293424     0.3122132030     0.9861765916
    2      C      -9.9221732499     0.0732836825    -0.2666813429
    3      N      -9.7172031042     1.1437712312     1.7957596011
    4      C      -8.7122210608     0.5985519448    -0.7694555989
    5      C      -8.5590090847     1.5937863859     1.4400195645
    6      C      -7.9690692131     1.3692670030     0.1346188618
    7      C      -6.6614279329     1.8984191189    -0.2825121973
    8      C      -5.6820571340     1.0512193975    -0.8343767371
    9      C      -6.3126228647     3.2146053242    -0.1167234843
   10      N      -4.4665451972     1.4656790302    -1.2953235282
   11      N      -7.1382986585     4.2235328979     0.1096691715
   12      C      -5.0109339841     3.6911618980    -0.5013387337
   13      C      -4.0577197516     2.7563629723    -1.0536652635
   14      S      -6.3696564629     5.5793732762    -0.1058744285
   15      N      -4.8692260768     5.0248302066    -0.5140553203
   16      C      -2.6501343603     3.0431970895    -1.2485640969
   17      S      -1.9233818006     4.5661038729    -1.5532764957
   18      C      -1.6333291205     2.1314458762    -1.2820130046
   19      C      -0.2855708830     3.9295326250    -1.6644810121
   20      S      -1.7622764538     0.3911226527    -0.9773547321
   21      C      -0.3601376995     2.5849693609    -1.4478444072
   22      C       0.8505511041     4.7047694096    -1.6194059830
   23      C       0.0212131798     0.3262436048    -1.1215401538
   24      C       0.6133213252     1.5611179050    -1.2070878423
   25      N       2.0626732003     4.1477910440    -1.6715512034
   26      S       0.8568059394     6.3241823078    -1.0801873426
   27      C       3.0540511214     5.0977581999    -1.4235144717
   28      C       2.5655254795     6.4164113993    -1.2954112444
   29      C     -11.6994654739    -0.2538117712     1.4025400070
   30      H     -10.4756255432    -0.5846782787    -0.9304272406
   31      H      -8.2169489727     0.2938687899    -1.6863916566
   32      H      -8.0889408173     2.3527196228     2.0627178590
   33      H      -5.8709345472     0.0016207552    -1.0543153941
   34      H       0.5241161177    -0.6011522650    -0.8792706021
   35      H       1.6834313623     1.7314784141    -1.2219136796
   36      H       4.1188048122     4.9579734593    -1.5561334908
   37      H       3.0939666287     7.3607949987    -1.3072251797
   38      H     -12.4050628264     0.5822442786     1.4743150565
   39      C     -11.6560458912    -1.0324892303     2.7463320871
   40      H     -12.0258287884    -1.0076658892     0.6743093047
   41      H     -11.2152324476    -0.3665510657     3.4978211880
   42      H     -11.0378436158    -1.9318896622     2.6353194311
   43      C     -13.1260948635    -1.4851374820     3.1382460819
   44      H     -13.8346360379    -0.6486574728     3.1729245794
   45      C     -13.1057500274    -2.3667964990     4.4206919738
   46      H     -13.4805559165    -2.1806364963     2.3668969502
   47      H     -12.3812293987    -1.9822451828     5.1493627800
   48      H     -12.7757308687    -3.3437945889     4.0442492994
   49      C     -14.4759966092    -2.6642081024     5.1154377138
   50      H     -14.8253496223    -1.7159454819     5.5414734810
   51      C     -14.3684606513    -3.6521476339     6.2582012500
   52      H     -15.2123193565    -3.1606045306     4.4717161918
   53      H     -13.7412025837    -3.1488840404     7.0040880190
   54      H     -13.9391135050    -4.6263361966     5.9917361072
   55      H     -15.3476506808    -3.7589056417     6.7390896090
   56      C       0.4325733483    -4.1964439580    -2.1582243010
   57      C       1.1455902956    -4.9857100244    -1.2404465994
   58      N       0.9176409911    -3.0013304610    -2.5341965224
   59      C       2.3709381469    -4.5862541848    -0.7770302904
   60      C       2.0636179882    -2.4946177788    -2.0654663444
   61      C       2.8807443370    -3.3144331487    -1.2019101567
   62      C       4.2035475884    -2.8162278172    -0.7092195787
   63      C       4.5758305641    -3.0372876477     0.6718075525
   64      C       5.1343179264    -1.9624937483    -1.4195840751
   65      N       5.6807948814    -2.5179579991     1.2563728386
   66      N       5.0169669040    -1.6239361287    -2.7137206505
   67      C       6.3546114738    -1.4626204929    -0.8247417541
   68      C       6.5579471721    -1.7504376452     0.6038382683
   69      S       6.3520782488    -0.7733739070    -3.1325662116
   70      N       7.1404946114    -0.7260181323    -1.7377163739
   71      C       7.7355548200    -1.1988993062     1.2413142979
   72      S       8.8575386142     0.0241105021     0.5639625620
   73      C       8.1578625835    -1.6066931695     2.4584331573
   74      C       9.8098035841    -0.0028170615     2.0506852442
   75      S       7.6014230391    -2.8585213208     3.5032562587
   76      C       9.2392885615    -0.8988682471     2.9448277842
   77      C      10.9191122427     0.8696373169     2.3017403326
   78      C       8.7719360880    -2.3276840607     4.7424083905
   79      C       9.6520714219    -1.3535104921     4.2464067250
   80      N      11.8037988259     0.5921763121     3.2411540010
   81      S      11.4049602071     1.9397027555     1.0571344864
   82      C      12.8659491959     1.4162583315     3.1499486467
   83      C      12.8493571442     2.2698276324     2.0633442327
   84      C      -0.7781428800    -4.7516613392    -2.8621780452
   85      H       0.7871926637    -5.9706880328    -0.9552861878
   86      H       2.9990491780    -5.3202913822    -0.2816809940
   87      H       2.3622261917    -1.4580414969    -2.2166012270
   88      H       3.9423687147    -3.5224256479     1.4140091465
   89      H       8.8037509893    -2.7915301670     5.7194450335
   90      H      10.4868400335    -0.9135061203     4.7795057007
   91      H      13.6687019972     1.4965181336     3.8708476023
   92      H      13.5329790819     3.0862436503     1.8694088519
   93      H      -0.8825443467    -4.2040006406    -3.8077773752
   94      C      -2.1088273690    -4.3663577321    -2.1135733958
   95      H      -0.6800916523    -5.8135110354    -3.1186662117
   96      H      -2.1134919123    -3.3262635211    -1.7638188044
   97      H      -2.1162183188    -4.8846058141    -1.1472290993
   98      C      -3.3961289248    -4.7308719110    -2.9306022313
   99      H      -4.1769305565    -4.4773661676    -2.2029061065
  100      C      -3.5036214532    -6.1843196021    -3.2109184200
  101      H      -3.5021962200    -4.0645412381    -3.7957300619
  102      H      -3.3999485957    -6.7513296600    -2.2782059601
  103      H      -2.7019708376    -6.5714033469    -3.8520568333
  104      C      -4.8683076749    -6.5503745935    -3.8978771229
  105      H      -5.6524146005    -6.1280923220    -3.2572703695
  106      C      -5.0396715446    -8.0720653843    -4.1680281203
  107      H      -4.9566163148    -6.0596643730    -4.8740323685
  108      H      -5.0559778337    -8.6217034151    -3.2191534500
  109      H      -4.2778966997    -8.5332740622    -4.8085206192
  110      H      -5.9744661857    -8.4050428074    -4.6364894470
 ----------------------------------------------------------------

   10   -5663.5288242463      3.52E-06 Convergence criterion met
 Total energy in the final basis set = -5663.5288242463

                    Orbital Energies (a.u.)
 --------------------------------------------------------------

 Alpha MOs
 -- Occupied --
-88.988 -88.987 -88.926 -88.926 -88.919 -88.919 -88.908 -88.899
-14.389 -14.385 -14.377 -14.376 -14.352 -14.347 -14.343 -14.340
-14.329 -14.327 -10.267 -10.266 -10.264 -10.261 -10.259 -10.259
-10.257 -10.253 -10.243 -10.241 -10.239 -10.236 -10.235 -10.233
-10.232 -10.232 -10.232 -10.232 -10.231 -10.231 -10.228 -10.227
-10.225 -10.222 -10.221 -10.221 -10.220 -10.220 -10.215 -10.212
-10.211 -10.210 -10.205 -10.200 -10.197 -10.197 -10.193 -10.189
-10.186 -10.185 -10.184 -10.184 -10.181 -10.180 -10.179 -10.178
-10.177 -10.176 -10.174 -10.168  -8.043  -8.043  -7.988  -7.984
 -7.982  -7.980  -7.968  -7.958  -6.008  -6.008  -6.002  -6.002
 -6.001  -6.001  -5.952  -5.949  -5.949  -5.946  -5.945  -5.945
 -5.944  -5.942  -5.941  -5.940  -5.939  -5.937  -5.932  -5.928
 -5.924  -5.923  -5.919  -5.915  -1.048  -1.028  -0.978  -0.965
 -0.955  -0.952  -0.950  -0.938  -0.919  -0.914  -0.912  -0.896
 -0.843  -0.842  -0.839  -0.823  -0.809  -0.808  -0.808  -0.805
 -0.804  -0.802  -0.801  -0.796  -0.786  -0.784  -0.768  -0.765
 -0.749  -0.749  -0.738  -0.737  -0.725  -0.721  -0.711  -0.710
 -0.694  -0.692  -0.675  -0.672  -0.653  -0.653  -0.645  -0.639
 -0.637  -0.634  -0.628  -0.626  -0.610  -0.609  -0.595  -0.594
 -0.592  -0.590  -0.589  -0.578  -0.577  -0.576  -0.568  -0.565
 -0.550  -0.550  -0.539  -0.539  -0.527  -0.516  -0.510  -0.509
 -0.508  -0.508  -0.496  -0.494  -0.494  -0.486  -0.480  -0.476
 -0.475  -0.474  -0.472  -0.468  -0.465  -0.461  -0.450  -0.449
 -0.449  -0.441  -0.440  -0.440  -0.434  -0.434  -0.432  -0.429
 -0.428  -0.427  -0.424  -0.422  -0.422  -0.420  -0.415  -0.415
 -0.413  -0.411  -0.408  -0.404  -0.400  -0.399  -0.399  -0.397
 -0.395  -0.392  -0.391  -0.389  -0.388  -0.386  -0.386  -0.383
 -0.379  -0.376  -0.373  -0.371  -0.365  -0.364  -0.355  -0.353
 -0.353  -0.350  -0.347  -0.347  -0.346  -0.343  -0.339  -0.338
 -0.335  -0.332  -0.332  -0.332  -0.328  -0.328  -0.322  -0.320
 -0.317  -0.314  -0.310  -0.308  -0.305  -0.304  -0.301  -0.300
 -0.296  -0.294  -0.290  -0.289  -0.286  -0.283  -0.282  -0.277
 -0.274  -0.273  -0.267  -0.265  -0.251  -0.249  -0.247  -0.246
 -0.245  -0.243  -0.233  -0.226  -0.193  -0.191

          Ground-State Mulliken Net Atomic Charges

     Atom                 Charge (a.u.)
  ----------------------------------------
      1 C                     0.298768
      2 C                    -0.131556
      3 N                    -0.470669
      4 C                    -0.069461
      5 C                     0.095917
      6 C                     0.019742
      7 C                     0.033173
      8 C                     0.049405
      9 C                     0.210261
     10 N                    -0.502000
     11 N                    -0.514731
     12 C                     0.181025
     13 C                     0.283888
     14 S                     0.600857
     15 N                    -0.549450
     16 C                    -0.206171
     17 S                     0.311327
     18 C                    -0.126598
     19 C                    -0.247105
     20 S                     0.266217
     21 C                     0.195202
     22 C                     0.064383
     23 C                    -0.292479
     24 C                    -0.061743
     25 N                    -0.450567
     26 S                     0.273417
     27 C                     0.103984
     28 C                    -0.303374
     29 C                    -0.225075
     30 H                     0.082737
     31 H                     0.102285
     32 H                     0.102866
     33 H                     0.114533
     34 H                     0.125733
     35 H                     0.127195
     36 H                     0.116691
     37 H                     0.138699
     38 H                     0.119846
     39 C                    -0.185078
     40 H                     0.095766
     41 H                     0.120616
     42 H                     0.093504
     43 C                    -0.181314
     44 H                     0.091752
     45 C                    -0.171514
     46 H                     0.090249
     47 H                     0.092202
     48 H                     0.088661
     49 C                    -0.180454
     50 H                     0.094166
     51 C                    -0.312574
     52 H                     0.091649
     53 H                     0.098076
     54 H                     0.101193
     55 H                     0.098471
     56 C                     0.276606
     57 C                    -0.116350
     58 N                    -0.484796
     59 C                    -0.072721
     60 C                     0.100315
     61 C                     0.008050
     62 C                     0.032298
     63 C                     0.047305
     64 C                     0.203437
     65 N                    -0.525378
     66 N                    -0.555220
     67 C                     0.171259
     68 C                     0.318703
     69 S                     0.615957
     70 N                    -0.552092
     71 C                    -0.216072
     72 S                     0.334625
     73 C                    -0.105516
     74 C                    -0.236061
     75 S                     0.283343
     76 C                     0.145769
     77 C                     0.068840
     78 C                    -0.315767
     79 C                    -0.054151
     80 N                    -0.433671
     81 S                     0.262208
     82 C                     0.139791
     83 C                    -0.313061
     84 C                    -0.225721
     85 H                     0.088272
     86 H                     0.107330
     87 H                     0.126009
     88 H                     0.119007
     89 H                     0.129827
     90 H                     0.126314
     91 H                     0.117689
     92 H                     0.131050
     93 H                     0.123929
     94 C                    -0.198913
     95 H                     0.106509
     96 H                     0.112864
     97 H                     0.088244
     98 C                    -0.176492
     99 H                     0.092379
    100 C                    -0.161559
    101 H                     0.101801
    102 H                     0.090728
    103 H                     0.092930
    104 C                    -0.177387
    105 H                     0.093072
    106 C                    -0.328086
    107 H                     0.097177
    108 H                     0.100005
    109 H                     0.103540
    110 H                     0.099298
  ----------------------------------------
  Sum of atomic charges =     0.000000

                    Cartesian Multipole Moments
 -----------------------------------------------------------------
    Charge (ESU x 10^10)
                 0.0000
    Dipole Moment (Debye)
         X       1.5948      Y      -0.0090      Z       0.3124
       Tot       1.6251
    Quadrupole Moments (Debye-Ang)
        XX    -394.7432     XY      36.8535     YY    -408.3507
        XZ      15.2455     YZ       0.2025     ZZ    -450.2708

 Total job time:  86.18s(wall), 1006.77s(cpu)
        *  Thank you very much for using Q-Chem.  Have a nice day.  *
