 Q-Chem 4.4, Q-Chem, Inc., Pleasanton, CA (2016)
 Q-Chem 4.4.2 for Intel X86 Linux

User input:
--------------------------------------------------------------
$comment
SP
$end

$rem
MEM_STATIC 5000
MEM_TOTAL 20000
JOBTYPE SP
EXCHANGE B3LYP
BASIS 6-31g(d,p)
$end

$molecule
0 1
C           2.497000     10.730000     -2.650000
C           3.576000     10.688000     -1.715000
N           1.790000      9.592000     -2.954000
C           3.907000      9.486000     -1.091000
C           2.103000      8.418000     -2.303000
C           3.197000      8.306000     -1.384000
C           3.570000      7.025000     -0.682000
C           4.881000      6.645000     -0.533000
C           2.518000      6.111000     -0.170000
N           5.224000      5.581000      0.198000
N           1.184000      6.291000     -0.260000
C           2.908000      4.940000      0.521000
C           4.332000      4.702000      0.722000
S           0.512000      4.992000      0.420000
N           1.835000      4.186000      0.999000
C           4.821000      3.479000      1.383000
S           4.064000      1.896000      1.345000
C           6.150000      3.377000      1.894000
C           5.444000      1.202000      2.172000
S           7.393000      4.557000      2.207000
C           6.416000      2.147000      2.315000
C           5.439000     -0.045000      2.870000
C           8.293000      3.275000      2.906000
C           7.653000      2.056000      2.981000
N           4.444000     -0.895000      2.467000
S           6.327000     -0.445000      4.246000
C           4.521000     -2.013000      3.290000
C           5.341000     -1.870000      4.337000
C           2.046000     11.990000     -3.414000
H           4.295000     11.494000     -1.604000
H           4.768000      9.399000     -0.435000
H           1.614000      7.500000     -2.626000
H           5.640000      7.268000     -1.004000
H           9.278000      3.591000      3.225000
H           8.098000      1.197000      3.470000
H           3.847000     -2.843000      3.127000
H           5.382000     -2.480000      5.230000
H           1.370000     11.707000     -4.230000
C           3.153000     12.746000     -4.173000
H           1.506000     12.652000     -2.725000
H           4.017000     13.031000     -3.559000
H           2.694000     13.707000     -4.437000
C           3.679000     12.095000     -5.417000
H           4.012000     11.066000     -5.238000
C           4.825000     12.930000     -6.101000
H           2.821000     12.061000     -6.099000
H           5.654000     13.001000     -5.386000
H           4.496000     13.945000     -6.355000
C           5.273000     12.201000     -7.458000
H           6.205000     12.702000     -7.749000
C           4.266000     12.385000     -8.641000
H           5.586000     11.165000     -7.281000
H           3.355000     11.786000     -8.523000
H           4.701000     12.120000     -9.612000
H           4.013000     13.452000     -8.629000
C           5.824000     14.701000      8.016000
C           5.599000     13.326000      7.836000
N           6.217000     15.458000      6.978000
C           5.703000     12.756000      6.595000
C           6.427000     14.968000      5.751000
C           6.108000     13.583000      5.495000
C           6.261000     13.009000      4.121000
C           6.842000     11.693000      3.962000
C           6.044000     13.691000      2.861000
N           7.149000     11.134000      2.768000
N           5.502000     14.914000      2.744000
C           6.301000     13.074000      1.578000
C           6.930000     11.744000      1.600000
S           5.315000     15.229000      1.148000
N           5.931000     13.901000      0.495000
C           7.265000     11.136000      0.329000
S           7.248000     11.922000     -1.282000
C           7.597000      9.831000      0.216000
C           7.810000     10.427000     -2.035000
S           7.614000      8.550000      1.368000
C           7.979000      9.456000     -1.057000
C           8.145000     10.312000     -3.424000
C           8.317000      7.467000      0.135000
C           8.336000      8.064000     -1.135000
N           8.217000      9.132000     -4.011000
S           7.905000     11.676000     -4.430000
C           8.321000      9.273000     -5.347000
C           8.222000     10.573000     -5.805000
C           5.457000     15.370000      9.315000
H           5.244000     12.707000      8.655000
H           5.281000     11.767000      6.445000
H           6.924000     15.531000      4.962000
H           7.218000     11.079000      4.780000
H           8.606000      6.453000      0.378000
H           8.658000      7.596000     -2.058000
H           8.529000      8.480000     -6.053000
H           8.398000     10.920000     -6.815000
H           5.272000     16.429000      9.093000
C           6.690000     15.452000     10.291000
H           4.537000     14.973000      9.761000
H           7.619000     15.733000      9.779000
H           6.950000     14.431000     10.595000
C           6.410000     16.336000     11.555000
H           7.334000     16.175000     12.124000
C           5.286000     15.821000     12.376000
H           6.357000     17.396000     11.277000
H           5.450000     14.762000     12.608000
H           4.318000     15.837000     11.860000
C           5.116000     16.630000     13.712000
H           6.101000     16.627000     14.195000
C           3.976000     16.093000     14.623000
H           4.867000     17.677000     13.504000
H           4.207000     15.072000     14.950000
H           2.973000     16.083000     14.179000
H           3.805000     16.602000     15.580000
$end

--------------------------------------------------------------

             Standard Nuclear Orientation (Angstroms)
    I     Atom           X                Y                Z
 ----------------------------------------------------------------
    1      C       1.2839131749     4.1324025599    -2.9871463360
    2      C       0.6949674618     3.3775560217    -1.9271559347
    3      N       2.4113619172     3.6778868917    -3.6271337116
    4      C       1.2574280188     2.1598937814    -1.5467905968
    5      C       2.9362342699     2.4553111076    -3.2667679731
    6      C       2.4118354304     1.6712287938    -2.1878046825
    7      C       2.9878607230     0.3443420942    -1.7629981989
    8      C       3.1292678444     0.0159326496    -0.4373009247
    9      C       3.4637386203    -0.6309841785    -2.7761728575
   10      N       3.5167228972    -1.2036479753    -0.0544070993
   11      N       3.4471882932    -0.4705995396    -4.1155976796
   12      C       3.9579227597    -1.8824983755    -2.3399203492
   13      C       3.9488188686    -2.1650406727    -0.9099175627
   14      S       4.1075573654    -1.8064302970    -4.7327312762
   15      N       4.3280957772    -2.7345210943    -3.3817256208
   16      C       4.4971031005    -3.4225126006    -0.3714755959
   17      S       5.8210594563    -4.3583080537    -1.0436425676
   18      C       4.1979938839    -3.8716711637     0.9500978079
   19      C       5.7998236984    -5.4157722381     0.3532409426
   20      S       3.0025808583    -3.3909827992     2.1228485889
   21      C       4.9086726915    -4.9453027997     1.2712640308
   22      C       6.3717282601    -6.7246166483     0.3989517980
   23      C       3.5525905773    -4.7081966942     3.0739331614
   24      C       4.5123446378    -5.5128143549     2.4971762253
   25      N       7.3452883297    -6.9307834838    -0.5415852968
   26      S       5.8121835668    -8.0499399079     1.2777851120
   27      C       7.7346956107    -8.2602822933    -0.4233614197
   28      C       6.9450390877    -8.9967408648     0.3660240047
   29      C       0.7662221692     5.4949009648    -3.4874373704
   30      H      -0.0525165064     3.7859236135    -1.2537900407
   31      H       0.8843658573     1.5971450849    -0.6962822029
   32      H       3.8881991006     2.1519004504    -3.7002180095
   33      H       2.8761915739     0.7786639561     0.2977122421
   34      H       3.0552411676    -4.7572686906     4.0341818291
   35      H       4.8770162312    -6.4142315672     2.9762259495
   36      H       8.5301920207    -8.6409825594    -1.0494586717
   37      H       6.8898692146   -10.0762057988     0.4202618273
   38      H       1.5202005744     5.9648528156    -4.1305414230
   39      C       0.5620450168     6.5727339577    -2.4059320631
   40      H      -0.1467920258     5.3366317005    -4.0755877931
   41      H      -0.0819354957     6.2678941869    -1.5710196043
   42      H      -0.0187174478     7.3560265750    -2.9089883575
   43      C       1.8017120303     7.1800366774    -1.8207636237
   44      H       2.4946918207     6.4216323100    -1.4381766067
   45      C       1.4873169897     8.2462894769    -0.7060180357
   46      H       2.2865940765     7.6905846966    -2.6614027384
   47      H       0.9546630887     7.7313066996     0.1030428773
   48      H       0.8504854098     9.0561216056    -1.0823150754
   49      C       2.8614368008     8.8954968394    -0.1922880042
   50      H       2.5875324169     9.4436839372     0.7180818625
   51      C       3.4829887092     9.9348449326    -1.1826529704
   52      H       3.5622800912     8.1341662697     0.1707387800
   53      H       3.9380657841     9.4658301106    -2.0633208719
   54      H       4.2557644356    10.5558843072    -0.7142313954
   55      H       2.6402525263    10.5650444267    -1.4913377994
   56      C      -8.4886084423    -1.9288000784    -0.0956121725
   57      C      -7.2734726499    -2.6179394993    -0.2445479461
   58      N      -8.4865772582    -0.6385443822     0.2787915035
   59      C      -6.0771655595    -1.9704873974    -0.0850107370
   60      C      -7.3681415328     0.0475799717     0.5396820916
   61      C      -6.0941160199    -0.5883876180     0.2990034318
   62      C      -4.8170915506     0.1634514031     0.5104451287
   63      C      -3.7053494069    -0.4947928221     1.1627042380
   64      C      -4.5883798023     1.5763895822     0.2843707200
   65      N      -2.5571614505     0.1248484200     1.5233635618
   66      N      -5.4618006093     2.3992327868    -0.3183291675
   67      C      -3.3376492076     2.2312773739     0.6000001862
   68      C      -2.3265083680     1.4209610473     1.2971419604
   69      S      -4.7400201274     3.8592235524    -0.4882406157
   70      N      -3.3227613196     3.5882264423     0.2098904880
   71      C      -1.0944126601     2.0728740343     1.6899264104
   72      S      -0.7476956536     3.8314508095     1.6654102313
   73      C      -0.0056393992     1.3808549070     2.0920461857
   74      C       0.8657103343     3.5386701924     2.3204511676
   75      S       0.3183837334    -0.3102288482     2.1520357069
   76      C       1.0396617390     2.1755983841     2.5196047619
   77      C       1.7765706016     4.5820370115     2.6898970424
   78      C       1.8856405131     0.0303912507     2.9363004165
   79      C       2.1752179371     1.4035675193     2.9505078424
   80      N       3.0657818041     4.3395328553     2.8357709938
   81      S       1.3105638893     6.2034118870     2.3998741862
   82      C       3.7534758667     5.4915817366     2.9600821006
   83      C       3.0003234374     6.6394388125     2.8027590207
   84      C      -9.7844001798    -2.5667297957    -0.5241217393
   85      H      -7.2553535934    -3.6497421062    -0.5836675124
   86      H      -5.1766430259    -2.4536851696    -0.4514586589
   87      H      -7.3674902047     1.0238059707     1.0228811962
   88      H      -3.7303062088    -1.5118470823     1.5531831617
   89      H       2.5304811590    -0.7706636836     3.2728379829
   90      H       3.0867585882     1.8621987514     3.3157311088
   91      H       4.7990356013     5.5794301426     3.2239693853
   92      H       3.3235812180     7.6568297682     2.9813788694
   93      H     -10.4833673551    -1.7537249958    -0.7596171386
   94      C     -10.5051244283    -3.2771800267     0.6822803607
   95      H      -9.6873827070    -3.1756217928    -1.4311846620
   96      H     -10.4705086934    -2.6854835369     1.6057753607
   97      H      -9.8899185296    -4.1315378194     0.9889584723
   98      C     -11.9556586415    -3.7562202195     0.3301113813
   99      H     -12.2207862943    -4.2932772630     1.2492060770
  100      C     -11.9797576404    -4.7383944764    -0.7822711822
  101      H     -12.6288241661    -2.8959780919     0.2275216240
  102      H     -11.2856796797    -5.5596883428    -0.5679509323
  103      H     -11.6287901952    -4.3317185359    -1.7388131477
  104      C     -13.4199859175    -5.3184443780    -1.0221912132
  105      H     -13.7623255235    -5.6907078975    -0.0486685035
  106      C     -13.4799730443    -6.3859014571    -2.1512735526
  107      H     -14.1143679603    -4.5247995792    -1.3212489199
  108      H     -12.8770604867    -7.2590353913    -1.8740289300
  109      H     -13.1498247808    -6.0528502725    -3.1429005150
  110      H     -14.4528476423    -6.8446597192    -2.3685910015
 ----------------------------------------------------------------

    9   -5663.5254707961      9.63E-06 Convergence criterion met
 Total energy in the final basis set = -5663.5254707961

                    Orbital Energies (a.u.)
 --------------------------------------------------------------

 Alpha MOs
 -- Occupied --
-88.991 -88.984 -88.931 -88.931 -88.929 -88.926 -88.914 -88.911
-14.392 -14.386 -14.380 -14.379 -14.350 -14.345 -14.344 -14.339
-14.329 -14.326 -10.269 -10.267 -10.264 -10.263 -10.263 -10.262
-10.256 -10.254 -10.245 -10.243 -10.240 -10.238 -10.234 -10.234
-10.233 -10.232 -10.232 -10.230 -10.230 -10.228 -10.226 -10.226
-10.225 -10.223 -10.223 -10.222 -10.221 -10.220 -10.220 -10.211
-10.209 -10.208 -10.202 -10.201 -10.199 -10.198 -10.196 -10.193
-10.187 -10.186 -10.185 -10.184 -10.183 -10.183 -10.181 -10.179
-10.176 -10.175 -10.175 -10.172  -8.046  -8.039  -7.993  -7.990
 -7.989  -7.984  -7.975  -7.970  -6.011  -6.005  -6.004  -6.004
 -5.999  -5.997  -5.957  -5.954  -5.954  -5.953  -5.951  -5.950
 -5.950  -5.948  -5.947  -5.946  -5.945  -5.941  -5.939  -5.935
 -5.935  -5.931  -5.931  -5.927  -1.031  -1.027  -0.980  -0.963
 -0.955  -0.948  -0.938  -0.923  -0.918  -0.915  -0.899  -0.893
 -0.855  -0.846  -0.825  -0.821  -0.812  -0.812  -0.809  -0.804
 -0.801  -0.801  -0.797  -0.789  -0.785  -0.771  -0.767  -0.763
 -0.752  -0.751  -0.740  -0.739  -0.729  -0.728  -0.712  -0.707
 -0.694  -0.692  -0.674  -0.669  -0.655  -0.648  -0.641  -0.637
 -0.634  -0.631  -0.627  -0.616  -0.612  -0.605  -0.597  -0.596
 -0.595  -0.593  -0.590  -0.580  -0.579  -0.570  -0.569  -0.563
 -0.552  -0.547  -0.542  -0.538  -0.521  -0.519  -0.518  -0.510
 -0.510  -0.498  -0.497  -0.497  -0.488  -0.479  -0.477  -0.475
 -0.472  -0.467  -0.466  -0.464  -0.459  -0.457  -0.451  -0.445
 -0.444  -0.443  -0.441  -0.438  -0.435  -0.434  -0.432  -0.429
 -0.429  -0.427  -0.424  -0.424  -0.421  -0.417  -0.416  -0.415
 -0.409  -0.408  -0.407  -0.402  -0.401  -0.400  -0.396  -0.395
 -0.394  -0.391  -0.390  -0.390  -0.388  -0.385  -0.382  -0.380
 -0.379  -0.377  -0.376  -0.374  -0.369  -0.363  -0.360  -0.356
 -0.355  -0.355  -0.352  -0.349  -0.349  -0.344  -0.341  -0.337
 -0.336  -0.335  -0.333  -0.332  -0.331  -0.329  -0.324  -0.321
 -0.318  -0.313  -0.310  -0.310  -0.306  -0.303  -0.301  -0.298
 -0.294  -0.293  -0.292  -0.290  -0.287  -0.284  -0.282  -0.277
 -0.275  -0.269  -0.266  -0.262  -0.257  -0.254  -0.251  -0.247
 -0.246  -0.241  -0.231  -0.228  -0.194  -0.190

          Ground-State Mulliken Net Atomic Charges

     Atom                 Charge (a.u.)
  ----------------------------------------
      1 C                     0.264794
      2 C                    -0.127304
      3 N                    -0.492605
      4 C                    -0.081720
      5 C                     0.094789
      6 C                     0.027330
      7 C                     0.022761
      8 C                     0.078028
      9 C                     0.228162
     10 N                    -0.535409
     11 N                    -0.540824
     12 C                     0.174766
     13 C                     0.287195
     14 S                     0.607060
     15 N                    -0.553249
     16 C                    -0.230629
     17 S                     0.368328
     18 C                    -0.107462
     19 C                    -0.211365
     20 S                     0.285137
     21 C                     0.155089
     22 C                     0.040859
     23 C                    -0.319829
     24 C                    -0.083126
     25 N                    -0.443140
     26 S                     0.293244
     27 C                     0.130053
     28 C                    -0.311359
     29 C                    -0.227690
     30 H                     0.109405
     31 H                     0.109175
     32 H                     0.109521
     33 H                     0.129044
     34 H                     0.129203
     35 H                     0.117341
     36 H                     0.114313
     37 H                     0.128852
     38 H                     0.119708
     39 C                    -0.188585
     40 H                     0.111140
     41 H                     0.088712
     42 H                     0.089004
     43 C                    -0.162608
     44 H                     0.105222
     45 C                    -0.187243
     46 H                     0.093889
     47 H                     0.095845
     48 H                     0.089805
     49 C                    -0.189197
     50 H                     0.079985
     51 C                    -0.315675
     52 H                     0.097759
     53 H                     0.111470
     54 H                     0.101477
     55 H                     0.103890
     56 C                     0.280855
     57 C                    -0.116541
     58 N                    -0.488071
     59 C                    -0.073158
     60 C                     0.112654
     61 C                     0.007066
     62 C                     0.034635
     63 C                     0.047062
     64 C                     0.204020
     65 N                    -0.523946
     66 N                    -0.554493
     67 C                     0.171380
     68 C                     0.319370
     69 S                     0.616154
     70 N                    -0.556976
     71 C                    -0.219605
     72 S                     0.328007
     73 C                    -0.123131
     74 C                    -0.235184
     75 S                     0.284780
     76 C                     0.154008
     77 C                     0.070274
     78 C                    -0.298554
     79 C                    -0.078450
     80 N                    -0.435458
     81 S                     0.266462
     82 C                     0.138592
     83 C                    -0.311190
     84 C                    -0.226794
     85 H                     0.087881
     86 H                     0.107674
     87 H                     0.119913
     88 H                     0.120094
     89 H                     0.144503
     90 H                     0.129308
     91 H                     0.120248
     92 H                     0.135298
     93 H                     0.121794
     94 C                    -0.193934
     95 H                     0.107239
     96 H                     0.106100
     97 H                     0.089320
     98 C                    -0.177565
     99 H                     0.093819
    100 C                    -0.161937
    101 H                     0.099743
    102 H                     0.091145
    103 H                     0.093065
    104 C                    -0.177397
    105 H                     0.094322
    106 C                    -0.328246
    107 H                     0.096999
    108 H                     0.100132
    109 H                     0.103453
    110 H                     0.099922
  ----------------------------------------
  Sum of atomic charges =     0.000000

                    Cartesian Multipole Moments
 -----------------------------------------------------------------
    Charge (ESU x 10^10)
                 0.0000
    Dipole Moment (Debye)
         X      -0.8149      Y      -1.7675      Z       2.6716
       Tot       3.3054
    Quadrupole Moments (Debye-Ang)
        XX    -446.6721     XY       5.1457     YY    -382.8049
        XZ      16.6594     YZ       2.3997     ZZ    -446.0690

 Total job time:  86.75s(wall), 1043.70s(cpu)
        *  Thank you very much for using Q-Chem.  Have a nice day.  *
