 Q-Chem 4.4, Q-Chem, Inc., Pleasanton, CA (2016)
 Q-Chem 4.4.2 for Intel X86 Linux

User input:
--------------------------------------------------------------
$comment
SP
$end

$rem
MEM_STATIC 5000
MEM_TOTAL 20000
JOBTYPE SP
EXCHANGE B3LYP
BASIS 6-31g(d,p)
$end

$molecule
0 1
C          10.942000     11.080000      8.477000
C          11.815000     10.405000      7.598000
N          10.163000     12.014000      7.990000
C          11.744000     10.673000      6.167000
C          10.071000     12.263000      6.677000
C          10.866000     11.656000      5.712000
C          10.729000     12.013000      4.230000
C          10.469000     13.373000      3.791000
C          10.792000     10.989000      3.234000
N          10.355000     13.701000      2.516000
N          11.098000      9.717000      3.491000
C          10.731000     11.368000      1.865000
C          10.363000     12.734000      1.585000
S          11.238000      9.061000      2.034000
N          10.893000     10.321000      1.033000
C          10.191000     13.160000      0.214000
S          10.592000     12.304000     -1.286000
C           9.631000     14.347000     -0.165000
C          10.304000     13.711000     -2.378000
S           8.922000     15.641000      0.800000
C           9.754000     14.677000     -1.534000
C          10.524000     13.757000     -3.759000
C           8.814000     16.654000     -0.686000
C           9.401000     15.985000     -1.722000
N          11.371000     12.850000     -4.246000
S           9.886000     14.907000     -4.906000
C          11.475000     12.947000     -5.604000
C          10.833000     14.089000     -6.140000
C          10.964000     10.879000      9.986000
H          12.460000      9.633000      8.008000
H          12.464000     10.197000      5.508000
H           9.389000     13.072000      6.419000
H          10.310000     14.256000      4.409000
H           8.571000     17.692000     -0.503000
H           9.545000     16.525000     -2.650000
H          12.166000     12.290000     -6.116000
H          10.817000     14.470000     -7.152000
H           9.929000     10.972000     10.337000
C          11.766000     11.862000     10.910000
H          11.282000      9.864000     10.254000
H          12.764000     12.047000     10.496000
H          11.859000     11.357000     11.879000
C          11.183000     13.264000     11.010000
H          11.178000     13.742000     10.022000
C          11.973000     14.190000     11.958000
H          10.135000     13.192000     11.324000
H          12.947000     14.420000     11.510000
H          12.100000     13.748000     12.954000
C          11.203000     15.503000     12.116000
H          11.468000     16.054000     11.205000
C          11.557000     16.303000     13.345000
H          10.112000     15.400000     12.172000
H          11.351000     15.680000     14.224000
H          10.904000     17.176000     13.466000
H          12.604000     16.592000     13.494000
C           5.824000     14.701000      8.016000
C           5.599000     13.326000      7.836000
N           6.217000     15.458000      6.978000
C           5.703000     12.756000      6.595000
C           6.427000     14.968000      5.751000
C           6.108000     13.583000      5.495000
C           6.261000     13.009000      4.121000
C           6.842000     11.693000      3.962000
C           6.044000     13.691000      2.861000
N           7.149000     11.134000      2.768000
N           5.502000     14.914000      2.744000
C           6.301000     13.074000      1.578000
C           6.930000     11.744000      1.600000
S           5.315000     15.229000      1.148000
N           5.931000     13.901000      0.495000
C           7.265000     11.136000      0.329000
S           7.248000     11.922000     -1.282000
C           7.597000      9.831000      0.216000
C           7.810000     10.427000     -2.035000
S           7.614000      8.550000      1.368000
C           7.979000      9.456000     -1.057000
C           8.145000     10.312000     -3.424000
C           8.317000      7.467000      0.135000
C           8.336000      8.064000     -1.135000
N           8.217000      9.132000     -4.011000
S           7.905000     11.676000     -4.430000
C           8.321000      9.273000     -5.347000
C           8.222000     10.573000     -5.805000
C           5.457000     15.370000      9.315000
H           5.244000     12.707000      8.655000
H           5.281000     11.767000      6.445000
H           6.924000     15.531000      4.962000
H           7.218000     11.079000      4.780000
H           8.606000      6.453000      0.378000
H           8.658000      7.596000     -2.058000
H           8.529000      8.480000     -6.053000
H           8.398000     10.920000     -6.815000
H           5.272000     16.429000      9.093000
C           6.690000     15.452000     10.291000
H           4.537000     14.973000      9.761000
H           7.619000     15.733000      9.779000
H           6.950000     14.431000     10.595000
C           6.410000     16.336000     11.555000
H           7.334000     16.175000     12.124000
C           5.286000     15.821000     12.376000
H           6.357000     17.396000     11.277000
H           5.450000     14.762000     12.608000
H           4.318000     15.837000     11.860000
C           5.116000     16.630000     13.712000
H           6.101000     16.627000     14.195000
C           3.976000     16.093000     14.623000
H           4.867000     17.677000     13.504000
H           4.207000     15.072000     14.950000
H           2.973000     16.083000     14.179000
H           3.805000     16.602000     15.580000
$end

--------------------------------------------------------------

             Standard Nuclear Orientation (Angstroms)
    I     Atom           X                Y                Z
 ----------------------------------------------------------------
    1      C       5.0502824861     3.7127716610     0.0840243336
    2      C       4.0100667040     4.6362040943     0.3198604374
    3      N       4.7885843777     2.4339159750     0.1954165886
    4      C       2.6568207129     4.1499935913     0.5585037576
    5      C       3.5492501444     1.9671907306     0.3970405066
    6      C       2.4417526743     2.7741562406     0.6293227048
    7      C       1.0585138121     2.1709325433     0.8848876104
    8      C       0.8849144944     0.9552144486     1.6606541933
    9      C      -0.1047134564     2.7652707665     0.3033161200
   10      N      -0.3016875338     0.4241490981     1.8976145698
   11      N      -0.0973365462     3.9187812427    -0.3652855269
   12      C      -1.3781194964     2.2182076204     0.6206203456
   13      C      -1.3873731101     0.9517471708     1.3103828412
   14      S      -1.6533464929     4.2258874682    -0.6046676733
   15      N      -2.3909026338     2.9251292259     0.0828386424
   16      C      -2.6470983840     0.2949920296     1.5795777868
   17      S      -4.2979356410     0.9150053499     1.3955755212
   18      C      -2.7725094731    -0.9937806918     2.0149476656
   19      C      -5.1026500857    -0.4663440671     2.2318562459
   20      S      -1.5492993056    -2.2273667453     2.3155542770
   21      C      -4.0667406657    -1.3800215129     2.4320491497
   22      C      -6.4652649571    -0.5874000384     2.5256302476
   23      C      -2.8224626710    -3.2750829797     3.0417599898
   24      C      -3.9968875912    -2.5792486340     3.0861071440
   25      N      -7.1597985632     0.5501476964     2.5545304414
   26      S      -7.3462632066    -2.0366564693     2.9363015050
   27      C      -8.4831442329     0.3174774983     2.7974498054
   28      C      -8.7652654664    -1.0229413106     3.1542537102
   29      C       6.4952070450     4.1315421552    -0.1500489293
   30      H       4.2336349579     5.6953053663     0.2280414229
   31      H       1.8779353918     4.8659777685     0.8033737530
   32      H       3.4839366544     0.8829132769     0.4760693071
   33      H       1.6583624932     0.3291719203     2.1042113440
   34      H      -2.4432577595    -4.1437067724     3.5629877153
   35      H      -4.8223189563    -3.0230701091     3.6294353686
   36      H      -9.1477365517     1.1669962618     2.8863819159
   37      H      -9.6907054268    -1.4786657964     3.4789644624
   38      H       6.9247729280     3.4168544586    -0.8626285027
   39      C       7.5232870570     4.1469188517     1.0357352189
   40      H       6.5580071750     5.1135312751    -0.6347411121
   41      H       7.0834243209     4.6288083384     1.9166031409
   42      H       8.3794960063     4.7356434181     0.6851006228
   43      C       7.9077862041     2.7734439622     1.5660371458
   44      H       7.0223286401     2.2608605227     1.9633734264
   45      C       8.9501562078     2.8250417252     2.7022952354
   46      H       8.2727191988     2.1600550166     0.7337740198
   47      H       8.4864429582     3.2527697884     3.5991222678
   48      H       9.8417647614     3.3972333987     2.4174446151
   49      C       9.3882513110     1.3962862575     3.0317849835
   50      H       8.5734576855     1.0306185116     3.6690803997
   51      C      10.7131381867     1.2866528310     3.7448153323
   52      H       9.4971833394     0.7305917698     2.1663309627
   53      H      11.4798823032     1.7381275809     3.1033482560
   54      H      11.0294095618     0.2427311734     3.8604829162
   55      H      10.8413015338     1.8262396793     4.6905167597
   56      C       5.5758371856    -2.4365415188    -1.1108922636
   57      C       5.1709724055    -1.6501467009    -2.2023672748
   58      N       4.6642630231    -2.8820533849    -0.2302710491
   59      C       3.8446603832    -1.3910706658    -2.4250172859
   60      C       3.3588273778    -2.6044026958    -0.3223409732
   61      C       2.8837759424    -1.8885803981    -1.4831366365
   62      C       1.4229058487    -1.6161303786    -1.6631104016
   63      C       0.9957955929    -0.3150439015    -2.1315640369
   64      C       0.3203999874    -2.4654541061    -1.2594483750
   65      N      -0.2958394865     0.0836223937    -2.2030483478
   66      N       0.4574546130    -3.7219070195    -0.8058801815
   67      C      -1.0655796582    -2.0755105537    -1.4002725488
   68      C      -1.3205885172    -0.7002308357    -1.8570013294
   69      S      -1.0418524597    -4.3494970335    -0.6068347694
   70      N      -1.9585250545    -3.1015678593    -1.0213623684
   71      C      -2.6983508033    -0.2610760868    -1.9360215134
   72      S      -4.1403991725    -1.1076024300    -1.2900372636
   73      C      -3.0618791161     0.8694458132    -2.5808357497
   74      C      -5.1812155768     0.2039993840    -1.8506439833
   75      S      -2.1580579454     1.9862835313    -3.5316957831
   76      C      -4.4035399782     1.1757926174    -2.4660500076
   77      C      -6.5877409379     0.2742247551    -1.5832008939
   78      C      -3.6067723722     3.0201496165    -3.6721750599
   79      C      -4.7497236428     2.3910224004    -3.1549407427
   80      N      -7.3774757253     1.0559086107    -2.2955507487
   81      S      -7.3187723135    -1.0289027388    -0.7479860339
   82      C      -8.6714413220     0.7959514703    -2.0241316638
   83      C      -8.8849475446    -0.2702363867    -1.1713576336
   84      C       6.9939917341    -2.9359048960    -1.0153679526
   85      H       5.8893531255    -1.3140853784    -2.9446198792
   86      H       3.5504925026    -1.0074178124    -3.3971184875
   87      H       2.6506228439    -2.7982964449     0.4822400060
   88      H       1.6657428056     0.5186294472    -2.3405029749
   89      H      -3.5664289919     3.9772095758    -4.1753396910
   90      H      -5.7601372839     2.7826351715    -3.1733991126
   91      H      -9.5186449519     1.3767264214    -2.3639779021
   92      H      -9.8271269158    -0.5699080248    -0.7309260932
   93      H       6.9753464323    -3.8498088326    -0.4075670416
   94      C       7.8854244008    -1.9790703807    -0.1382108908
   95      H       7.4226599050    -3.2089041667    -1.9872938744
   96      H       7.3708482611    -1.6293475312     0.7656980234
   97      H       7.9863527647    -1.0263754574    -0.6717301955
   98      C       9.3014474312    -2.5768076372     0.1702383754
   99      H       9.7706812855    -1.7306826402     0.6872974431
  100      C      10.0910176200    -2.8412909630    -1.0582849200
  101      H       9.2192565468    -3.4106012991     0.8785644217
  102      H      10.1208718750    -1.9400551691    -1.6820507152
  103      H       9.6511183996    -3.6059109448    -1.7104972775
  104      C      11.5572209232    -3.2980949347    -0.7268411011
  105      H      11.9658859850    -2.5367263317    -0.0509463477
  106      C      12.4323450245    -3.5423977060    -1.9887301467
  107      H      11.5544354597    -4.2449808571    -0.1746877789
  108      H      12.5577778307    -2.6056035764    -2.5449804229
  109      H      12.0608724806    -4.3001605390    -2.6894787735
  110      H      13.4734086993    -3.8535407595    -1.8352784436
 ----------------------------------------------------------------

   10   -5663.5280045994      3.31E-06 Convergence criterion met
 Total energy in the final basis set = -5663.5280045994

                    Orbital Energies (a.u.)
 --------------------------------------------------------------

 Alpha MOs
 -- Occupied --
-88.984 -88.982 -88.933 -88.922 -88.921 -88.916 -88.906 -88.903
-14.385 -14.383 -14.380 -14.370 -14.346 -14.344 -14.341 -14.339
-14.324 -14.318 -10.266 -10.262 -10.260 -10.259 -10.256 -10.254
-10.252 -10.252 -10.239 -10.239 -10.239 -10.237 -10.236 -10.235
-10.234 -10.232 -10.228 -10.228 -10.227 -10.227 -10.227 -10.226
-10.225 -10.224 -10.224 -10.223 -10.220 -10.219 -10.215 -10.211
-10.210 -10.205 -10.205 -10.201 -10.199 -10.197 -10.196 -10.192
-10.184 -10.182 -10.182 -10.180 -10.180 -10.177 -10.176 -10.172
-10.172 -10.171 -10.168 -10.166  -8.039  -8.037  -7.993  -7.983
 -7.979  -7.974  -7.966  -7.963  -6.004  -6.003  -5.998  -5.997
 -5.997  -5.995  -5.957  -5.954  -5.950  -5.947  -5.943  -5.943
 -5.940  -5.940  -5.939  -5.935  -5.935  -5.931  -5.931  -5.927
 -5.927  -5.924  -5.922  -5.919  -1.040  -1.022  -0.973  -0.968
 -0.961  -0.949  -0.941  -0.933  -0.912  -0.910  -0.907  -0.890
 -0.841  -0.838  -0.826  -0.818  -0.809  -0.805  -0.805  -0.804
 -0.803  -0.797  -0.791  -0.791  -0.780  -0.778  -0.763  -0.761
 -0.749  -0.745  -0.740  -0.735  -0.722  -0.716  -0.707  -0.707
 -0.692  -0.688  -0.674  -0.667  -0.650  -0.650  -0.645  -0.634
 -0.632  -0.630  -0.625  -0.621  -0.609  -0.606  -0.601  -0.593
 -0.591  -0.590  -0.586  -0.576  -0.573  -0.571  -0.566  -0.564
 -0.546  -0.546  -0.538  -0.535  -0.519  -0.517  -0.512  -0.504
 -0.504  -0.501  -0.496  -0.490  -0.486  -0.482  -0.476  -0.472
 -0.471  -0.470  -0.468  -0.461  -0.459  -0.456  -0.452  -0.446
 -0.443  -0.439  -0.437  -0.436  -0.434  -0.432  -0.431  -0.430
 -0.426  -0.422  -0.421  -0.420  -0.419  -0.417  -0.414  -0.412
 -0.411  -0.408  -0.402  -0.400  -0.398  -0.397  -0.395  -0.394
 -0.392  -0.388  -0.387  -0.386  -0.384  -0.383  -0.381  -0.380
 -0.376  -0.375  -0.372  -0.371  -0.369  -0.368  -0.352  -0.351
 -0.349  -0.346  -0.345  -0.343  -0.342  -0.341  -0.338  -0.335
 -0.332  -0.331  -0.330  -0.327  -0.325  -0.320  -0.319  -0.318
 -0.316  -0.315  -0.313  -0.305  -0.304  -0.300  -0.297  -0.296
 -0.295  -0.293  -0.288  -0.285  -0.282  -0.280  -0.280  -0.277
 -0.272  -0.270  -0.264  -0.258  -0.252  -0.247  -0.245  -0.241
 -0.238  -0.236  -0.231  -0.222  -0.191  -0.186

          Ground-State Mulliken Net Atomic Charges

     Atom                 Charge (a.u.)
  ----------------------------------------
      1 C                     0.287615
      2 C                    -0.137202
      3 N                    -0.473928
      4 C                    -0.067672
      5 C                     0.053208
      6 C                     0.052842
      7 C                    -0.008527
      8 C                     0.058086
      9 C                     0.232278
     10 N                    -0.489618
     11 N                    -0.540042
     12 C                     0.226828
     13 C                     0.284805
     14 S                     0.621109
     15 N                    -0.559672
     16 C                    -0.208226
     17 S                     0.346534
     18 C                    -0.136246
     19 C                    -0.204914
     20 S                     0.253803
     21 C                     0.181503
     22 C                     0.039910
     23 C                    -0.307438
     24 C                    -0.100930
     25 N                    -0.414532
     26 S                     0.275940
     27 C                     0.123949
     28 C                    -0.318919
     29 C                    -0.230021
     30 H                     0.085861
     31 H                     0.111694
     32 H                     0.105072
     33 H                     0.119877
     34 H                     0.136304
     35 H                     0.103180
     36 H                     0.117793
     37 H                     0.133812
     38 H                     0.112165
     39 C                    -0.171303
     40 H                     0.090153
     41 H                     0.090808
     42 H                     0.092767
     43 C                    -0.167944
     44 H                     0.111122
     45 C                    -0.175406
     46 H                     0.087040
     47 H                     0.093734
     48 H                     0.084166
     49 C                    -0.169051
     50 H                     0.094258
     51 C                    -0.323224
     52 H                     0.096394
     53 H                     0.096172
     54 H                     0.097973
     55 H                     0.099157
     56 C                     0.282284
     57 C                    -0.109617
     58 N                    -0.489530
     59 C                    -0.069249
     60 C                     0.105744
     61 C                     0.004033
     62 C                     0.030140
     63 C                     0.043349
     64 C                     0.211124
     65 N                    -0.537527
     66 N                    -0.561382
     67 C                     0.178891
     68 C                     0.315048
     69 S                     0.618378
     70 N                    -0.550814
     71 C                    -0.219800
     72 S                     0.338665
     73 C                    -0.104120
     74 C                    -0.232137
     75 S                     0.272744
     76 C                     0.160362
     77 C                     0.075335
     78 C                    -0.324545
     79 C                    -0.051286
     80 N                    -0.437665
     81 S                     0.269206
     82 C                     0.139617
     83 C                    -0.312894
     84 C                    -0.227133
     85 H                     0.086922
     86 H                     0.105579
     87 H                     0.121595
     88 H                     0.123327
     89 H                     0.127086
     90 H                     0.127370
     91 H                     0.114741
     92 H                     0.127269
     93 H                     0.119841
     94 C                    -0.195329
     95 H                     0.105369
     96 H                     0.110388
     97 H                     0.094017
     98 C                    -0.182037
     99 H                     0.095540
    100 C                    -0.161325
    101 H                     0.098519
    102 H                     0.091056
    103 H                     0.092718
    104 C                    -0.176830
    105 H                     0.093727
    106 C                    -0.327895
    107 H                     0.096272
    108 H                     0.099801
    109 H                     0.103004
    110 H                     0.098956
  ----------------------------------------
  Sum of atomic charges =     0.000000

                    Cartesian Multipole Moments
 -----------------------------------------------------------------
    Charge (ESU x 10^10)
                 0.0000
    Dipole Moment (Debye)
         X      -2.9323      Y       0.6124      Z       0.2453
       Tot       3.0056
    Quadrupole Moments (Debye-Ang)
        XX    -385.2994     XY      16.0608     YY    -426.1043
        XZ     -20.4013     YZ     -11.0322     ZZ    -444.8159

 Total job time:  110.99s(wall), 1316.23s(cpu)
        *  Thank you very much for using Q-Chem.  Have a nice day.  *
