 Q-Chem 4.4, Q-Chem, Inc., Pleasanton, CA (2016)
 Q-Chem 4.4.2 for Intel X86 Linux

User input:
--------------------------------------------------------------
$comment
SP
$end

$rem
MEM_STATIC 5000
MEM_TOTAL 20000
JOBTYPE SP
EXCHANGE B3LYP
BASIS 6-31g(d,p)
$end

$molecule
0 1
C          10.042000     22.664000      3.320000
C          11.152000     22.924000      4.143000
N           8.963000     21.959000      3.734000
C          11.109000     22.529000      5.497000
C           8.948000     21.536000      5.042000
C          10.010000     21.772000      5.981000
C           9.869000     21.197000      7.367000
C          10.631000     21.890000      8.331000
C           9.005000     20.135000      7.870000
N          10.546000     21.679000      9.697000
N           8.196000     19.353000      7.060000
C           8.994000     19.868000      9.255000
C           9.725000     20.697000     10.148000
S           7.567000     18.310000      8.175000
N           8.134000     18.905000      9.604000
C           9.667000     20.568000     11.615000
S           8.941000     19.149000     12.486000
C          10.153000     21.452000     12.601000
C           9.223000     19.943000     14.085000
S          10.750000     23.045000     12.386000
C           9.841000     21.112000     13.892000
C           8.569000     19.492000     15.268000
C          10.868000     23.233000     14.160000
C          10.395000     22.074000     14.820000
N           8.235000     18.244000     15.386000
S           8.338000     20.506000     16.619000
C           7.797000     18.025000     16.687000
C           7.785000     19.155000     17.518000
C          10.049000     23.118000      1.868000
H          12.032000     23.384000      3.704000
H          12.002000     22.636000      6.106000
H           8.027000     21.002000      5.273000
H          11.294000     22.682000      7.985000
H          11.280000     24.137000     14.588000
H          10.325000     21.911000     15.889000
H           7.442000     17.017000     16.858000
H           7.381000     19.334000     18.505000
H          10.943000     23.694000      1.600000
C           8.857000     24.069000      1.668000
H           9.834000     22.315000      1.152000
H           8.915000     24.728000      2.543000
H           7.884000     23.572000      1.765000
C           8.842000     24.955000      0.407000
H           8.091000     25.749000      0.498000
C           8.678000     24.075000     -0.843000
H           9.819000     25.420000      0.222000
H           7.842000     23.374000     -0.726000
H           9.497000     23.376000     -1.055000
C           8.393000     24.916000     -2.112000
H           7.582000     25.619000     -1.883000
C           7.831000     24.074000     -3.284000
H           9.240000     25.540000     -2.423000
H           7.147000     24.563000     -3.989000
H           7.194000     23.314000     -2.815000
H           8.668000     23.598000     -3.809000
C           5.824000     14.701000      8.016000
C           5.599000     13.326000      7.836000
N           6.217000     15.458000      6.978000
C           5.703000     12.756000      6.595000
C           6.427000     14.968000      5.751000
C           6.108000     13.583000      5.495000
C           6.261000     13.009000      4.121000
C           6.842000     11.693000      3.962000
C           6.044000     13.691000      2.861000
N           7.149000     11.134000      2.768000
N           5.502000     14.914000      2.744000
C           6.301000     13.074000      1.578000
C           6.930000     11.744000      1.600000
S           5.315000     15.229000      1.148000
N           5.931000     13.901000      0.495000
C           7.265000     11.136000      0.329000
S           7.248000     11.922000     -1.282000
C           7.597000      9.831000      0.216000
C           7.810000     10.427000     -2.035000
S           7.614000      8.550000      1.368000
C           7.979000      9.456000     -1.057000
C           8.145000     10.312000     -3.424000
C           8.317000      7.467000      0.135000
C           8.336000      8.064000     -1.135000
N           8.217000      9.132000     -4.011000
S           7.905000     11.676000     -4.430000
C           8.321000      9.273000     -5.347000
C           8.222000     10.573000     -5.805000
C           5.457000     15.370000      9.315000
H           5.244000     12.707000      8.655000
H           5.281000     11.767000      6.445000
H           6.924000     15.531000      4.962000
H           7.218000     11.079000      4.780000
H           8.606000      6.453000      0.378000
H           8.658000      7.596000     -2.058000
H           8.529000      8.480000     -6.053000
H           8.398000     10.920000     -6.815000
H           5.272000     16.429000      9.093000
C           6.690000     15.452000     10.291000
H           4.537000     14.973000      9.761000
H           7.619000     15.733000      9.779000
H           6.950000     14.431000     10.595000
C           6.410000     16.336000     11.555000
H           7.334000     16.175000     12.124000
C           5.286000     15.821000     12.376000
H           6.357000     17.396000     11.277000
H           5.450000     14.762000     12.608000
H           4.318000     15.837000     11.860000
C           5.116000     16.630000     13.712000
H           6.101000     16.627000     14.195000
C           3.976000     16.093000     14.623000
H           4.867000     17.677000     13.504000
H           4.207000     15.072000     14.950000
H           2.973000     16.083000     14.179000
H           3.805000     16.602000     15.580000
$end

--------------------------------------------------------------

             Standard Nuclear Orientation (Angstroms)
    I     Atom           X                Y                Z
 ----------------------------------------------------------------
    1      C      -0.9267609362     6.5044366909     0.5349828653
    2      C      -1.8455003167     6.5503197280     1.5983932742
    3      N      -0.8405029171     5.4614435823    -0.3237295019
    4      C      -2.7982801441     5.5173356230     1.7262386465
    5      C      -1.7416301645     4.4354210071    -0.1647786946
    6      C      -2.7437907770     4.3907712854     0.8642701424
    7      C      -3.6245056256     3.1701297762     0.9409360512
    8      C      -4.8602903535     3.4213657156     1.5733169562
    9      C      -3.4471758627     1.8357064910     0.3794935776
   10      N      -5.9145644861     2.5245889795     1.6180331602
   11      N      -2.2940807172     1.4209105887    -0.2689051769
   12      C      -4.4944281414     0.8998597790     0.5102169357
   13      C      -5.7369029149     1.2928823784     1.0766449309
   14      S      -2.6673014877    -0.1588545615    -0.5718297992
   15      N      -4.2363816496    -0.2726047300    -0.0792819898
   16      C      -6.9215931076     0.4180694187     1.1341378248
   17      S      -6.8862387510    -1.3690217715     0.8111314050
   18      C      -8.2538595300     0.7524771121     1.4552074034
   19      C      -8.6818592726    -1.4712173972     0.9901956295
   20      S      -8.9301646266     2.3161498393     1.6496862415
   21      C      -9.1612090386    -0.2643476385     1.3055100558
   22      C      -9.4148462230    -2.6026145070     0.5283767145
   23      C     -10.5528802939     1.5856184321     1.8213304264
   24      C     -10.4888182752     0.1799463156     1.6710242103
   25      N      -8.8516626574    -3.7710150898     0.5029140029
   26      S     -11.0734438241    -2.5130954540     0.1439312219
   27      C      -9.8203470090    -4.7219194346     0.2031848683
   28      C     -11.1095803792    -4.2187346722    -0.0254795410
   29      C       0.0822601914     7.6283395728     0.3528080150
   30      H      -1.7702084090     7.3581203659     2.3198572428
   31      H      -3.4396086796     5.4971669325     2.6026346377
   32      H      -1.5980383908     3.6641180737    -0.9205770722
   33      H      -5.0188162310     4.4058243890     2.0117912045
   34      H     -11.4125874192     2.2067285704     2.0340975641
   35      H     -11.3147021052    -0.5208942803     1.7021426727
   36      H      -9.4239762070    -5.7241290553     0.1042098038
   37      H     -12.0161121018    -4.6714351037    -0.4032209277
   38      H      -0.0492241765     8.4471894300     1.0704658530
   39      C      -0.1466675426     8.2435444262    -1.0380119161
   40      H       1.1221499978     7.2840668429     0.2912005636
   41      H      -1.2372702944     8.3510137246    -1.0860326180
   42      H       0.0964134460     7.5598404410    -1.8605734601
   43      C       0.4791437323     9.6210183823    -1.3317256347
   44      H       0.0493940672    10.0579146826    -2.2412061722
   45      C       2.0116120944     9.4996297890    -1.3562517151
   46      H       0.3274572235    10.3244879186    -0.5028101900
   47      H       2.3320963570     8.6685176250    -1.9969766235
   48      H       2.4912040630     9.2190851587    -0.4098943545
   49      C       2.6871268540    10.7821126483    -1.9019480822
   50      H       2.1903542298    11.0590485758    -2.8405078575
   51      C       4.1625668224    10.5606896021    -2.3172079217
   52      H       2.5712741235    11.6519667273    -1.2435879784
   53      H       4.5652299932    11.1705998137    -3.1356661703
   54      H       4.1975552857     9.5453351490    -2.7309241795
   55      H       4.7943232653    10.6295836639    -1.4233917185
   56      C      -0.5537312765    -3.4584914057    -1.4282342939
   57      C       0.3215008640    -4.5534610731    -1.3351744860
   58      N      -0.0824977142    -2.2087688481    -1.2830638468
   59      C       1.6677339903    -4.3618954626    -1.1716019134
   60      C       1.2029835203    -1.9340004585    -1.0345294874
   61      C       2.1552527937    -3.0196823656    -1.0346953072
   62      C       3.6137289119    -2.7517391647    -0.8302085017
   63      C       4.3816634115    -3.6238985186     0.0325270694
   64      C       4.3580522210    -1.5896524631    -1.2721930145
   65      N       5.6671658711    -3.4008693979     0.3932311556
   66      N       3.8710503828    -0.6433496013    -2.0910471550
   67      C       5.7530897043    -1.3802097569    -0.9515200148
   68      C       6.3698300205    -2.3460701787    -0.0286061357
   69      S       5.0887335878     0.3953208345    -2.4371993440
   70      N       6.2828835096    -0.2245073177    -1.5658394723
   71      C       7.7442697572    -2.1174763003     0.3663498730
   72      S       8.7209164675    -0.6429651233     0.0741444791
   73      C       8.4854674153    -3.0613330878     0.9874604882
   74      C      10.0901722418    -1.3616895724     0.9264658920
   75      S       8.1552150247    -4.7085950638     1.3693182377
   76      C       9.7387508099    -2.6284307184     1.3734064320
   77      C      11.3128825564    -0.6650672859     1.1993539212
   78      C       9.7136208906    -4.8075812238     2.2347429296
   79      C      10.4927630065    -3.6564418403     2.0411307319
   80      N      12.4145950898    -1.3213634080     1.5118565513
   81      S      11.4920362792     0.9244845190     0.5899599575
   82      C      13.4776881271    -0.4934992002     1.5036682868
   83      C      13.2104774618     0.7935123822     1.0773296338
   84      C      -1.9810446141    -3.6584375316    -1.8669245983
   85      H      -0.0358883584    -5.5677557648    -1.4882307570
   86      H       2.3339032215    -5.1985857846    -1.3583446784
   87      H       1.5529983779    -0.9488392453    -0.7288401296
   88      H       3.9689738914    -4.4658777464     0.5877336436
   89      H      10.0042541488    -5.7040850881     2.7663246547
   90      H      11.4986765240    -3.4942495106     2.4105473578
   91      H      14.4728850926    -0.7376324732     1.8508439553
   92      H      13.8838065643     1.6403205406     1.1094055211
   93      H      -2.3203329651    -2.7117080355    -2.3068980930
   94      C      -2.9484655905    -3.8101364325    -0.6337688507
   95      H      -2.0916825882    -4.4269662223    -2.6415521799
   96      H      -2.7225680514    -3.1014154832     0.1729720730
   97      H      -2.7043056544    -4.7504664830    -0.1252196184
   98      C      -4.4624097264    -3.7944882659    -1.0403156356
   99      H      -4.9344294202    -4.0083770500    -0.0734097474
  100      C      -4.8184349744    -4.9002760086    -1.9639613960
  101      H      -4.7639785883    -2.7878375039    -1.3555987858
  102      H      -4.4861622951    -5.8569683891    -1.5438000512
  103      H      -4.3142142630    -4.8435492848    -2.9366276045
  104      C      -6.3636013465    -4.9584121331    -2.2420945899
  105      H      -6.8474989842    -4.9835171466    -1.2578508119
  106      C      -6.7841752435    -6.1323605622    -3.1709932296
  107      H      -6.7040244764    -4.0434810049    -2.7405794175
  108      H      -6.5575663283    -7.0911783925    -2.6892798627
  109      H      -6.3256605343    -6.1421942896    -4.1674432079
  110      H      -7.8512613616    -6.2435414686    -3.4015079202
 ----------------------------------------------------------------

    9   -5663.5366944868      9.84E-06 Convergence criterion met
 Total energy in the final basis set = -5663.5366944868

                    Orbital Energies (a.u.)
 --------------------------------------------------------------

 Alpha MOs
 -- Occupied --
-88.987 -88.980 -88.926 -88.925 -88.925 -88.918 -88.909 -88.907
-14.388 -14.387 -14.386 -14.375 -14.350 -14.347 -14.342 -14.341
-14.331 -14.328 -10.266 -10.264 -10.262 -10.262 -10.261 -10.260
-10.258 -10.254 -10.243 -10.243 -10.238 -10.237 -10.235 -10.234
-10.233 -10.233 -10.233 -10.232 -10.232 -10.231 -10.230 -10.230
-10.228 -10.228 -10.227 -10.225 -10.224 -10.221 -10.221 -10.220
-10.216 -10.211 -10.208 -10.204 -10.203 -10.201 -10.197 -10.197
-10.186 -10.184 -10.183 -10.177 -10.175 -10.175 -10.174 -10.172
-10.172 -10.171 -10.169 -10.169  -8.042  -8.034  -7.989  -7.987
 -7.984  -7.975  -7.969  -7.967  -6.007  -6.001  -6.000  -5.999
 -5.994  -5.992  -5.953  -5.951  -5.949  -5.948  -5.948  -5.946
 -5.944  -5.944  -5.940  -5.940  -5.936  -5.933  -5.932  -5.931
 -5.930  -5.928  -5.925  -5.923  -1.029  -1.027  -0.978  -0.977
 -0.952  -0.944  -0.940  -0.927  -0.913  -0.911  -0.901  -0.895
 -0.842  -0.837  -0.827  -0.823  -0.818  -0.808  -0.805  -0.803
 -0.801  -0.800  -0.795  -0.793  -0.782  -0.779  -0.764  -0.764
 -0.747  -0.746  -0.737  -0.736  -0.725  -0.719  -0.709  -0.706
 -0.691  -0.689  -0.671  -0.666  -0.651  -0.649  -0.644  -0.639
 -0.633  -0.631  -0.625  -0.621  -0.609  -0.608  -0.605  -0.594
 -0.592  -0.591  -0.586  -0.582  -0.579  -0.576  -0.563  -0.562
 -0.549  -0.547  -0.538  -0.535  -0.525  -0.518  -0.516  -0.510
 -0.507  -0.504  -0.495  -0.493  -0.486  -0.478  -0.475  -0.472
 -0.469  -0.468  -0.465  -0.461  -0.459  -0.458  -0.449  -0.447
 -0.443  -0.441  -0.440  -0.439  -0.437  -0.433  -0.432  -0.431
 -0.426  -0.424  -0.421  -0.419  -0.418  -0.416  -0.413  -0.412
 -0.411  -0.410  -0.403  -0.400  -0.399  -0.398  -0.397  -0.391
 -0.391  -0.389  -0.388  -0.387  -0.386  -0.385  -0.382  -0.378
 -0.376  -0.376  -0.375  -0.373  -0.370  -0.363  -0.353  -0.352
 -0.351  -0.350  -0.346  -0.346  -0.345  -0.343  -0.338  -0.336
 -0.334  -0.332  -0.331  -0.330  -0.325  -0.322  -0.320  -0.318
 -0.316  -0.312  -0.311  -0.306  -0.303  -0.301  -0.299  -0.295
 -0.293  -0.293  -0.289  -0.288  -0.287  -0.286  -0.282  -0.282
 -0.276  -0.273  -0.266  -0.266  -0.253  -0.251  -0.249  -0.249
 -0.245  -0.243  -0.230  -0.226  -0.191  -0.190

          Ground-State Mulliken Net Atomic Charges

     Atom                 Charge (a.u.)
  ----------------------------------------
      1 C                     0.283726
      2 C                    -0.128735
      3 N                    -0.487876
      4 C                    -0.090258
      5 C                     0.059858
      6 C                     0.036380
      7 C                     0.060655
      8 C                     0.050199
      9 C                     0.189034
     10 N                    -0.543522
     11 N                    -0.546262
     12 C                     0.233597
     13 C                     0.312167
     14 S                     0.646684
     15 N                    -0.575443
     16 C                    -0.231448
     17 S                     0.340151
     18 C                    -0.118700
     19 C                    -0.229579
     20 S                     0.289468
     21 C                     0.159394
     22 C                     0.063585
     23 C                    -0.316559
     24 C                    -0.072492
     25 N                    -0.427296
     26 S                     0.281014
     27 C                     0.107331
     28 C                    -0.315342
     29 C                    -0.216728
     30 H                     0.093877
     31 H                     0.103816
     32 H                     0.130435
     33 H                     0.110060
     34 H                     0.133961
     35 H                     0.111311
     36 H                     0.114650
     37 H                     0.142343
     38 H                     0.093780
     39 C                    -0.182270
     40 H                     0.120809
     41 H                     0.082486
     42 H                     0.118802
     43 C                    -0.176670
     44 H                     0.096558
     45 C                    -0.174937
     46 H                     0.088390
     47 H                     0.089894
     48 H                     0.093928
     49 C                    -0.181167
     50 H                     0.091577
     51 C                    -0.323589
     52 H                     0.090581
     53 H                     0.100753
     54 H                     0.100921
     55 H                     0.102066
     56 C                     0.286690
     57 C                    -0.118910
     58 N                    -0.495075
     59 C                    -0.071059
     60 C                     0.115666
     61 C                     0.004877
     62 C                     0.033443
     63 C                     0.046663
     64 C                     0.203604
     65 N                    -0.525568
     66 N                    -0.556653
     67 C                     0.171509
     68 C                     0.317707
     69 S                     0.617002
     70 N                    -0.551052
     71 C                    -0.218083
     72 S                     0.336563
     73 C                    -0.104692
     74 C                    -0.235006
     75 S                     0.282371
     76 C                     0.146336
     77 C                     0.069514
     78 C                    -0.316505
     79 C                    -0.053884
     80 N                    -0.434001
     81 S                     0.263390
     82 C                     0.139387
     83 C                    -0.312557
     84 C                    -0.230986
     85 H                     0.089841
     86 H                     0.107675
     87 H                     0.124733
     88 H                     0.118942
     89 H                     0.129559
     90 H                     0.126255
     91 H                     0.117487
     92 H                     0.131086
     93 H                     0.119115
     94 C                    -0.202324
     95 H                     0.109408
     96 H                     0.103709
     97 H                     0.088466
     98 C                    -0.182495
     99 H                     0.108358
    100 C                    -0.164506
    101 H                     0.116391
    102 H                     0.086774
    103 H                     0.087264
    104 C                    -0.184728
    105 H                     0.112278
    106 C                    -0.328936
    107 H                     0.097189
    108 H                     0.096410
    109 H                     0.100886
    110 H                     0.095101
  ----------------------------------------
  Sum of atomic charges =     0.000000

                    Cartesian Multipole Moments
 -----------------------------------------------------------------
    Charge (ESU x 10^10)
                 0.0000
    Dipole Moment (Debye)
         X      -1.0488      Y      -0.3944      Z       0.5587
       Tot       1.2521
    Quadrupole Moments (Debye-Ang)
        XX    -359.7272     XY      21.4166     YY    -412.3613
        XZ       8.7013     YZ      11.9336     ZZ    -448.2325

 Total job time:  82.10s(wall), 971.09s(cpu)
        *  Thank you very much for using Q-Chem.  Have a nice day.  *
