 Q-Chem 4.4, Q-Chem, Inc., Pleasanton, CA (2016)
 Q-Chem 4.4.2 for Intel X86 Linux

User input:
--------------------------------------------------------------
$comment
SP
$end

$rem
MEM_STATIC 5000
MEM_TOTAL 20000
JOBTYPE SP
EXCHANGE B3LYP
BASIS 6-31g(d,p)
$end

$molecule
0 1
C          -4.061000      1.689000      2.529000
C          -3.052000      2.240000      1.718000
N          -5.325000      2.206000      2.604000
C          -3.233000      3.490000      1.073000
C          -5.585000      3.309000      1.858000
C          -4.581000      4.068000      1.112000
C          -4.943000      5.432000      0.574000
C          -6.279000      5.853000      0.578000
C          -4.008000      6.513000      0.212000
N          -6.715000      7.029000      0.201000
N          -2.674000      6.386000      0.109000
C          -4.472000      7.760000     -0.133000
C          -5.819000      8.017000     -0.116000
S          -2.140000      7.821000     -0.323000
N          -3.487000      8.682000     -0.410000
C          -6.483000      9.243000     -0.717000
S          -8.078000      9.072000     -1.492000
C          -6.213000     10.540000     -0.442000
C          -8.319000     10.861000     -1.496000
S          -5.062000     11.193000      0.603000
C          -7.213000     11.389000     -0.854000
C          -9.535000     11.520000     -1.887000
C          -5.764000     12.743000      0.374000
C          -6.961000     12.702000     -0.309000
N         -10.570000     10.756000     -2.349000
S          -9.838000     13.267000     -1.798000
C         -11.637000     11.574000     -2.709000
C         -11.398000     12.929000     -2.616000
C          -3.734000      0.409000      3.312000
H          -2.022000      1.903000      1.652000
H          -2.358000      3.931000      0.605000
H          -6.603000      3.670000      1.990000
H          -7.093000      5.198000      0.886000
H          -5.338000     13.626000      0.832000
H          -7.569000     13.596000     -0.392000
H         -12.514000     11.137000     -3.168000
H         -11.993000     13.719000     -3.056000
H          -2.751000      0.549000      3.777000
C          -3.749000     -0.835000      2.416000
H          -4.466000      0.353000      4.127000
H          -2.830000     -0.901000      1.821000
H          -4.538000     -0.795000      1.654000
C          -3.780000     -2.177000      3.174000
H          -3.275000     -2.001000      4.132000
C          -3.134000     -3.375000      2.411000
H          -4.780000     -2.506000      3.483000
H          -3.268000     -3.374000      1.322000
H          -3.750000     -4.195000      2.801000
C          -1.748000     -3.646000      2.820000
H          -1.142000     -2.845000      2.379000
C          -1.224000     -4.938000      2.258000
H          -1.825000     -3.681000      3.913000
H          -0.249000     -5.203000      2.685000
H          -1.174000     -4.915000      1.163000
H          -1.900000     -5.738000      2.586000
C          -7.859000     -3.414000      1.395000
C          -8.824000     -2.371000      1.202000
N          -6.611000     -3.394000      0.976000
C          -8.454000     -1.260000      0.461000
C          -6.278000     -2.285000      0.326000
C          -7.141000     -1.137000      0.010000
C          -6.657000      0.119000     -0.777000
C          -7.589000      1.134000     -1.174000
C          -5.336000      0.447000     -1.150000
N          -7.246000      2.341000     -1.717000
N          -4.305000     -0.377000     -0.851000
C          -5.030000      1.660000     -1.774000
C          -5.987000      2.629000     -2.009000
S          -3.043000      0.387000     -1.547000
N          -3.754000      1.725000     -2.170000
C          -5.640000      3.934000     -2.459000
S          -4.027000      4.670000     -2.479000
C          -6.517000      4.826000     -3.045000
C          -4.531000      6.132000     -3.253000
S          -8.205000      4.619000     -3.265000
C          -5.919000      5.997000     -3.465000
C          -3.778000      7.255000     -3.606000
C          -8.232000      6.242000     -3.957000
C          -6.990000      6.827000     -4.075000
N          -2.493000      7.006000     -3.840000
S          -4.335000      8.912000     -4.030000
C          -1.795000      8.151000     -4.072000
C          -2.613000      9.238000     -4.237000
C          -8.238000     -4.574000      2.264000
H          -9.835000     -2.428000      1.593000
H          -9.216000     -0.562000      0.128000
H          -5.272000     -2.333000     -0.088000
H          -8.639000      0.848000     -1.214000
H          -9.183000      6.678000     -4.232000
H          -6.912000      7.852000     -4.418000
H          -0.738000      8.141000     -4.300000
H          -2.266000     10.245000     -4.422000
H          -7.578000     -4.661000      3.135000
C          -8.201000     -5.869000      1.460000
H          -9.254000     -4.476000      2.667000
H          -7.146000     -6.161000      1.526000
H          -8.380000     -5.724000      0.387000
C          -9.177000     -6.881000      2.153000
H          -8.817000     -6.834000      3.188000
C          -8.859000     -8.279000      1.763000
H         -10.254000     -6.754000      1.992000
H          -7.792000     -8.488000      1.910000
H          -9.166000     -8.407000      0.718000
C          -9.653000     -9.284000      2.670000
H          -9.403000     -9.154000      3.730000
C          -9.278000    -10.799000      2.490000
H         -10.742000     -9.159000      2.611000
H          -9.582000    -11.467000      3.305000
H          -8.207000    -10.888000      2.269000
H          -9.816000    -11.202000      1.624000
$end

--------------------------------------------------------------

             Standard Nuclear Orientation (Angstroms)
    I     Atom           X                Y                Z
 ----------------------------------------------------------------
    1      C       2.8400352123     1.9644720647     2.3331694780
    2      C       2.1381792352     2.9317347950     1.5907383378
    3      N       2.3308294555     0.7277937657     2.6194320880
    4      C       0.7717381846     2.7489042250     1.2580254919
    5      C       1.0833296960     0.4539006675     2.1617729128
    6      C       0.1934836137     1.4280509691     1.5294611702
    7      C      -1.2630517975     1.0763791222     1.3402113140
    8      C      -1.6960855386    -0.2404714786     1.5415549860
    9      C      -2.3809897662     2.0203037637     1.1584120583
   10      N      -2.9344599170    -0.6609927265     1.4723323089
   11      N      -2.2567092219     3.3383491246     0.9268850128
   12      C      -3.6817870090     1.5766217604     1.1383418523
   13      C      -3.9523481222     0.2440204298     1.3164355849
   14      S      -3.7424224601     3.8898784804     0.7873266250
   15      N      -4.6247633219     2.5709048572     0.9996522822
   16      C      -5.2941103820    -0.4179929167     1.0583941792
   17      S      -5.3311926005    -2.0691154637     0.3903296284
   18      C      -6.4903940689    -0.0840940975     1.5951910859
   19      C      -7.0788498201    -2.2473427343     0.8057177397
   20      S      -6.8697041729     1.1604367606     2.6678055498
   21      C      -7.4282730919    -1.0807202353     1.4622840516
   22      C      -7.8307915875    -3.4644102893     0.6673409170
   23      C      -8.4436631816     0.4983153540     2.8466722101
   24      C      -8.5794574668    -0.7449813099     2.2663685675
   25      N      -7.2095702560    -4.5556570147     0.1273134719
   26      S      -9.5176378611    -3.6992826674     1.1684632726
   27      C      -8.1067051918    -5.6164490165     0.0431574506
   28      C      -9.4011556983    -5.3243928341     0.4185187068
   29      C       4.2694869263     2.3016252956     2.7819606278
   30      H       2.4699178323     3.9420585066     1.3716025329
   31      H       0.2521218249     3.6031825279     0.8345430011
   32      H       0.7433425810    -0.5389252795     2.4494783187
   33      H      -1.0030983596    -1.0527873102     1.7569540560
   34      H      -9.1925830509     0.9863375284     3.4564938124
   35      H      -9.4798191906    -1.3258462707     2.4329028396
   36      H      -7.8004704883    -6.5385919989    -0.4329219821
   37      H     -10.2806533744    -5.9213417738     0.2139195835
   38      H       4.2557745446     3.3195194105     3.1891676285
   39      C       5.2783992478     2.1795492653     1.6340188304
   40      H       4.4950824731     1.6280134167     3.6177468959
   41      H       5.2246808280     3.0509901284     0.9702062412
   42      H       5.0531601658     1.3401640160     0.9635975008
   43      C       6.7561862681     2.1558897148     2.0722821625
   44      H       6.8102523362     2.7336473400     3.0034309083
   45      C       7.7621678158     2.7038063829     1.0128117994
   46      H       7.1285566723     1.1695828204     2.3760271085
   47      H       7.5127444371     2.4927168110    -0.0346170387
   48      H       8.6379295676     2.0889607414     1.2556331147
   49      C       8.1433141823     4.1051322819     1.2424444891
   50      H       7.2743559947     4.7057161104     0.9465919358
   51      C       9.2840823103     4.5424723342     0.3666215865
   52      H       8.4229829157     4.1049866243     2.3024390072
   53      H       9.6561013196     5.5355821847     0.6468245157
   54      H       9.0151665238     4.5151426515    -0.6959184778
   55      H      10.1252829542     3.8640970331     0.5583203805
   56      C       7.4860900847    -2.0800318104     0.3818797693
   57      C       6.4093673571    -3.0194176634     0.5024840276
   58      N       7.3942598105    -0.8650986689    -0.1170888294
   59      C       5.1664726829    -2.6646584972     0.0028233801
   60      C       6.1732122592    -0.5408127528    -0.5259305128
   61      C       4.9682551489    -1.3836217373    -0.5091860231
   62      C       3.5757793387    -0.9134474688    -1.0298666115
   63      C       2.4808255754    -1.8354387491    -1.1162745706
   64      C       3.1956633958     0.3882571963    -1.4208024564
   65      N       1.1886832029    -1.4901522887    -1.3999863074
   66      N       4.0842157728     1.4086098174    -1.3944737312
   67      C       1.8787139887     0.6911011348    -1.7790074370
   68      C       0.8647189270    -0.2458775860    -1.7163983996
   69      S       3.2054111806     2.6436828347    -1.9970126350
   70      N       1.7487522613     1.9371510236    -2.2477148342
   71      C      -0.5017887874     0.1134313794    -1.8881183275
   72      S      -1.1943065547     1.7455618146    -1.8672764281
   73      C      -1.5186632386    -0.7714746581    -2.1899405521
   74      C      -2.8021539696     1.2389442863    -2.2528945947
   75      S      -1.3969467090    -2.4770375060    -2.3196843702
   76      C      -2.7433908491    -0.1644855859    -2.3819081183
   77      C      -3.9622204026     2.0035450744    -2.4024890665
   78      C      -3.1345460217    -2.4967102901    -2.6264148871
   79      C      -3.7087710078    -1.2466492409    -2.7059512839
   80      N      -3.7495897549     3.2591678415    -2.7848261880
   81      S      -5.6818606767     1.4758078680    -2.4003053303
   82      C      -4.9047280948     3.9783240369    -2.8076906204
   83      C      -6.0153503359     3.1890017032    -2.6613810481
   84      C       8.8054694473    -2.4363543219     0.9956177958
   85      H       6.5351469233    -4.0013788590     0.9476611959
   86      H       4.3977701113    -3.4236664059    -0.1055295206
   87      H       6.1444140557     0.4308699139    -1.0165825879
   88      H       2.7315663692    -2.8949426643    -1.1381036316
   89      H      -3.6383422534    -3.4491171521    -2.7225009231
   90      H      -4.7832003139    -1.1576251067    -2.8156525585
   91      H      -4.9275997239     5.0154142975    -3.1130652755
   92      H      -7.0317380327     3.5568035164    -2.6423843149
   93      H       9.0988062030    -1.7194381387     1.7713720958
   94      C       9.8857713782    -2.5018187935    -0.0783804077
   95      H       8.7829046174    -3.4170476412     1.4875532002
   96      H      10.2039527525    -1.4556071698    -0.1611261122
   97      H       9.4989057403    -2.7516128490    -1.0745394853
   98      C      11.0105591595    -3.4606415938     0.4436160334
   99      H      11.2050725894    -3.0264368869     1.4318795601
  100      C      12.2897469188    -3.2200967700    -0.2729346377
  101      H      10.8312257211    -4.5412946746     0.3988116038
  102      H      12.5456043417    -2.1532646684    -0.2593241231
  103      H      12.1728139903    -3.6050010352    -1.2931470650
  104      C      13.4593238206    -3.9820098734     0.4444831582
  105      H      13.5766785440    -3.6527884770     1.4841182582
  106      C      14.9009344147    -3.6737649731    -0.0986503211
  107      H      13.3047699980    -5.0674315762     0.4992539809
  108      H      15.7302578802    -3.9420355802     0.5670211226
  109      H      14.9568388890    -2.6249713617    -0.4159981592
  110      H      15.0881575811    -4.2857725124    -0.9887083293
 ----------------------------------------------------------------

   10   -5663.4768499452      3.64E-06 Convergence criterion met
 Total energy in the final basis set = -5663.4768499452

                    Orbital Energies (a.u.)
 --------------------------------------------------------------

 Alpha MOs
 -- Occupied --
-88.992 -88.982 -88.931 -88.926 -88.922 -88.916 -88.908 -88.905
-14.385 -14.384 -14.381 -14.379 -14.348 -14.342 -14.341 -14.340
-14.335 -14.330 -10.270 -10.268 -10.256 -10.255 -10.252 -10.252
-10.249 -10.247 -10.241 -10.238 -10.236 -10.236 -10.235 -10.233
-10.232 -10.231 -10.230 -10.230 -10.229 -10.229 -10.228 -10.227
-10.227 -10.226 -10.225 -10.225 -10.224 -10.221 -10.219 -10.219
-10.216 -10.210 -10.208 -10.207 -10.202 -10.201 -10.199 -10.198
-10.182 -10.178 -10.177 -10.176 -10.176 -10.173 -10.172 -10.170
-10.168 -10.166 -10.165 -10.162  -8.047  -8.038  -7.991  -7.986
 -7.980  -7.974  -7.971  -7.965  -6.012  -6.006  -6.006  -6.003
 -5.997  -5.995  -5.955  -5.952  -5.950  -5.948  -5.946  -5.945
 -5.942  -5.941  -5.938  -5.937  -5.935  -5.934  -5.932  -5.930
 -5.930  -5.927  -5.926  -5.922  -1.051  -1.040  -0.969  -0.960
 -0.958  -0.951  -0.946  -0.929  -0.920  -0.914  -0.907  -0.907
 -0.847  -0.845  -0.828  -0.823  -0.811  -0.810  -0.807  -0.805
 -0.802  -0.800  -0.793  -0.790  -0.786  -0.780  -0.768  -0.766
 -0.746  -0.745  -0.738  -0.736  -0.723  -0.722  -0.710  -0.707
 -0.695  -0.688  -0.675  -0.672  -0.650  -0.649  -0.646  -0.645
 -0.635  -0.633  -0.627  -0.617  -0.608  -0.608  -0.598  -0.595
 -0.592  -0.590  -0.581  -0.577  -0.576  -0.573  -0.569  -0.557
 -0.543  -0.543  -0.539  -0.538  -0.526  -0.522  -0.516  -0.512
 -0.506  -0.502  -0.499  -0.495  -0.488  -0.482  -0.480  -0.476
 -0.474  -0.472  -0.469  -0.468  -0.466  -0.465  -0.451  -0.447
 -0.443  -0.440  -0.438  -0.437  -0.432  -0.430  -0.429  -0.427
 -0.424  -0.420  -0.419  -0.418  -0.417  -0.415  -0.413  -0.412
 -0.408  -0.406  -0.405  -0.399  -0.397  -0.397  -0.394  -0.394
 -0.391  -0.391  -0.389  -0.388  -0.387  -0.386  -0.382  -0.381
 -0.381  -0.373  -0.371  -0.370  -0.363  -0.360  -0.358  -0.355
 -0.353  -0.352  -0.348  -0.348  -0.343  -0.342  -0.339  -0.335
 -0.334  -0.331  -0.331  -0.329  -0.327  -0.326  -0.325  -0.319
 -0.316  -0.313  -0.308  -0.306  -0.302  -0.300  -0.297  -0.296
 -0.294  -0.292  -0.289  -0.288  -0.284  -0.282  -0.280  -0.278
 -0.275  -0.271  -0.268  -0.265  -0.257  -0.253  -0.251  -0.250
 -0.242  -0.240  -0.226  -0.225  -0.193  -0.188

          Ground-State Mulliken Net Atomic Charges

     Atom                 Charge (a.u.)
  ----------------------------------------
      1 C                     0.249674
      2 C                    -0.113314
      3 N                    -0.479937
      4 C                    -0.081159
      5 C                     0.080324
      6 C                     0.010760
      7 C                     0.061354
      8 C                     0.066570
      9 C                     0.223376
     10 N                    -0.502226
     11 N                    -0.535378
     12 C                     0.232742
     13 C                     0.209363
     14 S                     0.629152
     15 N                    -0.542246
     16 C                    -0.233331
     17 S                     0.350367
     18 C                    -0.094360
     19 C                    -0.223087
     20 S                     0.282613
     21 C                     0.130936
     22 C                     0.052583
     23 C                    -0.294335
     24 C                    -0.097612
     25 N                    -0.443642
     26 S                     0.259800
     27 C                     0.129430
     28 C                    -0.313442
     29 C                    -0.228878
     30 H                     0.092966
     31 H                     0.136925
     32 H                     0.108226
     33 H                     0.115828
     34 H                     0.127576
     35 H                     0.113874
     36 H                     0.115458
     37 H                     0.130415
     38 H                     0.101267
     39 C                    -0.171861
     40 H                     0.115866
     41 H                     0.087064
     42 H                     0.127252
     43 C                    -0.190517
     44 H                     0.082572
     45 C                    -0.171124
     46 H                     0.097477
     47 H                     0.093713
     48 H                     0.087766
     49 C                    -0.158708
     50 H                     0.085703
     51 C                    -0.311122
     52 H                     0.090787
     53 H                     0.095400
     54 H                     0.100329
     55 H                     0.097683
     56 C                     0.272546
     57 C                    -0.128783
     58 N                    -0.472668
     59 C                    -0.072797
     60 C                     0.065545
     61 C                     0.043690
     62 C                     0.054539
     63 C                     0.042261
     64 C                     0.215232
     65 N                    -0.553042
     66 N                    -0.555454
     67 C                     0.205174
     68 C                     0.339177
     69 S                     0.590777
     70 N                    -0.557381
     71 C                    -0.210512
     72 S                     0.372038
     73 C                    -0.118399
     74 C                    -0.211214
     75 S                     0.293057
     76 C                     0.119731
     77 C                     0.034069
     78 C                    -0.287210
     79 C                    -0.095713
     80 N                    -0.425082
     81 S                     0.293699
     82 C                     0.119611
     83 C                    -0.302480
     84 C                    -0.233521
     85 H                     0.094958
     86 H                     0.094888
     87 H                     0.128277
     88 H                     0.110580
     89 H                     0.133799
     90 H                     0.115373
     91 H                     0.118260
     92 H                     0.127923
     93 H                     0.116529
     94 C                    -0.180297
     95 H                     0.095986
     96 H                     0.115778
     97 H                     0.095985
     98 C                    -0.170270
     99 H                     0.096866
    100 C                    -0.170350
    101 H                     0.095420
    102 H                     0.092101
    103 H                     0.091613
    104 C                    -0.183390
    105 H                     0.093246
    106 C                    -0.326518
    107 H                     0.088696
    108 H                     0.099771
    109 H                     0.102111
    110 H                     0.098858
  ----------------------------------------
  Sum of atomic charges =     0.000000

                    Cartesian Multipole Moments
 -----------------------------------------------------------------
    Charge (ESU x 10^10)
                 0.0000
    Dipole Moment (Debye)
         X      -3.4399      Y       0.8443      Z       0.2276
       Tot       3.5493
    Quadrupole Moments (Debye-Ang)
        XX    -398.3311     XY      -9.7670     YY    -413.7182
        XZ       2.7368     YZ       5.5743     ZZ    -453.1478

 Total job time:  112.15s(wall), 1322.37s(cpu)
        *  Thank you very much for using Q-Chem.  Have a nice day.  *
