 Q-Chem 4.4, Q-Chem, Inc., Pleasanton, CA (2016)
 Q-Chem 4.4.2 for Intel X86 Linux

User input:
--------------------------------------------------------------
$comment
SP
$end

$rem
MEM_STATIC 5000
MEM_TOTAL 20000
JOBTYPE SP
EXCHANGE B3LYP
BASIS 6-31g(d,p)
$end

$molecule
0 1
C          -2.805000     -9.362000      1.099000
C          -2.341000     -9.176000     -0.232000
N          -3.453000     -8.390000      1.729000
C          -2.760000     -8.054000     -0.884000
C          -3.875000     -7.281000      1.016000
C          -3.561000     -7.028000     -0.318000
C          -4.309000     -5.957000     -0.983000
C          -5.679000     -5.904000     -1.097000
C          -3.567000     -4.980000     -1.598000
N          -6.349000     -4.983000     -1.840000
N          -2.221000     -4.845000     -1.477000
C          -4.206000     -3.960000     -2.275000
C          -5.612000     -3.985000     -2.480000
S          -1.772000     -3.540000     -2.372000
N          -3.308000     -3.118000     -2.899000
C          -6.414000     -2.983000     -3.216000
S          -5.734000     -1.577000     -4.146000
C          -7.766000     -2.903000     -3.258000
C          -7.332000     -0.862000     -4.404000
S          -8.993000     -3.836000     -2.376000
C          -8.309000     -1.725000     -3.919000
C          -7.568000      0.553000     -4.803000
C         -10.204000     -2.646000     -2.900000
C          -9.715000     -1.600000     -3.745000
N          -8.706000      0.836000     -5.463000
S          -6.209000      1.541000     -5.170000
C          -8.605000      2.096000     -6.119000
C          -7.321000      2.610000     -6.082000
C          -2.606000    -10.656000      1.786000
H          -1.758000     -9.966000     -0.696000
H          -2.575000     -7.919000     -1.946000
H          -4.671000     -6.756000      1.543000
H          -6.307000     -6.682000     -0.666000
H         -11.159000     -2.847000     -2.433000
H         -10.325000     -0.820000     -4.185000
H          -9.460000      2.462000     -6.672000
H          -6.921000      3.596000     -6.281000
H          -1.692000    -11.022000      1.302000
C          -3.764000    -11.722000      1.662000
H          -2.436000    -10.584000      2.868000
H          -3.698000    -12.273000      0.716000
H          -4.744000    -11.233000      1.588000
C          -3.814000    -12.793000      2.779000
H          -2.935000    -13.394000      2.517000
C          -5.066000    -13.555000      2.823000
H          -3.544000    -12.442000      3.782000
H          -4.789000    -14.483000      3.339000
H          -5.332000    -13.733000      1.774000
C          -6.260000    -12.968000      3.627000
H          -5.927000    -12.810000      4.660000
C          -7.432000    -13.989000      3.786000
H          -6.554000    -11.990000      3.225000
H          -7.690000    -14.239000      2.749000
H          -8.284000    -13.392000      4.133000
H          -7.242000    -14.778000      4.524000
C          -7.859000     -3.414000      1.395000
C          -8.824000     -2.371000      1.202000
N          -6.611000     -3.394000      0.976000
C          -8.454000     -1.260000      0.461000
C          -6.278000     -2.285000      0.326000
C          -7.141000     -1.137000      0.010000
C          -6.657000      0.119000     -0.777000
C          -7.589000      1.134000     -1.174000
C          -5.336000      0.447000     -1.150000
N          -7.246000      2.341000     -1.717000
N          -4.305000     -0.377000     -0.851000
C          -5.030000      1.660000     -1.774000
C          -5.987000      2.629000     -2.009000
S          -3.043000      0.387000     -1.547000
N          -3.754000      1.725000     -2.170000
C          -5.640000      3.934000     -2.459000
S          -4.027000      4.670000     -2.479000
C          -6.517000      4.826000     -3.045000
C          -4.531000      6.132000     -3.253000
S          -8.205000      4.619000     -3.265000
C          -5.919000      5.997000     -3.465000
C          -3.778000      7.255000     -3.606000
C          -8.232000      6.242000     -3.957000
C          -6.990000      6.827000     -4.075000
N          -2.493000      7.006000     -3.840000
S          -4.335000      8.912000     -4.030000
C          -1.795000      8.151000     -4.072000
C          -2.613000      9.238000     -4.237000
C          -8.238000     -4.574000      2.264000
H          -9.835000     -2.428000      1.593000
H          -9.216000     -0.562000      0.128000
H          -5.272000     -2.333000     -0.088000
H          -8.639000      0.848000     -1.214000
H          -9.183000      6.678000     -4.232000
H          -6.912000      7.852000     -4.418000
H          -0.738000      8.141000     -4.300000
H          -2.266000     10.245000     -4.422000
H          -7.578000     -4.661000      3.135000
C          -8.201000     -5.869000      1.460000
H          -9.254000     -4.476000      2.667000
H          -7.146000     -6.161000      1.526000
H          -8.380000     -5.724000      0.387000
C          -9.177000     -6.881000      2.153000
H          -8.817000     -6.834000      3.188000
C          -8.859000     -8.279000      1.763000
H         -10.254000     -6.754000      1.992000
H          -7.792000     -8.488000      1.910000
H          -9.166000     -8.407000      0.718000
C          -9.653000     -9.284000      2.670000
H          -9.403000     -9.154000      3.730000
C          -9.278000    -10.799000      2.490000
H         -10.742000     -9.159000      2.611000
H          -9.582000    -11.467000      3.305000
H          -8.207000    -10.888000      2.269000
H          -9.816000    -11.202000      1.624000
$end

--------------------------------------------------------------

             Standard Nuclear Orientation (Angstroms)
    I     Atom           X                Y                Z
 ----------------------------------------------------------------
    1      C      -7.8339105896    -3.2249083458    -0.0184285329
    2      C      -7.2008322755    -3.6860701727    -1.2050180228
    3      N      -7.1452442810    -2.5522310619     0.8952628741
    4      C      -5.9348015149    -3.2404449483    -1.4461264478
    5      C      -5.8710177131    -2.1040141872     0.5923069585
    6      C      -5.1772614179    -2.4135731741    -0.5760407793
    7      C      -3.9623665602    -1.6403250828    -0.8496972687
    8      C      -3.9053231402    -0.2695979786    -0.9524506340
    9      C      -2.8188748970    -2.3588699183    -1.0934966441
   10      N      -2.8036658223     0.4218624987    -1.3492170165
   11      N      -2.7018079625    -3.7009563831    -0.9212141612
   12      C      -1.6454844391    -1.6958637868    -1.3945409977
   13      C      -1.6321122947    -0.2912013281    -1.6095539345
   14      S      -1.1620419855    -4.1188968900    -1.3213359788
   15      N      -0.6225253182    -2.5737042702    -1.6906739453
   16      C      -0.4595471387     0.5342270865    -1.9737831031
   17      S       1.1923358917    -0.1122009368    -2.3707078625
   18      C      -0.4008740730     1.8877281431    -1.9994805956
   19      C       1.9158930395     1.5025835681    -2.3888477780
   20      S      -1.6037226432     3.0925899441    -1.4941041442
   21      C       0.9180862148     2.4586842439    -2.2314437181
   22      C       3.3769179078     1.7728527469    -2.2914675691
   23      C      -0.3347158414     4.3318328658    -1.5994403570
   24      C       0.9452950164     3.8675860471    -2.0391096592
   25      N       3.8393235609     2.9165486543    -2.8289372739
   26      S       4.4614467667     0.4381202626    -2.2920588667
   27      C       5.2484650478     2.8457314858    -3.0224371407
   28      C       5.7491997143     1.5748567154    -2.8025209931
   29      C      -9.2786573905    -3.4547942862     0.1957329386
   30      H      -7.7754156094    -4.2890413194    -1.9018428133
   31      H      -5.4465106655    -3.4235677391    -2.3991910258
   32      H      -5.5719660228    -1.2945561513     1.2573752067
   33      H      -4.7970056799     0.3396294785    -0.8139834765
   34      H      -0.7026723680     5.2822464106    -1.2363465832
   35      H       1.8137124660     4.4960170890    -2.1973043457
   36      H       5.7594925702     3.7087135625    -3.4285194066
   37      H       6.7535510850     1.1990208760    -2.6547957550
   38      H      -9.4397726365    -4.3782325802    -0.3742772320
   39      C     -10.2670110005    -2.3236227284    -0.2903782095
   40      H      -9.5706933933    -3.6214279041     1.2406043233
   41      H     -10.4663158495    -2.4045407760    -1.3658329258
   42      H      -9.8040263059    -1.3319634131    -0.2052079386
   43      C     -11.6519980493    -2.2984719258     0.4012924574
   44      H     -12.1097930732    -3.1924028261    -0.0389316464
   45      C     -12.4127330696    -1.0655904664     0.1746439723
   46      H     -11.6525142894    -2.5583043015     1.4664670300
   47      H     -13.4536226072    -1.3646663567     0.3514817010
   48      H     -12.2337773366    -0.8055543020    -0.8756878985
   49      C     -12.1574720265     0.1436693839     1.1175932893
   50      H     -12.3483556999    -0.1838624729     2.1467814675
   51      C     -13.1989005047     1.2903491525     0.9130004421
   52      H     -11.1082115050     0.4611356643     1.0647584645
   53      H     -13.0915871619     1.5406285576    -0.1501444520
   54      H     -12.7728284752     2.1573104554     1.4321947457
   55      H     -14.1855173612     1.0819914697     1.3447865634
   56      C      -2.4481426794     1.9747080806     2.2101874132
   57      C      -1.4232038674     2.9648701495     2.3695690596
   58      N      -2.2600713520     0.7269869227     1.8343069960
   59      C      -0.1196588343     2.6213384113     2.0485421271
   60      C      -0.9898394882     0.4205239140     1.5979567548
   61      C       0.1776265392     1.3111326513     1.6777574550
   62      C       1.6357512427     0.8571475240     1.3632247009
   63      C       2.7036490001     1.8133388883     1.3213862682
   64      C       2.1000159527    -0.4558874937     1.1348580629
   65      N       4.0304131235     1.4994487377     1.2188341630
   66      N       1.2471462324    -1.5064759189     1.1495277974
   67      C       3.4588140473    -0.7327560735     0.9576786974
   68      C       4.4283785552     0.2475231273     1.0527173927
   69      S       2.2291504202    -2.7502318892     0.7628821439
   70      N       3.6821608077    -2.0073258199     0.6188495571
   71      C       5.8162442529    -0.0678159003     1.0707202474
   72      S       6.5526473921    -1.6621944302     1.3147131161
   73      C       6.8331133557     0.8300891234     0.8100810403
   74      C       8.1778754658    -1.1233806986     1.0721240166
   75      S       6.6737497540     2.5121541485     0.5170733716
   76      C       8.0904408058     0.2605635720     0.8137319965
   77      C       9.3710154817    -1.8489478429     1.1242414002
   78      C       8.4338579966     2.5782020337     0.4104026101
   79      C       9.0525867455     1.3508456761     0.5077889888
   80      N       9.2444701080    -3.1400310112     0.8325694596
   81      S      11.0609912158    -1.2518420153     1.2762961553
   82      C      10.4164002965    -3.8099001865     1.0055085278
   83      C      11.4767004404    -2.9655679294     1.2074606126
   84      C      -3.8410529550     2.3262101947     2.6352159155
   85      H      -1.6313069998     3.9747110729     2.7089293338
   86      H       0.6321270770     3.3998521871     1.9621057659
   87      H      -0.8729807536    -0.5869416156     1.2016068552
   88      H       2.4239189486     2.8559056790     1.1775058136
   89      H       8.9151637186     3.5392769302     0.2887397761
   90      H      10.1347334654     1.2976689344     0.5298957954
   91      H      10.5076774721    -4.8671482469     0.7975950458
   92      H      12.4949121567    -3.2878819741     1.3749167482
   93      H      -4.2007187563     1.6655036649     3.4326602038
   94      C      -4.7892541082     2.2561304584     1.4432371391
   95      H      -3.9073648188     3.3448905477     3.0379094406
   96      H      -5.0623596420     1.1943427223     1.4174462324
   97      H      -4.2961340088     2.4371275783     0.4796668977
   98      C      -5.9972431849     3.2078512644     1.7464843946
   99      H      -6.2926955822     2.8505920923     2.7405204930
  100      C      -7.1751870963     2.8549048521     0.9125149876
  101      H      -5.8480597459     4.2874266273     1.6271515101
  102      H      -7.3970985010     1.7832835678     0.9910143608
  103      H      -6.9514319548     3.1571676979    -0.1176446159
  104      C      -8.4443759889     3.6251581569     1.4214151754
  105      H      -8.6725871996     3.3799485702     2.4658250096
  106      C      -9.8017707477     3.2126412683     0.7464638546
  107      H      -8.3316342499     4.7168255215     1.3973597069
  108      H     -10.7115855601     3.5012273056     1.2866676180
  109      H      -9.7869095335     2.1394584806     0.5187340837
  110      H      -9.9023636677     3.7393037132    -0.2097352532
 ----------------------------------------------------------------

   10   -5663.4714109857      4.84E-06 Convergence criterion met
 Total energy in the final basis set = -5663.4714109857

                    Orbital Energies (a.u.)
 --------------------------------------------------------------

 Alpha MOs
 -- Occupied --
-88.988 -88.982 -88.934 -88.925 -88.922 -88.921 -88.910 -88.908
-14.384 -14.384 -14.380 -14.376 -14.351 -14.348 -14.346 -14.342
-14.327 -14.318 -10.270 -10.269 -10.266 -10.253 -10.252 -10.251
-10.246 -10.244 -10.243 -10.242 -10.240 -10.240 -10.237 -10.235
-10.235 -10.234 -10.231 -10.231 -10.229 -10.229 -10.229 -10.226
-10.224 -10.224 -10.223 -10.222 -10.221 -10.216 -10.214 -10.212
-10.210 -10.208 -10.205 -10.205 -10.204 -10.204 -10.195 -10.193
-10.183 -10.182 -10.178 -10.177 -10.175 -10.175 -10.175 -10.173
-10.172 -10.171 -10.171 -10.169  -8.043  -8.037  -7.994  -7.984
 -7.983  -7.979  -7.970  -7.967  -6.008  -6.002  -6.002  -6.000
 -5.997  -5.995  -5.958  -5.955  -5.951  -5.948  -5.947  -5.944
 -5.944  -5.944  -5.941  -5.940  -5.940  -5.936  -5.935  -5.932
 -5.931  -5.928  -5.927  -5.924  -1.039  -1.021  -0.970  -0.960
 -0.953  -0.948  -0.944  -0.928  -0.916  -0.907  -0.900  -0.887
 -0.849  -0.833  -0.832  -0.827  -0.809  -0.808  -0.807  -0.803
 -0.801  -0.801  -0.795  -0.792  -0.782  -0.779  -0.769  -0.764
 -0.747  -0.746  -0.739  -0.737  -0.727  -0.718  -0.711  -0.710
 -0.696  -0.692  -0.672  -0.671  -0.653  -0.649  -0.645  -0.640
 -0.635  -0.628  -0.625  -0.621  -0.609  -0.605  -0.598  -0.595
 -0.592  -0.590  -0.581  -0.579  -0.574  -0.574  -0.568  -0.560
 -0.545  -0.544  -0.540  -0.531  -0.524  -0.519  -0.518  -0.506
 -0.505  -0.502  -0.500  -0.495  -0.488  -0.488  -0.481  -0.476
 -0.474  -0.468  -0.467  -0.465  -0.464  -0.459  -0.452  -0.447
 -0.445  -0.441  -0.439  -0.436  -0.433  -0.432  -0.431  -0.429
 -0.424  -0.422  -0.420  -0.418  -0.417  -0.415  -0.413  -0.411
 -0.410  -0.407  -0.402  -0.401  -0.399  -0.397  -0.397  -0.395
 -0.392  -0.388  -0.388  -0.387  -0.384  -0.383  -0.381  -0.381
 -0.378  -0.376  -0.369  -0.368  -0.362  -0.360  -0.357  -0.355
 -0.353  -0.352  -0.347  -0.344  -0.342  -0.341  -0.340  -0.336
 -0.334  -0.332  -0.330  -0.328  -0.326  -0.325  -0.323  -0.319
 -0.314  -0.311  -0.308  -0.306  -0.302  -0.299  -0.297  -0.296
 -0.295  -0.291  -0.288  -0.286  -0.285  -0.280  -0.277  -0.275
 -0.274  -0.274  -0.265  -0.260  -0.255  -0.252  -0.248  -0.246
 -0.244  -0.237  -0.230  -0.227  -0.194  -0.192

          Ground-State Mulliken Net Atomic Charges

     Atom                 Charge (a.u.)
  ----------------------------------------
      1 C                     0.282470
      2 C                    -0.112392
      3 N                    -0.488898
      4 C                    -0.052079
      5 C                     0.037216
      6 C                     0.048132
      7 C                     0.005793
      8 C                     0.106035
      9 C                     0.246572
     10 N                    -0.535836
     11 N                    -0.551349
     12 C                     0.209408
     13 C                     0.297967
     14 S                     0.604509
     15 N                    -0.572396
     16 C                    -0.229423
     17 S                     0.307095
     18 C                    -0.105173
     19 C                    -0.236603
     20 S                     0.303744
     21 C                     0.141137
     22 C                     0.049867
     23 C                    -0.326040
     24 C                    -0.069319
     25 N                    -0.425048
     26 S                     0.277666
     27 C                     0.124740
     28 C                    -0.307705
     29 C                    -0.225686
     30 H                     0.091277
     31 H                     0.088363
     32 H                     0.111981
     33 H                     0.117806
     34 H                     0.129981
     35 H                     0.130915
     36 H                     0.122910
     37 H                     0.150279
     38 H                     0.092375
     39 C                    -0.184589
     40 H                     0.119822
     41 H                     0.092913
     42 H                     0.103037
     43 C                    -0.174237
     44 H                     0.089830
     45 C                    -0.163571
     46 H                     0.088169
     47 H                     0.087753
     48 H                     0.084045
     49 C                    -0.188521
     50 H                     0.090779
     51 C                    -0.319478
     52 H                     0.104208
     53 H                     0.107040
     54 H                     0.103350
     55 H                     0.108549
     56 C                     0.288270
     57 C                    -0.127428
     58 N                    -0.475111
     59 C                    -0.071608
     60 C                     0.071886
     61 C                     0.043701
     62 C                     0.054675
     63 C                     0.038104
     64 C                     0.219133
     65 N                    -0.547642
     66 N                    -0.550711
     67 C                     0.199561
     68 C                     0.333173
     69 S                     0.601974
     70 N                    -0.555241
     71 C                    -0.206463
     72 S                     0.365115
     73 C                    -0.125003
     74 C                    -0.194440
     75 S                     0.298783
     76 C                     0.112435
     77 C                     0.044308
     78 C                    -0.298321
     79 C                    -0.102557
     80 N                    -0.421054
     81 S                     0.269698
     82 C                     0.131488
     83 C                    -0.306645
     84 C                    -0.237088
     85 H                     0.090558
     86 H                     0.094823
     87 H                     0.120198
     88 H                     0.116954
     89 H                     0.124583
     90 H                     0.108003
     91 H                     0.120023
     92 H                     0.127601
     93 H                     0.117620
     94 C                    -0.203051
     95 H                     0.094157
     96 H                     0.115258
     97 H                     0.119502
     98 C                    -0.169230
     99 H                     0.098474
    100 C                    -0.176581
    101 H                     0.094753
    102 H                     0.097053
    103 H                     0.091231
    104 C                    -0.185092
    105 H                     0.095399
    106 C                    -0.332661
    107 H                     0.088361
    108 H                     0.102657
    109 H                     0.108902
    110 H                     0.098123
  ----------------------------------------
  Sum of atomic charges =     0.000000

                    Cartesian Multipole Moments
 -----------------------------------------------------------------
    Charge (ESU x 10^10)
                 0.0000
    Dipole Moment (Debye)
         X       3.6168      Y       1.2272      Z      -0.5575
       Tot       3.8599
    Quadrupole Moments (Debye-Ang)
        XX    -377.8475     XY      -0.5386     YY    -419.3122
        XZ       4.6951     YZ      10.4921     ZZ    -455.7425

 Total job time:  111.63s(wall), 1332.21s(cpu)
        *  Thank you very much for using Q-Chem.  Have a nice day.  *
