 Q-Chem 4.4, Q-Chem, Inc., Pleasanton, CA (2016)
 Q-Chem 4.4.2 for Intel X86 Linux

User input:
--------------------------------------------------------------
$comment
SP
$end

$rem
MEM_STATIC 5000
MEM_TOTAL 20000
JOBTYPE SP
EXCHANGE B3LYP
BASIS 6-31g(d,p)
$end

$molecule
0 1
C          26.601000     25.159000     -2.806000
C          26.070000     23.890000     -3.027000
N          25.989000     26.214000     -2.308000
C          24.787000     23.652000     -2.486000
C          24.701000     26.041000     -1.996000
C          24.041000     24.772000     -2.011000
C          22.631000     24.633000     -1.626000
C          22.195000     23.426000     -1.090000
C          21.623000     25.558000     -1.829000
N          20.951000     23.201000     -0.616000
N          21.831000     26.790000     -2.364000
C          20.304000     25.277000     -1.604000
C          20.004000     24.066000     -0.919000
S          20.325000     27.402000     -2.650000
N          19.431000     26.244000     -1.968000
C          18.563000     23.692000     -0.735000
S          17.096000     24.481000     -1.522000
C          18.103000     22.658000     -0.061000
C          15.920000     23.477000     -0.652000
S          19.048000     21.480000      0.863000
C          16.708000     22.501000     -0.093000
C          14.633000     23.152000     -1.053000
C          17.436000     20.676000      1.149000
C          16.351000     21.311000      0.555000
N          13.772000     22.771000     -0.149000
S          14.350000     22.698000     -2.696000
C          12.762000     22.072000     -0.776000
C          12.983000     21.795000     -2.098000
C          27.959000     25.597000     -3.231000
H          26.677000     23.114000     -3.485000
H          24.350000     22.659000     -2.542000
H          24.246000     26.987000     -1.706000
H          22.870000     22.576000     -1.000000
H          17.460000     19.788000      1.766000
H          15.332000     20.958000      0.662000
H          11.985000     21.662000     -0.145000
H          12.330000     21.240000     -2.759000
H          28.214000     25.082000     -4.165000
C          28.968000     25.241000     -2.157000
H          28.012000     26.661000     -3.494000
H          29.121000     24.156000     -2.123000
H          28.500000     25.459000     -1.189000
C          30.263000     26.097000     -2.275000
H          29.937000     27.145000     -2.288000
C          31.101000     25.780000     -3.614000
H          30.970000     25.959000     -1.448000
H          30.607000     26.118000     -4.534000
H          31.115000     24.702000     -3.819000
C          32.515000     26.379000     -3.577000
H          32.322000     27.419000     -3.290000
C          33.221000     26.307000     -4.904000
H          33.100000     26.074000     -2.700000
H          33.813000     25.388000     -4.991000
H          33.986000     27.093000     -4.932000
H          32.700000     26.432000     -5.861000
C          19.209000     28.692000    -12.215000
C          18.605000     27.473000    -11.954000
N          19.279000     29.647000    -11.336000
C          17.989000     27.273000    -10.772000
C          18.701000     29.441000    -10.153000
C          18.038000     28.237000     -9.767000
C          17.501000     28.090000     -8.421000
C          16.350000     27.281000     -8.183000
C          18.002000     28.596000     -7.216000
N          15.883000     26.978000     -6.983000
N          19.179000     29.333000     -7.114000
C          17.458000     28.327000     -5.945000
C          16.353000     27.496000     -5.825000
S          19.350000     29.632000     -5.590000
N          18.098000     28.906000     -4.924000
C          15.617000     27.163000     -4.582000
S          16.046000     27.740000     -2.988000
C          14.436000     26.445000     -4.503000
C          14.677000     26.932000     -2.247000
S          13.440000     25.707000     -5.704000
C          13.897000     26.374000     -3.251000
C          14.259000     26.969000     -0.837000
C          12.205000     25.497000     -4.463000
C          12.566000     25.915000     -3.217000
N          14.781000     27.909000     -0.151000
S          13.083000     26.076000     -0.065000
C          14.036000     28.030000      1.044000
C          13.221000     27.002000      1.367000
C          19.951000     28.947000    -13.507000
H          18.729000     26.648000    -12.649000
H          17.555000     26.291000    -10.607000
H          18.688000     30.287000     -9.468000
H          15.677000     26.860000     -8.928000
H          11.341000     24.912000     -4.751000
H          11.928000     25.865000     -2.343000
H          14.301000     28.810000      1.746000
H          12.611000     26.850000      2.247000
H          20.964000     29.306000    -13.288000
C          19.170000     29.771000    -14.543000
H          20.078000     28.005000    -14.055000
H          19.885000     30.237000    -15.232000
H          18.713000     30.590000    -13.973000
C          18.002000     29.039000    -15.357000
H          18.280000     28.081000    -15.813000
C          17.512000     29.968000    -16.453000
H          17.229000     28.837000    -14.605000
H          18.309000     30.443000    -17.037000
H          16.870000     30.728000    -15.992000
C          16.685000     29.143000    -17.475000
H          17.426000     28.606000    -18.080000
C          15.705000     30.033000    -18.281000
H          16.157000     28.363000    -16.913000
H          14.885000     29.488000    -18.765000
H          16.230000     30.458000    -19.145000
H          15.187000     30.835000    -17.741000
$end

--------------------------------------------------------------

             Standard Nuclear Orientation (Angstroms)
    I     Atom           X                Y                Z
 ----------------------------------------------------------------
    1      C      -4.2984175214     6.7057799726     0.3505609789
    2      C      -4.3760749015     6.0979138804     1.6018128102
    3      N      -4.1642434452     6.1221250814    -0.8228602094
    4      C      -4.5136576236     4.6920392445     1.6005869699
    5      C      -4.0765084631     4.7887409009    -0.7982390765
    6      C      -4.2925719143     3.9974918260     0.3736941496
    7      C      -4.2169445228     2.5316727880     0.3376241401
    8      C      -4.9679426750     1.7958876533     1.2480432804
    9      C      -3.3837714870     1.7656395091    -0.4573058619
   10      N      -5.0549767886     0.4486288955     1.2605293699
   11      N      -2.5501481074     2.2891368818    -1.3945014454
   12      C      -3.2474853132     0.4142935322    -0.3003436709
   13      C      -4.1751501896    -0.2380594971     0.5596676095
   14      S      -1.5908497442     1.0349642517    -1.8753066702
   15      N      -2.3025969673    -0.1704269835    -1.0717073544
   16      C      -3.9955690872    -1.7050331614     0.8164786216
   17      S      -2.5474778120    -2.7487148550     0.3606944830
   18      C      -4.7990045912    -2.4812209060     1.5143725792
   19      C      -3.2776311608    -4.2557426179     0.9468987213
   20      S      -6.3327516929    -2.0243694582     2.2715988218
   21      C      -4.3688577913    -3.8107765319     1.6520445382
   22      C      -2.6182093513    -5.3958774419     1.3805465742
   23      C      -6.3375595368    -3.7417101122     2.8859879191
   24      C      -5.2380154545    -4.5030746593     2.5057079727
   25      N      -3.2626957798    -6.5309257837     1.3812574402
   26      S      -1.2437593514    -5.2341609045     2.4151426110
   27      C      -2.6271381371    -7.3926613031     2.2503422332
   28      C      -1.6372801035    -6.8266765293     3.0073734803
   29      C      -4.2169428109     8.1750086288     0.1239290584
   30      H      -4.4457413370     6.7027706971     2.5016371369
   31      H      -4.6699458955     4.1611580705     2.5354094960
   32      H      -3.8496193827     4.4007212244    -1.7902083683
   33      H      -5.5665326130     2.2912768079     2.0112632169
   34      H      -7.1983680788    -4.0238412606     3.4769360294
   35      H      -5.1218310916    -5.5455550744     2.7780217216
   36      H      -3.0698852316    -8.3707633061     2.3818012841
   37      H      -1.0383479938    -7.3214677485     3.7609097949
   38      H      -3.6621056790     8.6249299816     0.9559942802
   39      C      -5.6146382282     8.7590984622     0.0640994079
   40      H      -3.6300761752     8.4480468183    -0.7621362321
   41      H      -6.0755342098     8.7462005283     1.0586840134
   42      H      -6.2337610176     8.0574958384    -0.5086245483
   43      C      -5.6350342354    10.1338670734    -0.6661610035
   44      H      -5.1488484549     9.9720447601    -1.6368236255
   45      C      -4.8465255729    11.2823548408     0.1430879924
   46      H      -6.6405682551    10.5360269689    -0.8393393901
   47      H      -3.7590118391    11.1363298409     0.1689835160
   48      H      -5.0497783913    11.2104764852     1.2191115952
   49      C      -5.1321044396    12.6883624442    -0.4056863965
   50      H      -4.9554502030    12.5614992360    -1.4798916874
   51      C      -4.2248427857    13.7418273109     0.1701929884
   52      H      -6.2001410522    12.9376728628    -0.4446877981
   53      H      -4.6652065970    14.2023045962     1.0627367595
   54      H      -4.1750516417    14.5795456834    -0.5365981903
   55      H      -3.1708085219    13.5524340815     0.4069565317
   56      C       7.6173754478     3.0124082829     0.5115500318
   57      C       7.1584302964     2.1984199090     1.5341400157
   58      N       7.1587416839     2.9456525019    -0.7028488880
   59      C       6.2533571603     1.2363576205     1.2660751514
   60      C       6.2382307209     2.0183742278    -0.9651913537
   61      C       5.6942498302     1.1133557942    -0.0043545177
   62      C       4.6380465758     0.1841373503    -0.3820869214
   63      C       4.5224955819    -1.0840583452     0.2615384710
   64      C       3.5945798086     0.3662236764    -1.2970096918
   65      N       3.5166389199    -1.9247230373     0.0842442215
   66      N       3.3781136337     1.5476665272    -2.0014507364
   67      C       2.5636213911    -0.5637688528    -1.5336035147
   68      C       2.5287693963    -1.7562557943    -0.8245575129
   69      S       2.0903283559     1.2946477388    -2.8492765268
   70      N       1.6616162156    -0.1855142732    -2.4449717917
   71      C       1.5628269351    -2.8679482535    -0.9940539375
   72      S       0.2266887709    -2.8604146316    -2.1220982854
   73      C       1.6285177228    -4.1046462488    -0.3753546658
   74      C      -0.2582500165    -4.4846312314    -1.6716975645
   75      S       2.7492560424    -4.7870255783     0.7459682447
   76      C       0.6821009800    -4.9973647977    -0.7881681120
   77      C      -1.3449895735    -5.2955726494    -2.2422798564
   78      C       1.9917947527    -6.3528104112     0.4561816822
   79      C       0.9273546381    -6.3271662182    -0.3946241816
   80      N      -1.7877466504    -4.8797386411    -3.3637646973
   81      S      -1.9502153971    -6.7582657307    -1.7220494723
   82      C      -2.5492444972    -5.9239723278    -3.9359430233
   83      C      -2.9263592884    -6.9298741620    -3.1166238339
   84      C       8.5969450669     4.1338148779     0.7718260584
   85      H       7.4377351322     2.4111344109     2.5616454168
   86      H       5.9061061866     0.6438020360     2.1076211338
   87      H       5.9386904718     1.9163540543    -2.0068138973
   88      H       5.2487055146    -1.5544671853     0.9222423811
   89      H       2.3221855438    -7.1623933984     1.0942117067
   90      H       0.3523049736    -7.1976661530    -0.6861164574
   91      H      -2.9779796384    -5.7774127074    -4.9188649207
   92      H      -3.5516592934    -7.7895608865    -3.3154771452
   93      H       8.1988956329     5.0740820535     0.3712448724
   94      C      10.0508939785     3.8172848480     0.3870218191
   95      H       8.7052542100     4.2895804235     1.8524755040
   96      H      10.5844943729     4.7617409563     0.2246171436
   97      H       9.9882594969     3.3265151490    -0.5926373177
   98      C      10.8906686395     2.8576610244     1.3547741820
   99      H      10.8631771848     3.1264227305     2.4177865833
  100      C      12.3387354547     2.8481987636     0.8993952581
  101      H      10.4135063546     1.8754348131     1.2480744927
  102      H      12.7565241880     3.8399804940     0.6903221281
  103      H      12.4116241288     2.2072110565     0.0127685044
  104      C      13.2165380048     2.2601995086     2.0363902270
  105      H      13.3157992695     3.0679839359     2.7719896562
  106      C      14.5571438865     1.6959514559     1.5010996470
  107      H      12.6228015065     1.4877013140     2.5401277676
  108      H      15.0590711970     0.9918983798     2.1764212303
  109      H      15.2921150150     2.5076204189     1.4398058091
  110      H      14.5348464946     1.1542093857     0.5476079818
 ----------------------------------------------------------------

    9   -5663.4762138231      8.54E-06 Convergence criterion met
 Total energy in the final basis set = -5663.4762138231

                    Orbital Energies (a.u.)
 --------------------------------------------------------------

 Alpha MOs
 -- Occupied --
-88.990 -88.988 -88.922 -88.922 -88.917 -88.911 -88.907 -88.903
-14.384 -14.381 -14.380 -14.377 -14.351 -14.341 -14.339 -14.332
-14.324 -14.323 -10.263 -10.258 -10.258 -10.258 -10.257 -10.250
-10.248 -10.247 -10.238 -10.238 -10.237 -10.236 -10.234 -10.227
-10.226 -10.225 -10.224 -10.224 -10.223 -10.222 -10.222 -10.222
-10.221 -10.221 -10.221 -10.220 -10.220 -10.220 -10.219 -10.218
-10.214 -10.206 -10.203 -10.201 -10.200 -10.198 -10.192 -10.191
-10.181 -10.181 -10.180 -10.180 -10.179 -10.177 -10.176 -10.175
-10.174 -10.173 -10.172 -10.170  -8.046  -8.043  -7.983  -7.981
 -7.980  -7.969  -7.967  -7.962  -6.011  -6.008  -6.005  -6.005
 -6.002  -6.001  -5.947  -5.945  -5.944  -5.944  -5.941  -5.940
 -5.940  -5.937  -5.937  -5.933  -5.932  -5.930  -5.928  -5.927
 -5.925  -5.924  -5.923  -5.918  -1.055  -1.038  -0.981  -0.977
 -0.967  -0.960  -0.955  -0.949  -0.919  -0.912  -0.910  -0.900
 -0.848  -0.839  -0.838  -0.830  -0.814  -0.812  -0.811  -0.806
 -0.804  -0.804  -0.802  -0.800  -0.786  -0.784  -0.772  -0.771
 -0.748  -0.748  -0.741  -0.739  -0.725  -0.714  -0.712  -0.704
 -0.696  -0.689  -0.675  -0.675  -0.656  -0.651  -0.650  -0.649
 -0.636  -0.633  -0.628  -0.627  -0.614  -0.612  -0.599  -0.595
 -0.594  -0.591  -0.586  -0.580  -0.576  -0.573  -0.572  -0.568
 -0.550  -0.546  -0.544  -0.543  -0.528  -0.523  -0.516  -0.515
 -0.512  -0.510  -0.502  -0.492  -0.490  -0.484  -0.481  -0.479
 -0.477  -0.474  -0.471  -0.467  -0.465  -0.456  -0.449  -0.447
 -0.443  -0.440  -0.439  -0.437  -0.435  -0.432  -0.431  -0.429
 -0.428  -0.423  -0.422  -0.420  -0.419  -0.418  -0.416  -0.414
 -0.413  -0.411  -0.408  -0.407  -0.403  -0.399  -0.395  -0.394
 -0.393  -0.392  -0.390  -0.389  -0.389  -0.387  -0.384  -0.383
 -0.379  -0.376  -0.374  -0.366  -0.366  -0.364  -0.361  -0.355
 -0.354  -0.352  -0.351  -0.349  -0.347  -0.346  -0.341  -0.338
 -0.334  -0.333  -0.329  -0.324  -0.323  -0.322  -0.321  -0.318
 -0.316  -0.315  -0.308  -0.304  -0.303  -0.301  -0.299  -0.297
 -0.296  -0.295  -0.291  -0.290  -0.288  -0.285  -0.281  -0.276
 -0.273  -0.271  -0.267  -0.265  -0.254  -0.254  -0.250  -0.248
 -0.243  -0.238  -0.233  -0.226  -0.195  -0.192

          Ground-State Mulliken Net Atomic Charges

     Atom                 Charge (a.u.)
  ----------------------------------------
      1 C                     0.261878
      2 C                    -0.117832
      3 N                    -0.465718
      4 C                    -0.076734
      5 C                     0.086351
      6 C                     0.017537
      7 C                     0.072823
      8 C                     0.036392
      9 C                     0.226031
     10 N                    -0.521674
     11 N                    -0.573990
     12 C                     0.206426
     13 C                     0.302696
     14 S                     0.618958
     15 N                    -0.548222
     16 C                    -0.229508
     17 S                     0.314370
     18 C                    -0.077042
     19 C                    -0.224159
     20 S                     0.265418
     21 C                     0.131464
     22 C                     0.030778
     23 C                    -0.303702
     24 C                    -0.056369
     25 N                    -0.398183
     26 S                     0.295060
     27 C                     0.095411
     28 C                    -0.300003
     29 C                    -0.207178
     30 H                     0.097726
     31 H                     0.103527
     32 H                     0.121650
     33 H                     0.109227
     34 H                     0.119987
     35 H                     0.114416
     36 H                     0.108615
     37 H                     0.128675
     38 H                     0.087522
     39 C                    -0.180774
     40 H                     0.118373
     41 H                     0.090063
     42 H                     0.103502
     43 C                    -0.189150
     44 H                     0.102684
     45 C                    -0.172135
     46 H                     0.090222
     47 H                     0.092263
     48 H                     0.084720
     49 C                    -0.175956
     50 H                     0.095558
     51 C                    -0.327253
     52 H                     0.094273
     53 H                     0.104494
     54 H                     0.099452
     55 H                     0.106346
     56 C                     0.282015
     57 C                    -0.118932
     58 N                    -0.474674
     59 C                    -0.063273
     60 C                     0.078723
     61 C                     0.039673
     62 C                     0.037204
     63 C                     0.042737
     64 C                     0.183933
     65 N                    -0.534521
     66 N                    -0.516146
     67 C                     0.183437
     68 C                     0.338044
     69 S                     0.615126
     70 N                    -0.569548
     71 C                    -0.232134
     72 S                     0.376795
     73 C                    -0.094011
     74 C                    -0.223824
     75 S                     0.270735
     76 C                     0.114619
     77 C                     0.069432
     78 C                    -0.318989
     79 C                    -0.053762
     80 N                    -0.418188
     81 S                     0.287169
     82 C                     0.078354
     83 C                    -0.284565
     84 C                    -0.224344
     85 H                     0.092115
     86 H                     0.095213
     87 H                     0.110336
     88 H                     0.115317
     89 H                     0.122437
     90 H                     0.118357
     91 H                     0.106873
     92 H                     0.143747
     93 H                     0.114825
     94 C                    -0.186793
     95 H                     0.087748
     96 H                     0.091878
     97 H                     0.110095
     98 C                    -0.189197
     99 H                     0.087044
    100 C                    -0.157906
    101 H                     0.101511
    102 H                     0.095841
    103 H                     0.095980
    104 C                    -0.187618
    105 H                     0.096532
    106 C                    -0.327361
    107 H                     0.093814
    108 H                     0.098336
    109 H                     0.104280
    110 H                     0.106205
  ----------------------------------------
  Sum of atomic charges =     0.000000

                    Cartesian Multipole Moments
 -----------------------------------------------------------------
    Charge (ESU x 10^10)
                 0.0000
    Dipole Moment (Debye)
         X       0.6223      Y      -2.7083      Z       4.0504
       Tot       4.9120
    Quadrupole Moments (Debye-Ang)
        XX    -439.7364     XY       1.4950     YY    -401.8959
        XZ       6.7288     YZ       5.8819     ZZ    -431.2011

 Total job time:  86.91s(wall), 1031.56s(cpu)
        *  Thank you very much for using Q-Chem.  Have a nice day.  *
