 Q-Chem 4.4, Q-Chem, Inc., Pleasanton, CA (2016)
 Q-Chem 4.4.2 for Intel X86 Linux

User input:
--------------------------------------------------------------
$comment
SP
$end

$rem
MEM_STATIC 5000
MEM_TOTAL 20000
JOBTYPE SP
EXCHANGE B3LYP
BASIS 6-31g(d,p)
$end

$molecule
0 1
C         -21.589000     -3.196000      2.155000
C         -22.912000     -3.369000      1.640000
N         -21.049000     -4.060000      3.029000
C         -23.615000     -4.526000      1.981000
C         -21.855000     -5.076000      3.456000
C         -23.148000     -5.431000      3.010000
C         -23.877000     -6.591000      3.553000
C         -25.312000     -6.539000      3.884000
C         -23.225000     -7.820000      4.059000
N         -26.033000     -7.626000      4.302000
N         -21.896000     -8.085000      4.031000
C         -23.952000     -8.797000      4.620000
C         -25.373000     -8.754000      4.594000
S         -21.594000     -9.549000      4.834000
N         -23.191000     -9.875000      5.099000
C         -26.325000     -9.875000      4.905000
S         -27.951000     -9.741000      5.687000
C         -26.082000    -11.128000      4.488000
C         -28.192000    -11.405000      5.498000
S         -25.051000    -11.761000      3.208000
C         -27.144000    -11.989000      4.786000
C         -29.507000    -11.981000      5.661000
C         -25.978000    -13.228000      3.173000
C         -27.014000    -13.244000      4.070000
N         -29.531000    -13.277000      5.849000
S         -31.006000    -11.080000      5.753000
C         -30.810000    -13.590000      6.066000
C         -31.730000    -12.572000      6.119000
C         -20.800000     -2.054000      1.696000
H         -23.262000     -2.555000      1.011000
H         -24.563000     -4.813000      1.535000
H         -21.274000     -5.770000      4.062000
H         -25.907000     -5.627000      3.880000
H         -25.736000    -13.973000      2.426000
H         -27.735000    -14.046000      4.179000
H         -31.099000    -14.601000      6.320000
H         -32.794000    -12.582000      6.316000
H         -19.769000     -2.264000      2.007000
C         -21.286000     -0.585000      2.162000
H         -20.739000     -2.101000      0.602000
H         -21.103000     -0.523000      3.242000
H         -22.344000     -0.467000      1.899000
C         -20.538000      0.549000      1.407000
H         -20.576000      1.392000      2.108000
C         -21.041000      0.885000     -0.049000
H         -19.493000      0.215000      1.372000
H         -22.057000      1.289000      0.041000
H         -21.076000      0.004000     -0.702000
C         -20.180000      1.997000     -0.749000
H         -20.286000      2.957000     -0.229000
C         -20.566000      2.250000     -2.202000
H         -19.115000      1.748000     -0.660000
H         -19.781000      2.902000     -2.605000
H         -21.544000      2.747000     -2.221000
H         -20.538000      1.316000     -2.776000
C         -19.964000    -12.146000      2.358000
C         -19.583000    -13.022000      1.347000
N         -21.137000    -12.355000      2.952000
C         -20.274000    -14.208000      1.083000
C         -21.927000    -13.410000      2.622000
C         -21.500000    -14.468000      1.749000
C         -22.319000    -15.619000      1.414000
C         -23.314000    -16.109000      2.261000
C         -22.370000    -16.289000      0.142000
N         -23.986000    -17.236000      2.037000
N         -21.577000    -15.981000     -0.853000
C         -23.144000    -17.373000     -0.135000
C         -23.990000    -17.810000      0.876000
S         -21.834000    -16.953000     -2.066000
N         -23.073000    -17.807000     -1.470000
C         -24.724000    -19.146000      0.777000
S         -24.699000    -20.216000     -0.649000
C         -25.429000    -19.770000      1.821000
C         -25.319000    -21.538000      0.324000
S         -25.913000    -19.147000      3.438000
C         -25.710000    -21.123000      1.521000
C         -25.404000    -22.911000     -0.179000
C         -26.492000    -20.837000      3.710000
C         -26.379000    -21.699000      2.606000
N         -25.925000    -23.912000      0.508000
S         -25.046000    -23.227000     -1.856000
C         -26.086000    -25.061000     -0.300000
C         -25.723000    -24.817000     -1.637000
C         -19.172000    -10.875000      2.766000
H         -18.700000    -12.760000      0.772000
H         -19.851000    -14.996000      0.468000
H         -22.867000    -13.484000      3.166000
H         -23.395000    -15.744000      3.284000
H         -26.729000    -21.151000      4.717000
H         -26.689000    -22.736000      2.671000
H         -26.372000    -25.987000      0.182000
H         -25.627000    -25.564000     -2.413000
H         -19.492000    -10.552000      3.765000
C         -19.306000     -9.665000      1.869000
H         -18.139000    -11.237000      2.835000
H         -20.374000     -9.417000      1.836000
H         -19.064000     -9.857000      0.816000
C         -18.570000     -8.477000      2.365000
H         -18.723000     -7.639000      1.673000
C         -17.028000     -8.650000      2.566000
H         -19.026000     -8.226000      3.331000
H         -16.852000     -9.476000      3.267000
H         -16.638000     -7.770000      3.091000
C         -16.178000     -8.777000      1.276000
H         -16.504000     -9.612000      0.644000
C         -14.673000     -9.074000      1.547000
H         -16.244000     -7.818000      0.747000
H         -14.055000     -9.154000      0.644000
H         -14.534000    -10.082000      1.958000
H         -14.208000     -8.425000      2.298000
$end

--------------------------------------------------------------

             Standard Nuclear Orientation (Angstroms)
    I     Atom           X                Y                Z
 ----------------------------------------------------------------
    1      C      -9.2540754330     0.4336039225    -0.6794701307
    2      C      -8.7504277573    -0.4008697552    -1.7261198811
    3      N      -8.6001650718     0.5868804524     0.4828033074
    4      C      -7.4929774129    -0.9860913782    -1.5665163621
    5      C      -7.4628059397    -0.1515209534     0.6421725903
    6      C      -6.7941350691    -0.9665703779    -0.2987650816
    7      C      -5.5426934454    -1.6754590418     0.0225769866
    8      C      -5.2943215930    -3.0681601037    -0.3899580727
    9      C      -4.5324562693    -1.1833402678     0.9863305652
   10      N      -4.1064613478    -3.7186608580    -0.1850902949
   11      N      -4.5721827876     0.0000814620     1.6460159547
   12      C      -3.4605792532    -1.9286383090     1.2919275093
   13      C      -3.1804985829    -3.1276127369     0.5807445936
   14      S      -3.2765470897     0.0824787857     2.7386493879
   15      N      -2.6196167695    -1.3543558225     2.2581716434
   16      C      -1.8997645834    -3.9145821014     0.5888465608
   17      S      -1.7210491623    -5.7102206446     0.4580833379
   18      C      -0.7065945043    -3.2990972248     0.5671548808
   19      C      -0.0362644844    -5.5553454214     0.4726522900
   20      S      -0.2300922424    -1.6773545290     0.0722344600
   21      C       0.3472500111    -4.2140135420     0.4656222762
   22      C       0.8075246596    -6.6618069705     0.0836372250
   23      C       1.4064884295    -2.2134058965    -0.1443195422
   24      C       1.5896804791    -3.5429463702     0.1330318627
   25      N       2.0583308841    -6.5717388467     0.4616683372
   26      S       0.2629277542    -8.1225857535    -0.7143637510
   27      C       2.6345405813    -7.7166463628     0.0900930901
   28      C       1.8487538220    -8.6851510826    -0.4844247745
   29      C     -10.5076837080     1.1537851958    -0.8966595101
   30      H      -9.4164638851    -0.5088827365    -2.5778628425
   31      H      -6.9680544761    -1.5192895005    -2.3540090115
   32      H      -6.9636882803     0.1450291463     1.5637867180
   33      H      -6.0461297751    -3.7153881739    -0.8390296511
   34      H       2.1304674180    -1.5125166489    -0.5395494585
   35      H       2.5232484734    -4.0824583657     0.0221102382
   36      H       3.6632888807    -7.9298858112     0.3477049574
   37      H       2.0836307223    -9.6856176487    -0.8234004253
   38      H     -10.5585482852     1.9043955122    -0.0980488743
   39      C     -11.8595832392     0.2731826294    -0.9873224988
   40      H     -10.3957213231     1.7658753596    -1.7997520057
   41      H     -12.0400346812    -0.1272479435     0.0180757474
   42      H     -11.7167662780    -0.5100044239    -1.7414301538
   43      C     -13.0745328822     1.1094518389    -1.4772573662
   44      H     -13.9362937840     0.5893096067    -1.0410072013
   45      C     -13.1812076411     1.3653945868    -3.0293381649
   46      H     -12.9827627208     2.0664589965    -0.9476145264
   47      H     -13.3515410983     0.3940925366    -3.5100988546
   48      H     -12.2696016975     1.8053827317    -3.4526347935
   49      C     -14.4042497275     2.2732016883    -3.4139409746
   50      H     -15.3511319842     1.7683110396    -3.1864867488
   51      C     -14.4568476095     2.6400251283    -4.8927540212
   52      H     -14.4086377758     3.1710302692    -2.7830435310
   53      H     -15.2375823075     3.4061852311    -4.9775480553
   54      H     -14.7181192493     1.7413004863    -5.4653665849
   55      H     -13.5137130426     3.1019255742    -5.2086039329
   56      C      -0.9392566956     3.1280738619     1.8479702957
   57      C      -0.0999861582     4.1010529339     1.3154342024
   58      N      -0.5155376988     1.8660572113     1.8330644150
   59      C       1.2271976185     3.8363692230     0.9657218123
   60      C       0.7114897485     1.5299913676     1.3561069825
   61      C       1.7071330628     2.5010938813     0.9962788310
   62      C       3.0343268101     2.1581747640     0.5180004225
   63      C       3.6724695986     0.9638176364     0.8553708913
   64      C       3.7898179371     2.8639823691    -0.4822764299
   65      N       4.9351263364     0.6856815703     0.5387839503
   66      N       3.3848110942     3.9906505095    -1.0117349823
   67      C       5.0375410283     2.5192990041    -0.9008949504
   68      C       5.5786436207     1.3600385247    -0.3604052416
   69      S       4.4757838703     4.5397821794    -2.0069408960
   70      N       5.5408804710     3.3230171112    -1.9383478937
   71      C       7.0491741527     0.9992699084    -0.5624917576
   72      S       8.1874473860     1.9107785269    -1.5883996895
   73      C       7.7377983816    -0.0274289183     0.1068535873
   74      C       9.5402833531     1.1027052228    -0.8166060764
   75      S       7.1231940298    -1.3539359261     1.1555263908
   76      C       9.1375514381     0.1003177215    -0.0478790105
   77      C      10.9301867638     1.5024649395    -1.0483897640
   78      C       8.8756192691    -1.7146182466     1.4089806157
   79      C       9.7684349851    -0.9241756853     0.6655361628
   80      N      11.9697802218     0.8720219638    -0.5314776860
   81      S      11.2792787724     2.7037568443    -2.2630426071
   82      C      13.1814769371     1.3259549130    -1.1013214786
   83      C      12.9604901775     2.2708845389    -2.1197255507
   84      C      -2.3822999923     3.3921756986     2.3549666108
   85      H      -0.5112912154     5.0990864342     1.1983219388
   86      H       1.9425430207     4.6308879069     0.7783211284
   87      H       0.9552416213     0.4694760770     1.3861792765
   88      H       3.2612450736     0.3202376537     1.6319107782
   89      H       9.1603872169    -2.3747983749     2.2163735895
   90      H      10.8409991665    -1.0555867888     0.7551531181
   91      H      14.1102864907     0.9865565963    -0.6611878673
   92      H      13.7214076017     2.8629093691    -2.6095339561
   93      H      -2.6971489050     2.5646620362     3.0036740183
   94      C      -3.4621072938     3.5400470693     1.3067227224
   95      H      -2.2682321974     4.2908820793     2.9731974573
   96      H      -3.4601689644     2.6115304141     0.7227106815
   97      H      -3.2530210074     4.3079261806     0.5511556537
   98      C      -4.8183388966     3.7253318856     1.8771272949
   99      H      -5.5474408934     3.8124504641     1.0614449844
  100      C      -5.0121624719     4.9591026440     2.8196431501
  101      H      -5.0301984156     2.8105536514     2.4449206784
  102      H      -4.3005564769     4.8850420220     3.6519801805
  103      H      -5.9933655259     4.8850757967     3.3032603466
  104      C      -4.9857890382     6.3521643707     2.1403696649
  105      H      -4.0548893100     6.5274199992     1.5875259613
  106      C      -5.0559277850     7.5388302777     3.1471365602
  107      H      -5.8639648056     6.4115171233     1.4852646562
  108      H      -5.0512921029     8.5320713796     2.6811069218
  109      H      -4.1379494256     7.6088001174     3.7444019562
  110      H      -5.8461186023     7.4508176225     3.9016425210
 ----------------------------------------------------------------

   10   -5663.4891114218      3.66E-06 Convergence criterion met
 Total energy in the final basis set = -5663.4891114218

                    Orbital Energies (a.u.)
 --------------------------------------------------------------

 Alpha MOs
 -- Occupied --
-88.996 -88.988 -88.925 -88.924 -88.922 -88.921 -88.912 -88.904
-14.391 -14.379 -14.377 -14.371 -14.348 -14.348 -14.343 -14.338
-14.332 -14.323 -10.268 -10.262 -10.261 -10.259 -10.255 -10.253
-10.252 -10.248 -10.243 -10.242 -10.239 -10.236 -10.236 -10.234
-10.233 -10.233 -10.233 -10.232 -10.232 -10.229 -10.228 -10.225
-10.222 -10.220 -10.220 -10.220 -10.219 -10.219 -10.215 -10.215
-10.213 -10.211 -10.204 -10.201 -10.199 -10.197 -10.194 -10.193
-10.191 -10.191 -10.186 -10.184 -10.182 -10.181 -10.180 -10.177
-10.177 -10.174 -10.174 -10.173  -8.053  -8.041  -7.987  -7.985
 -7.981  -7.981  -7.970  -7.965  -6.018  -6.012  -6.011  -6.006
 -6.001  -5.999  -5.951  -5.949  -5.947  -5.946  -5.946  -5.945
 -5.944  -5.942  -5.942  -5.942  -5.938  -5.937  -5.935  -5.932
 -5.930  -5.926  -5.926  -5.921  -1.058  -1.012  -0.983  -0.978
 -0.959  -0.949  -0.941  -0.929  -0.912  -0.911  -0.905  -0.873
 -0.847  -0.840  -0.836  -0.820  -0.818  -0.817  -0.811  -0.805
 -0.802  -0.799  -0.794  -0.789  -0.781  -0.781  -0.769  -0.759
 -0.751  -0.745  -0.742  -0.734  -0.729  -0.718  -0.710  -0.707
 -0.694  -0.685  -0.680  -0.669  -0.664  -0.658  -0.654  -0.634
 -0.633  -0.630  -0.629  -0.621  -0.610  -0.602  -0.598  -0.592
 -0.591  -0.590  -0.586  -0.581  -0.580  -0.576  -0.567  -0.553
 -0.551  -0.546  -0.545  -0.534  -0.525  -0.520  -0.513  -0.508
 -0.508  -0.498  -0.497  -0.495  -0.492  -0.484  -0.479  -0.479
 -0.472  -0.471  -0.466  -0.463  -0.460  -0.456  -0.453  -0.446
 -0.446  -0.442  -0.436  -0.434  -0.433  -0.431  -0.430  -0.428
 -0.425  -0.425  -0.423  -0.421  -0.419  -0.416  -0.415  -0.414
 -0.409  -0.407  -0.406  -0.405  -0.403  -0.401  -0.401  -0.397
 -0.395  -0.392  -0.390  -0.387  -0.385  -0.384  -0.380  -0.378
 -0.378  -0.376  -0.372  -0.369  -0.363  -0.360  -0.358  -0.357
 -0.353  -0.351  -0.350  -0.348  -0.347  -0.343  -0.342  -0.340
 -0.338  -0.334  -0.332  -0.331  -0.329  -0.326  -0.320  -0.320
 -0.318  -0.312  -0.310  -0.309  -0.305  -0.304  -0.302  -0.300
 -0.294  -0.293  -0.292  -0.291  -0.283  -0.281  -0.280  -0.280
 -0.277  -0.273  -0.271  -0.262  -0.254  -0.250  -0.246  -0.245
 -0.244  -0.243  -0.230  -0.222  -0.194  -0.188

          Ground-State Mulliken Net Atomic Charges

     Atom                 Charge (a.u.)
  ----------------------------------------
      1 C                     0.282724
      2 C                    -0.103938
      3 N                    -0.485822
      4 C                    -0.094194
      5 C                     0.055143
      6 C                     0.055134
      7 C                     0.012869
      8 C                     0.046717
      9 C                     0.293859
     10 N                    -0.487230
     11 N                    -0.612137
     12 C                     0.190198
     13 C                     0.246578
     14 S                     0.652795
     15 N                    -0.546690
     16 C                    -0.208817
     17 S                     0.309350
     18 C                    -0.094915
     19 C                    -0.200779
     20 S                     0.272429
     21 C                     0.114621
     22 C                     0.033706
     23 C                    -0.322990
     24 C                    -0.043014
     25 N                    -0.407062
     26 S                     0.282974
     27 C                     0.122885
     28 C                    -0.309085
     29 C                    -0.255509
     30 H                     0.090619
     31 H                     0.094210
     32 H                     0.119899
     33 H                     0.120564
     34 H                     0.139048
     35 H                     0.121849
     36 H                     0.102949
     37 H                     0.133855
     38 H                     0.116365
     39 C                    -0.183551
     40 H                     0.107516
     41 H                     0.109313
     42 H                     0.094149
     43 C                    -0.180008
     44 H                     0.093845
     45 C                    -0.173470
     46 H                     0.095982
     47 H                     0.091998
     48 H                     0.093520
     49 C                    -0.180375
     50 H                     0.093936
     51 C                    -0.313611
     52 H                     0.092785
     53 H                     0.102588
     54 H                     0.105564
     55 H                     0.102026
     56 C                     0.280799
     57 C                    -0.136302
     58 N                    -0.493117
     59 C                    -0.054515
     60 C                     0.076741
     61 C                     0.033153
     62 C                     0.066115
     63 C                     0.019155
     64 C                     0.219877
     65 N                    -0.499010
     66 N                    -0.539423
     67 C                     0.182640
     68 C                     0.303212
     69 S                     0.617105
     70 N                    -0.545501
     71 C                    -0.247015
     72 S                     0.313430
     73 C                    -0.119408
     74 C                    -0.250738
     75 S                     0.276771
     76 C                     0.202013
     77 C                     0.088700
     78 C                    -0.303940
     79 C                    -0.072066
     80 N                    -0.450965
     81 S                     0.264723
     82 C                     0.111183
     83 C                    -0.312622
     84 C                    -0.214669
     85 H                     0.085906
     86 H                     0.118025
     87 H                     0.112435
     88 H                     0.119441
     89 H                     0.127205
     90 H                     0.128084
     91 H                     0.121813
     92 H                     0.132863
     93 H                     0.095942
     94 C                    -0.175202
     95 H                     0.106301
     96 H                     0.114545
     97 H                     0.090790
     98 C                    -0.177271
     99 H                     0.097271
    100 C                    -0.179821
    101 H                     0.097063
    102 H                     0.087704
    103 H                     0.093560
    104 C                    -0.169335
    105 H                     0.092174
    106 C                    -0.326615
    107 H                     0.099588
    108 H                     0.099400
    109 H                     0.097388
    110 H                     0.103057
  ----------------------------------------
  Sum of atomic charges =     0.000000

                    Cartesian Multipole Moments
 -----------------------------------------------------------------
    Charge (ESU x 10^10)
                 0.0000
    Dipole Moment (Debye)
         X       1.2027      Y       2.1611      Z      -2.5344
       Tot       3.5412
    Quadrupole Moments (Debye-Ang)
        XX    -392.9790     XY       6.9249     YY    -407.4499
        XZ       7.9079     YZ       1.3463     ZZ    -443.9952

 Total job time:  90.25s(wall), 1062.48s(cpu)
        *  Thank you very much for using Q-Chem.  Have a nice day.  *
