 Q-Chem 4.4, Q-Chem, Inc., Pleasanton, CA (2016)
 Q-Chem 4.4.2 for Intel X86 Linux

User input:
--------------------------------------------------------------
$comment
SP
$end

$rem
MEM_STATIC 5000
MEM_TOTAL 20000
JOBTYPE SP
EXCHANGE B3LYP
BASIS 6-31g(d,p)
$end

$molecule
0 1
C          -6.372000     27.211000      9.212000
C          -5.215000     26.747000      8.552000
N          -6.460000     27.481000     10.521000
C          -4.104000     26.419000      9.338000
C          -5.399000     27.066000     11.297000
C          -4.162000     26.548000     10.722000
C          -3.028000     26.115000     11.636000
C          -2.079000     25.203000     11.075000
C          -2.735000     26.596000     12.942000
N          -0.965000     24.759000     11.694000
N          -3.434000     27.570000     13.606000
C          -1.543000     26.146000     13.576000
C          -0.679000     25.176000     12.946000
S          -2.593000     27.707000     15.016000
N          -1.385000     26.618000     14.814000
C           0.499000     24.434000     13.557000
S           0.954000     24.628000     15.276000
C           1.359000     23.647000     12.879000
C           2.342000     23.620000     15.038000
S           1.292000     22.958000     11.266000
C           2.420000     23.173000     13.727000
C           3.294000     23.275000     16.033000
C           2.622000     21.894000     11.834000
C           3.185000     22.193000     13.047000
N           4.530000     23.235000     15.590000
S           3.195000     23.517000     17.721000
C           5.459000     23.155000     16.577000
C           4.931000     23.313000     17.855000
C          -7.583000     27.727000      8.406000
H          -5.231000     26.548000      7.484000
H          -3.234000     25.998000      8.843000
H          -5.544000     27.138000     12.374000
H          -2.228000     24.717000     10.112000
H           3.039000     21.112000     11.213000
H           3.911000     21.615000     13.607000
H           6.505000     23.073000     16.311000
H           5.382000     23.385000     18.836000
H          -7.225000     27.825000      7.374000
C          -8.122000     29.119000      8.741000
H          -8.400000     27.005000      8.520000
H          -7.402000     29.944000      8.673000
H          -8.347000     29.121000      9.815000
C          -9.413000     29.529000      8.071000
H          -9.250000     29.472000      6.988000
C          -9.774000     30.935000      8.513000
H         -10.182000     28.808000      8.377000
H          -8.910000     31.574000      8.290000
H          -9.921000     31.041000      9.595000
C         -10.953000     31.608000      7.741000
H         -10.591000     31.630000      6.706000
C         -11.255000     32.979000      8.407000
H         -11.855000     30.992000      7.846000
H         -11.608000     32.679000      9.401000
H         -12.105000     33.378000      7.841000
H         -10.457000     33.707000      8.217000
C         -13.658000     24.323000     16.343000
C         -14.727000     24.226000     15.467000
N         -12.363000     24.237000     15.930000
C         -14.400000     24.044000     14.060000
C         -12.084000     24.127000     14.661000
C         -13.046000     24.061000     13.646000
C         -12.585000     23.719000     12.236000
C         -13.256000     22.663000     11.543000
C         -11.531000     24.368000     11.559000
N         -12.768000     22.231000     10.362000
N         -10.818000     25.402000     12.085000
C         -11.172000     24.015000     10.280000
C         -11.744000     22.847000      9.722000
S          -9.949000     25.958000     10.862000
N         -10.176000     24.747000      9.761000
C         -11.334000     22.149000      8.516000
S         -11.372000     20.405000      8.383000
C         -10.771000     22.696000      7.360000
C         -10.860000     20.503000      6.667000
S         -10.668000     24.304000      6.904000
C         -10.590000     21.770000      6.360000
C         -10.493000     19.340000      5.945000
C         -10.110000     23.705000      5.290000
C         -10.147000     22.319000      5.149000
N         -10.231000     18.238000      6.668000
S         -10.581000     19.125000      4.215000
C         -10.146000     17.104000      5.889000
C         -10.199000     17.388000      4.545000
C         -13.770000     24.626000     17.815000
H         -15.751000     24.387000     15.792000
H         -15.146000     23.893000     13.285000
H         -11.048000     23.842000     14.481000
H         -14.085000     22.057000     11.906000
H          -9.809000     24.310000      4.445000
H          -9.906000     21.761000      4.251000
H         -10.085000     16.120000      6.334000
H         -10.053000     16.656000      3.761000
H         -14.722000     24.196000     18.149000
C         -13.821000     26.137000     18.025000
H         -12.996000     24.219000     18.478000
H         -14.773000     26.450000     17.578000
H         -13.051000     26.766000     17.562000
C         -13.916000     26.564000     19.532000
H         -14.742000     26.127000     20.107000
C         -14.156000     28.086000     19.603000
H         -12.959000     26.372000     20.031000
H         -15.000000     28.326000     18.945000
H         -13.277000     28.623000     19.227000
C         -14.374000     28.490000     21.097000
H         -14.686000     29.541000     21.083000
C         -12.998000     28.421000     21.871000
H         -15.116000     27.863000     21.607000
H         -12.669000     27.375000     21.892000
H         -13.201000     28.780000     22.887000
H         -12.167000     29.001000     21.451000
$end

--------------------------------------------------------------

             Standard Nuclear Orientation (Angstroms)
    I     Atom           X                Y                Z
 ----------------------------------------------------------------
    1      C      -0.2252676859    -1.2691724404    -3.4898566762
    2      C       0.6919070067    -2.3407316702    -3.4800383037
    3      N       0.0644007242    -0.0001666065    -3.1738797693
    4      C       1.9763393184    -2.0942767143    -2.9808443619
    5      C       1.2970688779     0.2128688355    -2.5948572109
    6      C       2.3144383890    -0.8296497890    -2.5098148954
    7      C       3.6560172989    -0.5244089590    -1.8649621492
    8      C       4.3967293723    -1.6511421440    -1.3865439701
    9      C       4.3125723532     0.7346150050    -1.7834752262
   10      N       5.6353953362    -1.5998758528    -0.8532791229
   11      N       3.8414858587     1.9121055100    -2.3028658551
   12      C       5.6302182391     0.7759298147    -1.2473573233
   13      C       6.2692095022    -0.4134032432    -0.7360129744
   14      S       5.0491207636     2.9688865592    -1.9300632927
   15      N       6.1379434342     2.0075038610    -1.1709865512
   16      C       7.5636106576    -0.5151384416     0.0550272258
   17      S       8.4893216458     0.9332355197     0.5498949198
   18      C       8.1872306345    -1.6653226044     0.3818720148
   19      C       9.7414638045    -0.0708031765     1.2005087153
   20      S       7.6580308278    -3.3382143723     0.3332952993
   21      C       9.4396383238    -1.4158291669     1.0442382311
   22      C      10.9324699464     0.3898397621     1.8207235597
   23      C       9.0823617006    -3.6564403798     1.3790647639
   24      C       9.9694114641    -2.6268842337     1.5548369434
   25      N      11.9916961489    -0.3309263143     1.5307561218
   26      S      11.3186912475     1.9763752801     2.3221686281
   27      C      13.1613753137     0.2439238098     1.9115552632
   28      C      13.0190630811     1.5519408291     2.3652850348
   29      C      -1.6091359918    -1.4251999839    -4.1554217877
   30      H       0.3716178545    -3.3440236959    -3.7470607187
   31      H       2.6655526789    -2.9302450940    -2.9079896311
   32      H       1.4640857139     1.2106089868    -2.1914244818
   33      H       3.9754178184    -2.6539897322    -1.3359545516
   34      H       9.2973882043    -4.6401165836     1.7755477129
   35      H      10.8177764753    -2.5838305829     2.2280257660
   36      H      14.0880963932    -0.2930506077     1.7552142392
   37      H      13.7303923862     2.3119327652     2.6608673022
   38      H      -1.5572252580    -2.3656602329    -4.7172329621
   39      C      -2.0153150415    -0.3914309858    -5.2074437638
   40      H      -2.3684319793    -1.4281326550    -3.3647069195
   41      H      -1.3348331950    -0.2788624470    -6.0606270856
   42      H      -1.9266540592     0.5941116925    -4.7331549705
   43      C      -3.4385502593    -0.4554279145    -5.7114149019
   44      H      -3.5898373609    -1.4565057063    -6.1329151602
   45      C      -3.6435554873     0.6304150455    -6.7513374579
   46      H      -4.0973890161    -0.3048334427    -4.8464924791
   47      H      -2.8710213711     0.4910721616    -7.5183580574
   48      H      -3.4766550267     1.6477578770    -6.3762017497
   49      C      -4.9853268364     0.5635943139    -7.5476656795
   50      H      -4.9312898231    -0.4135102866    -8.0427410282
   51      C      -5.0706640330     1.8120601023    -8.4687800795
   52      H      -5.8274842242     0.6210510649    -6.8465560904
   53      H      -5.1308337927     2.6306942985    -7.7415506433
   54      H      -6.0416602250     1.7183083277    -8.9692138914
   55      H      -4.3510600627     1.7570002037    -9.2946290569
   56      C      -5.2235707075     5.5200325428     2.9289565787
   57      C      -6.4980407047     5.0004091734     2.7700107379
   58      N      -4.0997850498     4.7898129135     2.6863146845
   59      C      -6.5853060123     3.6229819954     2.3065658811
   60      C      -4.1931524754     3.5751508783     2.2213623602
   61      C      -5.4040626298     2.9213069114     1.9640499724
   62      C      -5.3654906023     1.4369422262     1.6282543798
   63      C      -6.2172819082     0.5550235481     2.3646625658
   64      C      -4.5393215176     0.8610323478     0.6402167006
   65      N      -6.0889321914    -0.7779804920     2.2029356999
   66      N      -3.6948357158     1.5784593859    -0.1512017573
   67      C      -4.5615559878    -0.4886218700     0.3808518597
   68      C      -5.2814173252    -1.3285194558     1.2635430290
   69      S      -3.2018690889     0.5393995683    -1.2635706709
   70      N      -3.7452854732    -0.8771405893    -0.6090757395
   71      C      -5.2379566623    -2.7783626493     1.3397393876
   72      S      -5.3318067951    -3.6408355419     2.8589502558
   73      C      -5.0195343848    -3.6839934612     0.2982795750
   74      C      -5.3260830346    -5.2111895300     1.9927172672
   75      S      -5.0318280102    -3.4054334986    -1.3529206594
   76      C      -5.1398604349    -4.9957018880     0.6922080517
   77      C      -5.1919358560    -6.4344845574     2.6956367579
   78      C      -4.9609637401    -5.2025901117    -1.5538369691
   79      C      -5.0520752328    -5.9166931865    -0.3605216317
   80      N      -4.7482390977    -6.3578704065     3.9617490983
   81      S      -5.7690752875    -7.9968887571     2.1734565272
   82      C      -4.9003369685    -7.5444003337     4.6466103760
   83      C      -5.3288712425    -8.5662498199     3.8329869966
   84      C      -4.9103454301     6.9501793426     3.2863178196
   85      H      -7.3860502836     5.6168632585     2.8774600225
   86      H      -7.5220268774     3.0830162387     2.2020048824
   87      H      -3.2539410927     3.0267484806     2.2850631359
   88      H      -6.9162011465     0.8203329732     3.1567287293
   89      H      -4.9049801405    -5.7467092291    -2.4873524872
   90      H      -5.0817962145    -6.9961681509    -0.2620357730
   91      H      -4.7268426266    -7.6039976211     5.7126075038
   92      H      -5.4193471056    -9.5983077759     4.1467807086
   93      H      -5.7334424809     7.2989217697     3.9216523492
   94      C      -4.8826502726     7.8009701346     2.0193489934
   95      H      -3.9848261011     7.1438646275     3.8432684296
   96      H      -5.9187019050     7.7989976983     1.6578588491
   97      H      -4.2683901673     7.4747570943     1.1713044336
   98      C      -4.5418015933     9.3107497064     2.2777881979
   99      H      -5.1758476904     9.8315191117     3.0062487481
  100      C      -4.7346154104    10.0955920365     0.9640262907
  101      H      -3.4848494054     9.4088317337     2.5515508478
  102      H      -5.7277304827     9.8518676623     0.5675154047
  103      H      -3.9922143043     9.7760955997     0.2229806615
  104      C      -4.5156594087    11.6161492495     1.2516719604
  105      H      -4.8069316162    12.1417911683     0.3346103081
  106      C      -2.9775843004    11.8958744653     1.4825220527
  107      H      -5.0897259970    11.9764819348     2.1144586711
  108      H      -2.6679698243    11.3740211939     2.3960898057
  109      H      -2.8802296842    12.9807745310     1.6084582512
  110      H      -2.2931962882    11.5695952149     0.6897321061
 ----------------------------------------------------------------

   10   -5663.5035879154      5.23E-06 Convergence criterion met
 Total energy in the final basis set = -5663.5035879154

                    Orbital Energies (a.u.)
 --------------------------------------------------------------

 Alpha MOs
 -- Occupied --
-88.987 -88.987 -88.927 -88.927 -88.922 -88.913 -88.913 -88.911
-14.392 -14.389 -14.382 -14.381 -14.350 -14.341 -14.338 -14.334
-14.333 -14.319 -10.268 -10.263 -10.262 -10.262 -10.261 -10.256
-10.253 -10.251 -10.242 -10.240 -10.239 -10.236 -10.235 -10.233
-10.232 -10.232 -10.231 -10.230 -10.229 -10.227 -10.227 -10.227
-10.226 -10.226 -10.224 -10.223 -10.220 -10.219 -10.218 -10.218
-10.213 -10.213 -10.206 -10.205 -10.203 -10.201 -10.196 -10.193
-10.184 -10.181 -10.181 -10.179 -10.177 -10.175 -10.174 -10.174
-10.173 -10.172 -10.171 -10.169  -8.043  -8.042  -7.989  -7.987
 -7.982  -7.972  -7.972  -7.972  -6.008  -6.007  -6.003  -6.002
 -6.001  -6.000  -5.952  -5.951  -5.949  -5.948  -5.946  -5.946
 -5.944  -5.942  -5.938  -5.936  -5.936  -5.936  -5.933  -5.933
 -5.933  -5.929  -5.928  -5.928  -1.042  -1.037  -0.978  -0.956
 -0.955  -0.951  -0.940  -0.934  -0.918  -0.911  -0.906  -0.904
 -0.843  -0.842  -0.831  -0.827  -0.809  -0.807  -0.806  -0.806
 -0.804  -0.798  -0.797  -0.789  -0.784  -0.780  -0.767  -0.763
 -0.750  -0.750  -0.741  -0.741  -0.723  -0.718  -0.708  -0.706
 -0.692  -0.690  -0.673  -0.672  -0.650  -0.650  -0.646  -0.643
 -0.634  -0.632  -0.627  -0.624  -0.610  -0.607  -0.597  -0.595
 -0.592  -0.590  -0.582  -0.576  -0.576  -0.570  -0.568  -0.564
 -0.550  -0.547  -0.541  -0.538  -0.523  -0.522  -0.514  -0.512
 -0.507  -0.503  -0.499  -0.497  -0.485  -0.483  -0.480  -0.478
 -0.473  -0.468  -0.468  -0.466  -0.466  -0.461  -0.451  -0.450
 -0.448  -0.443  -0.442  -0.435  -0.433  -0.432  -0.430  -0.427
 -0.425  -0.425  -0.423  -0.421  -0.418  -0.414  -0.413  -0.412
 -0.410  -0.408  -0.408  -0.402  -0.399  -0.398  -0.396  -0.394
 -0.393  -0.390  -0.389  -0.389  -0.384  -0.382  -0.381  -0.378
 -0.376  -0.375  -0.369  -0.369  -0.368  -0.364  -0.363  -0.361
 -0.359  -0.351  -0.351  -0.347  -0.345  -0.344  -0.343  -0.341
 -0.337  -0.334  -0.331  -0.329  -0.328  -0.327  -0.323  -0.320
 -0.317  -0.310  -0.309  -0.309  -0.307  -0.302  -0.299  -0.297
 -0.296  -0.295  -0.291  -0.288  -0.284  -0.280  -0.279  -0.274
 -0.272  -0.267  -0.266  -0.261  -0.256  -0.254  -0.250  -0.246
 -0.245  -0.236  -0.231  -0.229  -0.193  -0.190

          Ground-State Mulliken Net Atomic Charges

     Atom                 Charge (a.u.)
  ----------------------------------------
      1 C                     0.273414
      2 C                    -0.120432
      3 N                    -0.480634
      4 C                    -0.078737
      5 C                     0.071153
      6 C                     0.040679
      7 C                     0.035567
      8 C                     0.050922
      9 C                     0.224337
     10 N                    -0.530343
     11 N                    -0.548107
     12 C                     0.195256
     13 C                     0.315001
     14 S                     0.603121
     15 N                    -0.548563
     16 C                    -0.225923
     17 S                     0.317689
     18 C                    -0.100614
     19 C                    -0.202435
     20 S                     0.291664
     21 C                     0.152078
     22 C                     0.020407
     23 C                    -0.312147
     24 C                    -0.043442
     25 N                    -0.407307
     26 S                     0.270332
     27 C                     0.126113
     28 C                    -0.320985
     29 C                    -0.239703
     30 H                     0.099037
     31 H                     0.099670
     32 H                     0.128276
     33 H                     0.115529
     34 H                     0.119018
     35 H                     0.112492
     36 H                     0.117804
     37 H                     0.141960
     38 H                     0.091100
     39 C                    -0.177099
     40 H                     0.120376
     41 H                     0.088613
     42 H                     0.114060
     43 C                    -0.167205
     44 H                     0.084460
     45 C                    -0.171500
     46 H                     0.086920
     47 H                     0.088138
     48 H                     0.088188
     49 C                    -0.186054
     50 H                     0.090643
     51 C                    -0.313204
     52 H                     0.090740
     53 H                     0.111185
     54 H                     0.098029
     55 H                     0.108486
     56 C                     0.257862
     57 C                    -0.122660
     58 N                    -0.462584
     59 C                    -0.096734
     60 C                     0.103286
     61 C                     0.045027
     62 C                    -0.007174
     63 C                     0.064045
     64 C                     0.221332
     65 N                    -0.506937
     66 N                    -0.531151
     67 C                     0.234830
     68 C                     0.258477
     69 S                     0.635901
     70 N                    -0.579481
     71 C                    -0.206340
     72 S                     0.344300
     73 C                    -0.102667
     74 C                    -0.230354
     75 S                     0.282222
     76 C                     0.160391
     77 C                     0.042510
     78 C                    -0.313485
     79 C                    -0.066592
     80 N                    -0.434105
     81 S                     0.254403
     82 C                     0.134185
     83 C                    -0.312414
     84 C                    -0.213724
     85 H                     0.096888
     86 H                     0.099602
     87 H                     0.104405
     88 H                     0.122418
     89 H                     0.117523
     90 H                     0.115409
     91 H                     0.122174
     92 H                     0.123373
     93 H                     0.090574
     94 C                    -0.171780
     95 H                     0.116138
     96 H                     0.087337
     97 H                     0.110382
     98 C                    -0.177481
     99 H                     0.088536
    100 C                    -0.173696
    101 H                     0.099181
    102 H                     0.084554
    103 H                     0.092125
    104 C                    -0.182612
    105 H                     0.090762
    106 C                    -0.321915
    107 H                     0.094419
    108 H                     0.106598
    109 H                     0.099438
    110 H                     0.105259
  ----------------------------------------
  Sum of atomic charges =     0.000000

                    Cartesian Multipole Moments
 -----------------------------------------------------------------
    Charge (ESU x 10^10)
                 0.0000
    Dipole Moment (Debye)
         X       0.7783      Y      -0.9167      Z      -0.6818
       Tot       1.3824
    Quadrupole Moments (Debye-Ang)
        XX    -393.7832     XY       7.5151     YY    -399.5115
        XZ      17.4566     YZ       6.7392     ZZ    -440.0203

 Total job time:  87.98s(wall), 1033.26s(cpu)
        *  Thank you very much for using Q-Chem.  Have a nice day.  *
