 Q-Chem 4.4, Q-Chem, Inc., Pleasanton, CA (2016)
 Q-Chem 4.4.2 for Intel X86 Linux

User input:
--------------------------------------------------------------
$comment
SP
$end

$rem
MEM_STATIC 5000
MEM_TOTAL 20000
JOBTYPE SP
EXCHANGE B3LYP
BASIS 6-31g(d,p)
$end

$molecule
0 1
C         -14.224000     14.690000      9.328000
C         -13.376000     15.331000      8.477000
N         -15.526000     14.942000      9.332000
C         -13.913000     16.312000      7.561000
C         -16.086000     15.922000      8.626000
C         -15.282000     16.664000      7.717000
C         -15.873000     17.659000      6.812000
C         -17.093000     17.417000      6.170000
C         -15.360000     18.968000      6.567000
N         -17.786000     18.263000      5.323000
N         -14.273000     19.442000      7.160000
C         -16.124000     19.909000      5.795000
C         -17.251000     19.522000      5.111000
S         -14.182000     20.976000      6.582000
N         -15.569000     21.074000      5.766000
C         -18.150000     20.607000      4.502000
S         -18.263000     22.383000      4.729000
C         -18.920000     20.272000      3.409000
C         -19.382000     22.603000      3.425000
S         -18.866000     18.860000      2.524000
C         -19.551000     21.364000      2.828000
C         -19.687000     23.871000      2.798000
C         -19.760000     19.646000      1.273000
C         -20.111000     20.969000      1.608000
N         -20.594000     23.935000      1.902000
S         -18.717000     25.353000      2.959000
C         -20.747000     25.275000      1.462000
C         -19.869000     26.162000      1.911000
C         -13.790000     13.518000     10.279000
H         -12.302000     15.227000      8.355000
H         -13.211000     16.890000      6.967000
H         -17.165000     16.057000      8.669000
H         -17.517000     16.414000      6.174000
H         -19.937000     19.053000      0.386000
H         -20.679000     21.688000      1.029000
H         -21.630000     25.441000      0.859000
H         -19.835000     27.201000      1.612000
H         -12.735000     13.284000     10.089000
C         -14.717000     12.252000     10.264000
H         -13.796000     13.807000     11.337000
H         -14.082000     11.357000     10.266000
H         -15.216000     12.278000      9.287000
C         -15.704000     12.271000     11.420000
H         -16.028000     13.276000     11.716000
C         -15.156000     11.515000     12.662000
H         -16.628000     11.767000     11.108000
H         -14.236000     12.059000     12.907000
H         -14.863000     10.523000     12.296000
C         -16.077000     11.394000     13.912000
H         -16.460000     12.408000     14.080000
C         -15.307000     10.844000     15.117000
H         -16.969000     10.798000     13.684000
H         -16.012000     10.493000     15.880000
H         -14.587000     11.591000     15.473000
H         -14.799000      9.944000     14.750000
C         -13.658000     24.323000     16.343000
C         -14.727000     24.226000     15.467000
N         -12.363000     24.237000     15.930000
C         -14.400000     24.044000     14.060000
C         -12.084000     24.127000     14.661000
C         -13.046000     24.061000     13.646000
C         -12.585000     23.719000     12.236000
C         -13.256000     22.663000     11.543000
C         -11.531000     24.368000     11.559000
N         -12.768000     22.231000     10.362000
N         -10.818000     25.402000     12.085000
C         -11.172000     24.015000     10.280000
C         -11.744000     22.847000      9.722000
S          -9.949000     25.958000     10.862000
N         -10.176000     24.747000      9.761000
C         -11.334000     22.149000      8.516000
S         -11.372000     20.405000      8.383000
C         -10.771000     22.696000      7.360000
C         -10.860000     20.503000      6.667000
S         -10.668000     24.304000      6.904000
C         -10.590000     21.770000      6.360000
C         -10.493000     19.340000      5.945000
C         -10.110000     23.705000      5.290000
C         -10.147000     22.319000      5.149000
N         -10.231000     18.238000      6.668000
S         -10.581000     19.125000      4.215000
C         -10.146000     17.104000      5.889000
C         -10.199000     17.388000      4.545000
C         -13.770000     24.626000     17.815000
H         -15.751000     24.387000     15.792000
H         -15.146000     23.893000     13.285000
H         -11.048000     23.842000     14.481000
H         -14.085000     22.057000     11.906000
H          -9.809000     24.310000      4.445000
H          -9.906000     21.761000      4.251000
H         -10.085000     16.120000      6.334000
H         -10.053000     16.656000      3.761000
H         -14.722000     24.196000     18.149000
C         -13.821000     26.137000     18.025000
H         -12.996000     24.219000     18.478000
H         -14.773000     26.450000     17.578000
H         -13.051000     26.766000     17.562000
C         -13.916000     26.564000     19.532000
H         -14.742000     26.127000     20.107000
C         -14.156000     28.086000     19.603000
H         -12.959000     26.372000     20.031000
H         -15.000000     28.326000     18.945000
H         -13.277000     28.623000     19.227000
C         -14.374000     28.490000     21.097000
H         -14.686000     29.541000     21.083000
C         -12.998000     28.421000     21.871000
H         -15.116000     27.863000     21.607000
H         -12.669000     27.375000     21.892000
H         -13.201000     28.780000     22.887000
H         -12.167000     29.001000     21.451000
$end

--------------------------------------------------------------

             Standard Nuclear Orientation (Angstroms)
    I     Atom           X                Y                Z
 ----------------------------------------------------------------
    1      C      -1.8520139660     6.0996577616    -0.1754078900
    2      C      -2.1028622024     5.3234247007     0.9148780347
    3      N      -2.1346031662     5.6852836317    -1.4030729194
    4      C      -2.6874374025     4.0152687114     0.7230819370
    5      C      -2.5423858526     4.4496831310    -1.6849251560
    6      C      -2.8183022078     3.5532979504    -0.6155212226
    7      C      -3.4037501687     2.2285408111    -0.8616923155
    8      C      -4.4171515151     2.0516816457    -1.8108322139
    9      C      -2.9665541468     1.0042489345    -0.2729274735
   10      N      -5.0388022648     0.8708871529    -2.1750419214
   11      N      -1.9463441551     0.9306534906     0.5706656057
   12      C      -3.5070118130    -0.2475368146    -0.7269086952
   13      C      -4.5853773066    -0.2923644885    -1.5771276917
   14      S      -1.8386803329    -0.6795020379     0.8728719518
   15      N      -2.9234069481    -1.2559132840    -0.1713249864
   16      C      -4.9676134891    -1.6380259043    -2.2091070069
   17      S      -4.1221796736    -3.2134020481    -2.3571126456
   18      C      -6.2794127923    -1.8265047756    -2.5878315813
   19      C      -5.5088894883    -4.0387959573    -2.9869838899
   20      S      -7.5791748272    -0.8302121145    -2.2749344961
   21      C      -6.5557015788    -3.1309736590    -2.9754027859
   22      C      -5.6623145412    -5.4763977554    -3.0481379840
   23      C      -8.6367021770    -2.1278706636    -2.6989052434
   24      C      -7.9400012434    -3.2797863847    -3.1153821101
   25      N      -6.6890921462    -5.9824451342    -3.6131201078
   26      S      -4.6690186365    -6.6514967774    -2.1561455322
   27      C      -6.6065086474    -7.3985160458    -3.5900519692
   28      C      -5.6157454274    -7.9343000141    -2.8896393899
   29      C      -1.3401570763     7.5822299132    -0.0958884581
   30      H      -1.9339656403     5.5269775569     1.9680713626
   31      H      -2.7801990868     3.3683218217     1.5905950445
   32      H      -2.7700793077     4.1886303880    -2.7165850592
   33      H      -4.9221529530     2.9199293466    -2.2314513737
   34      H      -9.6925936033    -1.9212412122    -2.5887028582
   35      H      -8.3388035985    -4.2301612485    -3.4508970872
   36      H      -7.3305607986    -7.8909477119    -4.2257512193
   37      H      -5.4699357410    -8.9957943813    -2.7411562469
   38      H      -1.2861634229     7.8789451289     0.9590645105
   39      C      -2.1102615469     8.6159130780    -0.9907338185
   40      H      -0.3046247254     7.6916274927    -0.4403095954
   41      H      -2.2645202831     9.5325695964    -0.4074679532
   42      H      -3.1026521033     8.1734457574    -1.1443230557
   43      C      -1.3804802022     8.8717239249    -2.2994912443
   44      H      -0.8317283320     8.0034235361    -2.6836042741
   45      C      -0.4210138159    10.0898226937    -2.1991735348
   46      H      -2.1181609393     9.0961208498    -3.0809060831
   47      H       0.2721193074     9.8040315583    -1.3990167374
   48      H      -1.0352090199    10.9168023995    -1.8213669472
   49      C       0.3569027501    10.5177351642    -3.4786729423
   50      H       0.7796526615     9.5871953505    -3.8767774106
   51      C       1.4280418430    11.5635792188    -3.1526418746
   52      H      -0.3330180292    10.8615533279    -4.2588411220
   53      H       1.7548348869    12.0606827474    -4.0737767119
   54      H       2.2373367155    11.1017406946    -2.5739433462
   55      H       0.9113573970    12.3354511495    -2.5695433359
   56      C       8.1458235678    -0.2175120287    -1.7444459668
   57      C       7.0273375585    -0.5904948591    -2.4720577143
   58      N       8.1316653888    -0.1032580979    -0.3873403757
   59      C       5.8213989809    -0.8780157136    -1.7086797573
   60      C       7.0600537980    -0.4148331160     0.2871013242
   61      C       5.8631263193    -0.8509606601    -0.2935727460
   62      C       4.6326875317    -0.9729277335     0.5945316527
   63      C       3.4243427401    -0.3389313052     0.1660723274
   64      C       4.5978300004    -1.6655588753     1.8231459347
   65      N       2.3679618171    -0.2923347101     1.0035788067
   66      N       5.6638234638    -2.3328660513     2.3452187924
   67      C       3.4479503469    -1.7450034852     2.5720092977
   68      C       2.3440653270    -0.9455120823     2.1911899713
   69      S       5.0607849573    -3.1602543798     3.5747711962
   70      N       3.5662096018    -2.4661248284     3.6959308951
   71      C       1.1410509545    -0.6731005008     2.9581895475
   72      S       0.3458312902     0.8850017437     2.9334492704
   73      C       0.5033422144    -1.5113085774     3.8764753325
   74      C      -0.9692175719     0.2547056581     3.9773732786
   75      S       0.7497137752    -3.1446346532     4.1517133829
   76      C      -0.6738003211    -0.9870572063     4.3557799862
   77      C      -1.9389355221     1.1231195473     4.5377717209
   78      C      -0.7292762099    -3.0883114190     5.1931438017
   79      C      -1.3941747702    -1.8635900562     5.1785325712
   80      N      -1.6505199499     2.4355732252     4.5301035244
   81      S      -3.5623473794     0.6925878150     5.0132140087
   82      C      -2.7419190726     3.2172362187     4.8429500038
   83      C      -3.8259547892     2.4683291018     5.2351306960
   84      C       9.5181809999     0.0116440492    -2.3234620033
   85      H       7.0727522866    -0.7672973594    -3.5429453734
   86      H       4.8656096688    -1.1197062762    -2.1647438568
   87      H       7.0977019672    -0.0701174141     1.3199007724
   88      H       3.2667451813     0.2336722737    -0.7469085875
   89      H      -1.1493682815    -3.9060524153     5.7636464874
   90      H      -2.3234871717    -1.6344466577     5.6881606350
   91      H      -2.7108858680     4.2933339071     4.7378181570
   92      H      -4.7499338417     2.8854747273     5.6146675686
   93      H       9.3664121924     0.3940536964    -3.3400686582
   94      C      10.2655058035    -1.3163072093    -2.4121924538
   95      H      10.1705098638     0.7327437947    -1.8147614917
   96      H       9.7140844285    -1.8986025789    -3.1611574529
   97      H      10.3269847027    -1.9540993904    -1.5220511848
   98      C      11.7209780644    -1.1868172456    -2.9842377726
   99      H      11.8146361972    -0.6943118398    -3.9602175775
  100      C      12.2952353789    -2.6010524793    -3.2062563316
  101      H      12.3657299314    -0.6970434884    -2.2452312119
  102      H      11.5627947299    -3.1759596578    -3.7858358618
  103      H      12.4297259281    -3.1075290670    -2.2430430851
  104      C      13.6943776681    -2.4722445482    -3.8907892902
  105      H      13.9927427850    -3.4918615379    -4.1618989568
  106      C      14.7501861867    -1.9391388282    -2.8428009013
  107      H      13.6830572468    -1.8156078219    -4.7697051325
  108      H      14.4648609863    -0.9192547172    -2.5578027783
  109      H      15.7178439433    -1.9370650825    -3.3585335506
  110      H      14.8484944676    -2.5077667039    -1.9098706676
 ----------------------------------------------------------------

    9   -5663.4751136572      8.25E-06 Convergence criterion met
 Total energy in the final basis set = -5663.4751136572

                    Orbital Energies (a.u.)
 --------------------------------------------------------------

 Alpha MOs
 -- Occupied --
-88.995 -88.980 -88.935 -88.923 -88.922 -88.918 -88.916 -88.901
-14.390 -14.389 -14.378 -14.376 -14.354 -14.349 -14.342 -14.333
-14.324 -14.323 -10.271 -10.265 -10.263 -10.261 -10.260 -10.258
-10.250 -10.245 -10.244 -10.241 -10.240 -10.235 -10.235 -10.235
-10.234 -10.234 -10.232 -10.231 -10.230 -10.229 -10.228 -10.227
-10.223 -10.222 -10.222 -10.221 -10.221 -10.219 -10.218 -10.214
-10.214 -10.211 -10.209 -10.207 -10.204 -10.198 -10.197 -10.188
-10.184 -10.182 -10.182 -10.182 -10.177 -10.175 -10.174 -10.174
-10.174 -10.170 -10.170 -10.165  -8.051  -8.035  -7.995  -7.982
 -7.980  -7.978  -7.977  -7.964  -6.016  -6.011  -6.009  -6.001
 -5.995  -5.993  -5.959  -5.956  -5.952  -5.947  -5.944  -5.943
 -5.943  -5.941  -5.941  -5.939  -5.939  -5.937  -5.937  -5.934
 -5.933  -5.928  -5.924  -5.920  -1.050  -1.047  -0.969  -0.964
 -0.959  -0.944  -0.944  -0.941  -0.927  -0.918  -0.914  -0.912
 -0.851  -0.848  -0.834  -0.828  -0.817  -0.809  -0.805  -0.803
 -0.799  -0.796  -0.796  -0.787  -0.786  -0.779  -0.769  -0.762
 -0.758  -0.749  -0.745  -0.741  -0.726  -0.721  -0.711  -0.700
 -0.695  -0.688  -0.680  -0.672  -0.655  -0.650  -0.646  -0.645
 -0.639  -0.633  -0.632  -0.624  -0.613  -0.608  -0.603  -0.597
 -0.590  -0.588  -0.586  -0.581  -0.579  -0.577  -0.566  -0.560
 -0.555  -0.548  -0.547  -0.535  -0.530  -0.520  -0.518  -0.509
 -0.508  -0.504  -0.504  -0.500  -0.489  -0.488  -0.484  -0.475
 -0.473  -0.472  -0.470  -0.467  -0.466  -0.459  -0.456  -0.446
 -0.445  -0.443  -0.442  -0.437  -0.434  -0.433  -0.431  -0.430
 -0.428  -0.427  -0.426  -0.421  -0.417  -0.416  -0.415  -0.413
 -0.409  -0.409  -0.408  -0.406  -0.403  -0.402  -0.399  -0.397
 -0.396  -0.390  -0.390  -0.389  -0.384  -0.382  -0.381  -0.379
 -0.375  -0.373  -0.371  -0.370  -0.369  -0.367  -0.357  -0.355
 -0.352  -0.352  -0.351  -0.350  -0.347  -0.345  -0.341  -0.341
 -0.338  -0.336  -0.334  -0.331  -0.329  -0.327  -0.325  -0.318
 -0.313  -0.312  -0.311  -0.311  -0.305  -0.303  -0.300  -0.300
 -0.296  -0.292  -0.289  -0.284  -0.283  -0.280  -0.279  -0.275
 -0.274  -0.270  -0.267  -0.266  -0.258  -0.253  -0.251  -0.244
 -0.242  -0.242  -0.236  -0.230  -0.198  -0.191

          Ground-State Mulliken Net Atomic Charges

     Atom                 Charge (a.u.)
  ----------------------------------------
      1 C                     0.284898
      2 C                    -0.124833
      3 N                    -0.472936
      4 C                    -0.076246
      5 C                     0.087568
      6 C                     0.019756
      7 C                     0.048924
      8 C                     0.029647
      9 C                     0.203642
     10 N                    -0.477895
     11 N                    -0.550006
     12 C                     0.224410
     13 C                     0.231058
     14 S                     0.614311
     15 N                    -0.550951
     16 C                    -0.187754
     17 S                     0.316066
     18 C                    -0.113997
     19 C                    -0.229108
     20 S                     0.286859
     21 C                     0.150035
     22 C                     0.080993
     23 C                    -0.319408
     24 C                    -0.067330
     25 N                    -0.436847
     26 S                     0.238248
     27 C                     0.112894
     28 C                    -0.298755
     29 C                    -0.223767
     30 H                     0.092548
     31 H                     0.127120
     32 H                     0.110609
     33 H                     0.114823
     34 H                     0.130398
     35 H                     0.122051
     36 H                     0.110540
     37 H                     0.135160
     38 H                     0.084868
     39 C                    -0.169577
     40 H                     0.114636
     41 H                     0.090227
     42 H                     0.102207
     43 C                    -0.178841
     44 H                     0.108237
     45 C                    -0.174439
     46 H                     0.083280
     47 H                     0.085034
     48 H                     0.085353
     49 C                    -0.180909
     50 H                     0.091890
     51 C                    -0.310812
     52 H                     0.092290
     53 H                     0.099224
     54 H                     0.107350
     55 H                     0.103476
     56 C                     0.258540
     57 C                    -0.122308
     58 N                    -0.461720
     59 C                    -0.096414
     60 C                     0.103416
     61 C                     0.044069
     62 C                    -0.005742
     63 C                     0.065289
     64 C                     0.227874
     65 N                    -0.507672
     66 N                    -0.524665
     67 C                     0.236497
     68 C                     0.261786
     69 S                     0.613618
     70 N                    -0.570208
     71 C                    -0.214313
     72 S                     0.359224
     73 C                    -0.100832
     74 C                    -0.256468
     75 S                     0.285270
     76 C                     0.173591
     77 C                     0.044316
     78 C                    -0.310036
     79 C                    -0.067565
     80 N                    -0.435485
     81 S                     0.258789
     82 C                     0.127854
     83 C                    -0.310121
     84 C                    -0.214170
     85 H                     0.099191
     86 H                     0.101263
     87 H                     0.103867
     88 H                     0.126496
     89 H                     0.121889
     90 H                     0.117673
     91 H                     0.122283
     92 H                     0.127487
     93 H                     0.091844
     94 C                    -0.172208
     95 H                     0.117023
     96 H                     0.087798
     97 H                     0.109913
     98 C                    -0.178200
     99 H                     0.089485
    100 C                    -0.173539
    101 H                     0.099545
    102 H                     0.084872
    103 H                     0.091811
    104 C                    -0.183342
    105 H                     0.091245
    106 C                    -0.321905
    107 H                     0.095017
    108 H                     0.106611
    109 H                     0.100078
    110 H                     0.105168
  ----------------------------------------
  Sum of atomic charges =     0.000000

                    Cartesian Multipole Moments
 -----------------------------------------------------------------
    Charge (ESU x 10^10)
                 0.0000
    Dipole Moment (Debye)
         X      -0.0725      Y      -2.9189      Z       2.7222
       Tot       3.9920
    Quadrupole Moments (Debye-Ang)
        XX    -435.6828     XY      -7.4715     YY    -419.8017
        XZ     -33.2955     YZ       2.9161     ZZ    -435.0761

 Total job time:  83.01s(wall), 979.37s(cpu)
        *  Thank you very much for using Q-Chem.  Have a nice day.  *
