 Q-Chem 4.4, Q-Chem, Inc., Pleasanton, CA (2016)
 Q-Chem 4.4.2 for Intel X86 Linux

User input:
--------------------------------------------------------------
$comment
SP
$end

$rem
MEM_STATIC 5000
MEM_TOTAL 20000
JOBTYPE SP
EXCHANGE B3LYP
BASIS 6-31g(d,p)
$end

$molecule
0 1
C          -4.711000     18.406000      7.746000
C          -5.178000     17.279000      8.390000
N          -5.454000     19.490000      7.501000
C          -6.519000     17.276000      8.964000
C          -6.650000     19.515000      8.156000
C          -7.258000     18.516000      8.967000
C          -8.526000     18.645000      9.709000
C          -9.492000     17.636000      9.927000
C          -8.697000     19.832000     10.401000
N         -10.638000     17.851000     10.616000
N          -7.765000     20.873000     10.441000
C          -9.727000     19.893000     11.337000
C         -10.757000     18.971000     11.345000
S          -8.266000     21.807000     11.757000
N          -9.640000     20.959000     12.087000
C         -11.927000     19.140000     12.312000
S         -11.901000     20.168000     13.777000
C         -13.199000     18.626000     12.044000
C         -13.642000     20.005000     13.986000
S         -13.864000     17.594000     10.756000
C         -14.131000     19.144000     12.948000
C         -14.403000     20.438000     15.153000
C         -15.411000     17.699000     11.608000
C         -15.409000     18.608000     12.668000
N         -15.690000     20.797000     14.942000
S         -13.648000     20.799000     16.731000
C         -16.149000     21.325000     16.134000
C         -15.237000     21.366000     17.201000
C          -3.312000     18.368000      7.222000
H          -4.599000     16.391000      8.628000
H          -6.906000     16.407000      9.487000
H          -7.278000     20.374000      7.926000
H          -9.457000     16.738000      9.312000
H         -16.258000     17.231000     11.125000
H         -16.236000     18.730000     13.358000
H         -17.136000     21.738000     16.295000
H         -15.251000     21.766000     18.206000
H          -3.136000     17.305000      7.016000
C          -2.234000     19.057000      8.058000
H          -3.284000     18.792000      6.211000
H          -2.423000     20.132000      8.177000
H          -1.346000     18.999000      7.416000
C          -2.103000     18.404000      9.490000
H          -3.016000     18.596000     10.068000
C          -0.884000     18.889000     10.237000
H          -2.271000     17.326000      9.376000
H          -1.104000     19.916000     10.552000
H          -0.062000     19.032000      9.525000
C          -0.504000     17.868000     11.331000
H          -1.172000     18.004000     12.191000
C           0.987000     17.970000     11.768000
H          -0.577000     16.804000     11.078000
H           1.671000     17.692000     10.957000
H           1.307000     17.204000     12.484000
H           1.223000     19.022000     11.971000
C         -13.658000     24.323000     16.343000
C         -14.727000     24.226000     15.467000
N         -12.363000     24.237000     15.930000
C         -14.400000     24.044000     14.060000
C         -12.084000     24.127000     14.661000
C         -13.046000     24.061000     13.646000
C         -12.585000     23.719000     12.236000
C         -13.256000     22.663000     11.543000
C         -11.531000     24.368000     11.559000
N         -12.768000     22.231000     10.362000
N         -10.818000     25.402000     12.085000
C         -11.172000     24.015000     10.280000
C         -11.744000     22.847000      9.722000
S          -9.949000     25.958000     10.862000
N         -10.176000     24.747000      9.761000
C         -11.334000     22.149000      8.516000
S         -11.372000     20.405000      8.383000
C         -10.771000     22.696000      7.360000
C         -10.860000     20.503000      6.667000
S         -10.668000     24.304000      6.904000
C         -10.590000     21.770000      6.360000
C         -10.493000     19.340000      5.945000
C         -10.110000     23.705000      5.290000
C         -10.147000     22.319000      5.149000
N         -10.231000     18.238000      6.668000
S         -10.581000     19.125000      4.215000
C         -10.146000     17.104000      5.889000
C         -10.199000     17.388000      4.545000
C         -13.770000     24.626000     17.815000
H         -15.751000     24.387000     15.792000
H         -15.146000     23.893000     13.285000
H         -11.048000     23.842000     14.481000
H         -14.085000     22.057000     11.906000
H          -9.809000     24.310000      4.445000
H          -9.906000     21.761000      4.251000
H         -10.085000     16.120000      6.334000
H         -10.053000     16.656000      3.761000
H         -14.722000     24.196000     18.149000
C         -13.821000     26.137000     18.025000
H         -12.996000     24.219000     18.478000
H         -14.773000     26.450000     17.578000
H         -13.051000     26.766000     17.562000
C         -13.916000     26.564000     19.532000
H         -14.742000     26.127000     20.107000
C         -14.156000     28.086000     19.603000
H         -12.959000     26.372000     20.031000
H         -15.000000     28.326000     18.945000
H         -13.277000     28.623000     19.227000
C         -14.374000     28.490000     21.097000
H         -14.686000     29.541000     21.083000
C         -12.998000     28.421000     21.871000
H         -15.116000     27.863000     21.607000
H         -12.669000     27.375000     21.892000
H         -13.201000     28.780000     22.887000
H         -12.167000     29.001000     21.451000
$end

--------------------------------------------------------------

             Standard Nuclear Orientation (Angstroms)
    I     Atom           X                Y                Z
 ----------------------------------------------------------------
    1      C      -7.1292312031     2.1447322447    -0.3509672128
    2      C      -6.8822612495     1.9110475836    -1.6878858046
    3      N      -6.4147881636     1.6133109863     0.6461749985
    4      C      -5.7059109817     1.1449088190    -2.0841148306
    5      C      -5.2540474003     1.0148537285     0.2529882859
    6      C      -4.7549719151     0.7843151452    -1.0597042225
    7      C      -3.4480610571     0.1957638980    -1.4070087556
    8      C      -3.1602086671    -0.6561596000    -2.4979387969
    9      C      -2.3668955554     0.6678764023    -0.6822571146
   10      N      -1.9248506980    -1.1591562451    -2.7327729156
   11      N      -2.4413496258     1.6418896747     0.3175727391
   12      C      -1.0908226431     0.3668622090    -1.1531555943
   13      C      -0.8760907320    -0.6371234110    -2.0788721174
   14      S      -0.8393724568     2.1460747711     0.5037971698
   15      N      -0.1693654410     1.0569704462    -0.5358289015
   16      C       0.5480826116    -1.0136341551    -2.4820097453
   17      S       1.9884777131     0.0176342317    -2.2262120401
   18      C       0.8815020631    -2.2894103128    -2.9459393356
   19      C       3.0742199520    -1.3055374756    -2.6405928117
   20      S      -0.0668672263    -3.7399286670    -3.3494058089
   21      C       2.2704428705    -2.4421185149    -2.9870202130
   22      C       4.5121909829    -1.1897589954    -2.8581558091
   23      C       1.4683841049    -4.4975606262    -3.7956514412
   24      C       2.5897105475    -3.7336035632    -3.4656792987
   25      N       5.2608534154    -2.2801030361    -2.5745620240
   26      S       5.3291942382     0.3674031422    -3.1714954941
   27      C       6.5813164566    -1.8880521483    -2.6885903454
   28      C       6.8159375230    -0.5489246433    -3.0401646343
   29      C      -8.3214562011     2.9778164476    -0.0077598920
   30      H      -7.4242896908     2.3431373561    -2.5245055494
   31      H      -5.4814307386     0.9576530231    -3.1295826145
   32      H      -4.6902365087     0.5420635743     1.0553297024
   33      H      -3.9874148871    -1.1405566088    -3.0146044601
   34      H       1.4247941628    -5.5403705353    -4.0791464334
   35      H       3.6019719440    -3.9956430437    -3.7512929815
   36      H       7.4388577406    -2.5185078273    -2.4941486237
   37      H       7.6942793243     0.0747897881    -3.1387394185
   38      H      -9.0138546277     2.8036516329    -0.8406056378
   39      C      -8.0721526301     4.4458530543     0.3363581846
   40      H      -8.8659510620     2.5186409784     0.8261251329
   41      H      -7.4279728162     4.5633858437     1.2176784504
   42      H      -9.0593149692     4.7961012365     0.6633271847
   43      C      -7.4217741360     5.2243385462    -0.8740806422
   44      H      -6.4085612714     4.8437230533    -1.0558732098
   45      C      -7.4020029267     6.7181785055    -0.6567185592
   46      H      -7.8569876650     4.8202054080    -1.7963439402
   47      H      -6.6230884384     6.9105406266     0.0907057074
   48      H      -8.3154191538     7.0142821797    -0.1265578191
   49      C      -7.2865695810     7.4401711856    -2.0165268959
   50      H      -6.2417209035     7.4039867836    -2.3501463352
   51      C      -7.8017998117     8.9088508022    -1.9721197677
   52      H      -7.8680354928     7.0382318977    -2.8542477339
   53      H      -8.8813285360     8.9582576846    -1.7849361860
   54      H      -7.8086128381     9.4204831386    -2.9416546742
   55      H      -7.3547009989     9.4125634526    -1.1061028987
   56      C       6.5442498809     0.8130026682     0.1291560852
   57      C       6.5104738823    -0.5575302734     0.3292676483
   58      N       5.4696424348     1.6145770601     0.3693379562
   59      C       5.2615753900    -1.1102293102     0.8337261012
   60      C       4.3752075961     1.1134897568     0.8707618271
   61      C       4.1953715762    -0.2419115723     1.1717123930
   62      C       2.7995668163    -0.7182720613     1.5490646908
   63      C       2.2603218712    -1.8472272611     0.8560271405
   64      C       1.9888186712    -0.1188777796     2.5359081132
   65      N       0.9710789243    -2.1914594502     1.0532220283
   66      N       2.3778159368     0.9469794926     3.2887895133
   67      C       0.7389904527    -0.6069752367     2.8342724820
   68      C       0.1896928687    -1.6020229286     1.9911092385
   69      S       1.2536357987     1.0753205680     4.4200602967
   70      N       0.1070918642     0.0491559618     3.8178359137
   71      C      -1.1835906742    -2.0738003885     1.9556361609
   72      S      -1.9871342326    -2.5098654069     0.4640483997
   73      C      -2.0875383444    -2.1574524341     3.0178955194
   74      C      -3.4414417479    -3.0315887737     1.3746517049
   75      S      -1.7903057194    -2.0222803768     4.6603297742
   76      C      -3.2800559935    -2.7432171512     2.6643161751
   77      C      -4.6469870433    -3.3572661738     0.7044750328
   78      C      -3.4927789340    -2.5824730653     4.9111885100
   79      C      -4.1521024121    -2.9541632825     3.7409812918
   80      N      -4.7564692999    -2.9524979459    -0.5722212181
   81      S      -5.8951113032    -4.4316414759     1.2830703509
   82      C      -5.8263569813    -3.5325096779    -1.2194837151
   83      C      -6.6154273673    -4.2690480425    -0.3682022321
   84      C       7.7648911388     1.5987816776    -0.2754712347
   85      H       7.3981692298    -1.1745687065     0.2225786510
   86      H       5.0886405105    -2.1735331843     0.9730831925
   87      H       3.5297860384     1.7973357876     0.8033971787
   88      H       2.7394450004    -2.4310946313     0.0713068585
   89      H      -4.0033434724    -2.6940648314     5.8585649557
   90      H      -5.1535071555    -3.3647335282     3.6741261259
   91      H      -5.9641149168    -3.4225723541    -2.2866943485
   92      H      -7.5552603368    -4.7261169030    -0.6503334893
   93      H       8.3689132170     0.9327141008    -0.9033815088
   94      C       8.5758949872     1.9614109785     0.9657357376
   95      H       7.6089513298     2.5164222924    -0.8567736328
   96      H       8.9463452885     1.0020630278     1.3484890313
   97      H       8.0707287793     2.4462909380     1.8098971719
   98      C       9.8632366153     2.8039707376     0.6571136628
   99      H      10.5597423837     2.3725663167    -0.0727081923
  100      C      10.6911876906     2.9384689564     1.9515371815
  101      H       9.5770535010     3.8192779977     0.3588446688
  102      H      10.8210034717     1.9352518205     2.3753334077
  103      H      10.1450415894     3.5424455051     2.6859231596
  104      C      12.0310115809     3.6699209984     1.6159394262
  105      H      12.6434085128     3.6094044466     2.5233801927
  106      C      11.7460071219     5.2005388278     1.3453945710
  107      H      12.5536429149     3.2342173046     0.7552351913
  108      H      11.1307571270     5.2796521060     0.4409574350
  109      H      12.7242582913     5.6696823147     1.1864133196
  110      H      11.2149773253     5.7493774607     2.1328871172
 ----------------------------------------------------------------

   11   -5663.4628809809      9.63E-06 Convergence criterion met
 Total energy in the final basis set = -5663.4628809809

                    Orbital Energies (a.u.)
 --------------------------------------------------------------

 Alpha MOs
 -- Occupied --
-88.989 -88.984 -88.927 -88.925 -88.925 -88.915 -88.910 -88.907
-14.384 -14.383 -14.378 -14.376 -14.349 -14.347 -14.340 -14.335
-14.324 -14.318 -10.273 -10.263 -10.256 -10.255 -10.253 -10.251
-10.244 -10.242 -10.241 -10.239 -10.236 -10.235 -10.233 -10.232
-10.228 -10.228 -10.227 -10.227 -10.226 -10.225 -10.225 -10.224
-10.221 -10.220 -10.219 -10.217 -10.216 -10.216 -10.215 -10.212
-10.211 -10.210 -10.206 -10.204 -10.200 -10.196 -10.193 -10.192
-10.184 -10.183 -10.182 -10.179 -10.179 -10.177 -10.176 -10.176
-10.174 -10.174 -10.172 -10.169  -8.044  -8.038  -7.987  -7.985
 -7.983  -7.973  -7.971  -7.967  -6.009  -6.004  -6.003  -6.002
 -5.998  -5.996  -5.951  -5.949  -5.948  -5.947  -5.946  -5.944
 -5.943  -5.942  -5.940  -5.937  -5.936  -5.933  -5.932  -5.931
 -5.929  -5.928  -5.927  -5.923  -1.044  -1.023  -0.957  -0.957
 -0.952  -0.950  -0.939  -0.930  -0.919  -0.905  -0.901  -0.890
 -0.843  -0.836  -0.828  -0.827  -0.809  -0.807  -0.803  -0.802
 -0.796  -0.796  -0.789  -0.785  -0.781  -0.778  -0.762  -0.757
 -0.750  -0.742  -0.739  -0.734  -0.720  -0.718  -0.707  -0.705
 -0.690  -0.688  -0.673  -0.670  -0.651  -0.649  -0.643  -0.639
 -0.635  -0.626  -0.625  -0.621  -0.608  -0.607  -0.597  -0.590
 -0.589  -0.586  -0.583  -0.579  -0.576  -0.574  -0.566  -0.566
 -0.547  -0.544  -0.541  -0.532  -0.523  -0.515  -0.513  -0.509
 -0.502  -0.498  -0.496  -0.493  -0.484  -0.479  -0.477  -0.475
 -0.469  -0.467  -0.466  -0.463  -0.460  -0.456  -0.449  -0.444
 -0.442  -0.440  -0.436  -0.433  -0.433  -0.432  -0.430  -0.426
 -0.425  -0.421  -0.420  -0.416  -0.414  -0.412  -0.408  -0.406
 -0.403  -0.402  -0.401  -0.399  -0.398  -0.396  -0.395  -0.394
 -0.393  -0.391  -0.388  -0.384  -0.382  -0.379  -0.377  -0.376
 -0.373  -0.371  -0.370  -0.368  -0.368  -0.363  -0.362  -0.353
 -0.351  -0.348  -0.346  -0.345  -0.344  -0.341  -0.339  -0.338
 -0.337  -0.332  -0.331  -0.328  -0.327  -0.325  -0.325  -0.320
 -0.312  -0.310  -0.308  -0.304  -0.300  -0.298  -0.296  -0.295
 -0.294  -0.291  -0.287  -0.285  -0.284  -0.275  -0.274  -0.272
 -0.270  -0.267  -0.260  -0.254  -0.253  -0.250  -0.247  -0.245
 -0.242  -0.235  -0.228  -0.223  -0.191  -0.187

          Ground-State Mulliken Net Atomic Charges

     Atom                 Charge (a.u.)
  ----------------------------------------
      1 C                     0.290777
      2 C                    -0.119630
      3 N                    -0.483680
      4 C                    -0.101783
      5 C                     0.092740
      6 C                     0.049675
      7 C                     0.055408
      8 C                     0.067031
      9 C                     0.219214
     10 N                    -0.501754
     11 N                    -0.560411
     12 C                     0.254057
     13 C                     0.295068
     14 S                     0.590390
     15 N                    -0.591970
     16 C                    -0.232463
     17 S                     0.341109
     18 C                    -0.096417
     19 C                    -0.225545
     20 S                     0.291951
     21 C                     0.133833
     22 C                     0.036588
     23 C                    -0.305593
     24 C                    -0.070597
     25 N                    -0.428014
     26 S                     0.286132
     27 C                     0.119920
     28 C                    -0.305616
     29 C                    -0.243900
     30 H                     0.091816
     31 H                     0.094293
     32 H                     0.109195
     33 H                     0.115431
     34 H                     0.129478
     35 H                     0.114249
     36 H                     0.109606
     37 H                     0.135004
     38 H                     0.093663
     39 C                    -0.172810
     40 H                     0.107235
     41 H                     0.108731
     42 H                     0.092815
     43 C                    -0.183599
     44 H                     0.102415
     45 C                    -0.173638
     46 H                     0.084675
     47 H                     0.100301
     48 H                     0.093984
     49 C                    -0.172872
     50 H                     0.097233
     51 C                    -0.327492
     52 H                     0.096022
     53 H                     0.098946
     54 H                     0.097165
     55 H                     0.102354
     56 C                     0.262991
     57 C                    -0.110793
     58 N                    -0.468032
     59 C                    -0.090258
     60 C                     0.100992
     61 C                     0.042038
     62 C                     0.000296
     63 C                     0.067486
     64 C                     0.227336
     65 N                    -0.509258
     66 N                    -0.530904
     67 C                     0.236009
     68 C                     0.258554
     69 S                     0.606269
     70 N                    -0.574271
     71 C                    -0.218993
     72 S                     0.354788
     73 C                    -0.101418
     74 C                    -0.244135
     75 S                     0.283498
     76 C                     0.159946
     77 C                     0.049327
     78 C                    -0.310769
     79 C                    -0.064342
     80 N                    -0.444025
     81 S                     0.259687
     82 C                     0.136500
     83 C                    -0.312198
     84 C                    -0.214773
     85 H                     0.092009
     86 H                     0.104545
     87 H                     0.104398
     88 H                     0.141951
     89 H                     0.119478
     90 H                     0.116887
     91 H                     0.118560
     92 H                     0.124040
     93 H                     0.082833
     94 C                    -0.172629
     95 H                     0.112443
     96 H                     0.087961
     97 H                     0.111385
     98 C                    -0.178469
     99 H                     0.086638
    100 C                    -0.173761
    101 H                     0.099199
    102 H                     0.085012
    103 H                     0.092552
    104 C                    -0.182477
    105 H                     0.091313
    106 C                    -0.321387
    107 H                     0.093980
    108 H                     0.105875
    109 H                     0.099828
    110 H                     0.105570
  ----------------------------------------
  Sum of atomic charges =     0.000000

                    Cartesian Multipole Moments
 -----------------------------------------------------------------
    Charge (ESU x 10^10)
                 0.0000
    Dipole Moment (Debye)
         X       0.8016      Y      -0.8676      Z      -0.0591
       Tot       1.1827
    Quadrupole Moments (Debye-Ang)
        XX    -392.3019     XY       5.6767     YY    -439.2544
        XZ       6.3200     YZ      -2.1468     ZZ    -431.8673

 Total job time:  121.46s(wall), 1439.67s(cpu)
        *  Thank you very much for using Q-Chem.  Have a nice day.  *
