 Q-Chem 4.4, Q-Chem, Inc., Pleasanton, CA (2016)
 Q-Chem 4.4.2 for Intel X86 Linux

User input:
--------------------------------------------------------------
$comment
SP
$end

$rem
MEM_STATIC 5000
MEM_TOTAL 20000
JOBTYPE SP
EXCHANGE B3LYP
BASIS 6-31g(d,p)
$end

$molecule
0 1
C          26.593000      1.643000      1.221000
C          26.606000      1.153000     -0.075000
N          26.850000      2.935000      1.547000
C          26.944000      2.078000     -1.100000
C          27.087000      3.814000      0.581000
C          27.243000      3.433000     -0.777000
C          27.611000      4.342000     -1.840000
C          28.419000      3.889000     -2.902000
C          27.136000      5.680000     -1.939000
N          28.618000      4.589000     -4.049000
N          26.404000      6.285000     -1.048000
C          27.453000      6.393000     -3.105000
C          28.159000      5.821000     -4.221000
S          25.962000      7.726000     -1.758000
N          26.804000      7.576000     -3.131000
C          28.411000      6.385000     -5.577000
S          28.023000      8.039000     -6.102000
C          29.113000      5.775000     -6.652000
C          28.392000      7.648000     -7.778000
S          29.841000      4.197000     -6.740000
C          29.025000      6.488000     -7.831000
C          27.978000      8.441000     -8.889000
C          30.045000      4.425000     -8.431000
C          29.524000      5.668000     -8.888000
N          28.529000      8.445000    -10.085000
S          26.537000      9.459000     -8.698000
C          27.881000      9.364000    -10.914000
C          26.803000      9.912000    -10.340000
C          26.096000      0.702000      2.320000
H          26.460000      0.093000     -0.260000
H          26.905000      1.710000     -2.121000
H          27.358000      4.834000      0.848000
H          28.781000      2.866000     -2.804000
H          30.548000      3.655000     -9.002000
H          29.549000      5.921000     -9.941000
H          28.313000      9.565000    -11.886000
H          26.077000     10.542000    -10.837000
H          25.325000      1.169000      2.946000
C          27.202000      0.289000      3.413000
H          25.551000     -0.187000      1.979000
H          27.366000      1.215000      3.977000
H          28.090000      0.030000      2.823000
C          26.677000     -0.911000      4.394000
H          25.732000     -0.559000      4.826000
C          27.719000     -1.309000      5.455000
H          26.512000     -1.825000      3.809000
H          27.070000     -1.592000      6.292000
H          28.263000     -0.389000      5.701000
C          28.556000     -2.556000      5.088000
H          28.950000     -2.869000      6.062000
C          29.514000     -2.423000      3.950000
H          27.996000     -3.468000      4.845000
H          30.211000     -1.657000      4.313000
H          29.007000     -2.124000      3.025000
H          30.131000     -3.317000      3.793000
C          27.455000     13.130000    -14.258000
C          27.436000     14.526000    -14.218000
N          27.425000     12.378000    -13.093000
C          27.317000     15.205000    -12.975000
C          27.412000     13.078000    -11.960000
C          27.417000     14.450000    -11.796000
C          27.318000     15.089000    -10.462000
C          28.203000     14.777000     -9.401000
C          26.333000     16.054000    -10.212000
N          28.059000     15.317000     -8.174000
N          25.375000     16.310000    -11.063000
C          26.281000     16.679000     -8.937000
C          27.215000     16.271000     -7.943000
S          24.372000     17.336000    -10.243000
N          25.223000     17.501000     -8.870000
C          27.088000     16.827000     -6.529000
S          26.022000     18.191000     -6.093000
C          27.629000     16.350000     -5.354000
C          26.392000     18.051000     -4.381000
S          28.644000     15.001000     -5.040000
C          27.230000     16.967000     -4.214000
C          25.793000     18.733000     -3.211000
C          28.576000     15.358000     -3.319000
C          27.845000     16.443000     -3.039000
N          25.249000     17.895000     -2.342000
S          25.668000     20.443000     -2.905000
C          24.598000     18.638000     -1.394000
C          24.721000     20.043000     -1.493000
C          27.437000     12.354000    -15.515000
H          27.496000     15.044000    -15.170000
H          27.257000     16.286000    -12.894000
H          27.655000     12.560000    -11.034000
H          28.873000     13.926000     -9.516000
H          29.092000     14.692000     -2.640000
H          27.631000     16.782000     -2.032000
H          24.115000     18.155000     -0.554000
H          24.316000     20.757000     -0.789000
H          26.609000     11.648000    -15.661000
C          28.803000     11.677000    -15.734000
H          27.156000     13.047000    -16.318000
H          28.839000     10.849000    -15.016000
H          29.666000     12.302000    -15.472000
C          28.946000     11.198000    -17.229000
H          29.141000     12.048000    -17.894000
C          27.828000     10.361000    -17.810000
H          29.846000     10.578000    -17.326000
H          28.188000     10.157000    -18.826000
H          26.894000     10.924000    -17.926000
C          27.670000      9.006000    -17.040000
H          28.627000      8.500000    -16.858000
C          26.633000      8.049000    -17.677000
H          27.182000      9.405000    -16.143000
H          26.039000      8.567000    -18.441000
H          25.884000      7.804000    -16.914000
H          27.036000      7.112000    -18.081000
$end

--------------------------------------------------------------

             Standard Nuclear Orientation (Angstroms)
    I     Atom           X                Y                Z
 ----------------------------------------------------------------
    1      C      11.1501478539    -0.6040084951    -1.1583261635
    2      C      10.7168911292     0.6999211864    -1.3370466052
    3      N      10.3643244913    -1.6085324054    -0.6946426978
    4      C       9.3710523584     0.9771384260    -0.9732298862
    5      C       9.0863719437    -1.3648703088    -0.4311430414
    6      C       8.5364676792    -0.0570280535    -0.4596901060
    7      C       7.1806304349     0.2641999971    -0.0721441002
    8      C       6.9042590455     1.4928738666     0.5602295059
    9      C       6.0565224633    -0.5584707142    -0.3641443893
   10      N       5.6497114409     1.9801957574     0.7441797230
   11      N       6.1111193119    -1.7363107816    -0.9168124268
   12      C       4.7856692602    -0.0454494332    -0.0638856651
   13      C       4.5628114076     1.2816290833     0.4462839034
   14      S       4.5247233562    -2.1452444758    -1.2202363966
   15      N       3.8193315636    -0.8572442671    -0.5419511459
   16      C       3.2851051566     2.0224638849     0.6436833278
   17      S       1.6521957954     1.3484598291     0.4406795080
   18      C       3.1173192700     3.3406030979     1.1485455976
   19      C       0.9205790222     2.9423046747     0.5903909147
   20      S       4.3225456682     4.4959753568     1.6388070303
   21      C       1.8186434168     3.7983748091     1.0483453536
   22      C      -0.4133034936     3.2458438134     0.1864262811
   23      C       3.0928921428     5.6942729143     1.7103344463
   24      C       1.8153646867     5.1989903213     1.3256816785
   25      N      -1.1411690781     4.2556060451     0.6161063089
   26      S      -1.1536160112     2.2402714497    -1.0745446138
   27      C      -2.4070433575     4.2262410098     0.0258470410
   28      C      -2.5241665272     3.2724131874    -0.9060105921
   29      C      12.5471907164    -0.9541541435    -1.6740395191
   30      H      11.4165681080     1.4708541732    -1.6456814302
   31      H       9.0133433938     1.9853660773    -1.1600648394
   32      H       8.4753420916    -2.1543731277     0.0029742455
   33      H       7.7776824337     2.1044546959     0.7844558966
   34      H       3.3563616297     6.6895682529     2.0448804351
   35      H       0.9584973866     5.8604815194     1.2850513359
   36      H      -3.1528896956     4.9227702087     0.3869139531
   37      H      -3.3608303387     3.1518089248    -1.5816090516
   38      H      12.5405298489    -1.8488462295    -2.3095611191
   39      C      13.6083051800    -1.3658496333    -0.5369392953
   40      H      12.9967151238    -0.2322193061    -2.3671231343
   41      H      13.2516844114    -2.3441201864    -0.1930260035
   42      H      13.4817688222    -0.6079595996     0.2462058043
   43      C      15.1309375849    -1.4701840846    -1.1274398304
   44      H      15.0832223510    -2.1724467932    -1.9689285971
   45      C      16.1571928898    -1.8767113679    -0.0543952754
   46      H      15.4649975561    -0.4832381979    -1.4726756230
   47      H      16.8713485319    -2.4535818983    -0.6536123562
   48      H      15.6238582462    -2.5445177163     0.6329480443
   49      C      16.9354057760    -0.6918420066     0.5626430542
   50      H      17.8095527265    -1.1879111073     1.0004370197
   51      C      16.1635771202     0.2594461781     1.4169429522
   52      H      17.4636376252    -0.0338490967    -0.1390758668
   53      H      15.8307523925    -0.3793574363     2.2448871790
   54      H      15.3256051496     0.7080744546     0.8704901674
   55      H      16.7889894162     1.0297092191     1.8861212848
   56      C      -7.4528984924     4.4242333995    -0.1902847969
   57      C      -8.5125699065     3.5320968308    -0.0114948729
   58      N      -6.1384654543     3.9822242043    -0.2131465463
   59      C      -8.2645029534     2.1358119571     0.0839113023
   60      C      -5.9706771042     2.6750449507    -0.0208252826
   61      C      -6.9326350901     1.7057941559     0.1901124576
   62      C      -6.5953614433     0.2670646585     0.3083576283
   63      C      -5.6434973354    -0.2176397152     1.2385760920
   64      C      -7.2353222307    -0.6779704854    -0.5048513038
   65      N      -5.2987746457    -1.5201512203     1.2885265316
   66      N      -8.0152971748    -0.3327431454    -1.4947796700
   67      C      -6.9219701300    -2.0549647165    -0.3478438250
   68      C      -5.9352907745    -2.4210253476     0.6109676601
   69      S      -8.3453371193    -1.7582612728    -2.2629311546
   70      N      -7.5694323123    -2.7825689604    -1.2702980443
   71      C      -5.4846655163    -3.8750100825     0.6977217221
   72      S      -6.3214769853    -5.2219933106    -0.1222360504
   73      C      -4.3497547306    -4.4017502915     1.2768221113
   74      C      -5.1190976957    -6.3980728548     0.3862567711
   75      S      -3.0558066237    -3.6512643377     2.1200843065
   76      C      -4.1318571972    -5.7255335113     1.0778028863
   77      C      -4.9425229506    -7.8172172631     0.0019710599
   78      C      -2.2549088957    -5.2104293876     2.2666488878
   79      C      -2.9568635104    -6.2114515814     1.7233255158
   80      N      -3.7722513572    -8.0606818155    -0.5677046456
   81      S      -6.0839950073    -9.1248440499     0.1452007026
   82      C      -3.7850541102    -9.3543082235    -1.0159465512
   83      C      -4.9321620151   -10.1217688101    -0.7091849133
   84      C      -7.6410979151     5.8688734576    -0.4355297353
   85      H      -9.5100274166     3.9583419827     0.0287740466
   86      H      -9.0558294695     1.3990573525     0.1824861346
   87      H      -4.9748522972     2.3177176853     0.2351027917
   88      H      -5.0225086524     0.5023056825     1.7699683011
   89      H      -1.2861264116    -5.2420636873     2.7475987496
   90      H      -2.5977129596    -7.2318263883     1.6554128127
   91      H      -2.9056735344    -9.7837855854    -1.4789983825
   92      H      -5.0638263864   -11.1695261411    -0.9422215387
   93      H      -7.2248650756     6.2821348676    -1.3635928960
   94      C      -7.1867781051     6.6743440626     0.7961587865
   95      H      -8.6973541200     6.0175288656    -0.6929076661
   96      H      -6.0910039187     6.6348117798     0.7851983625
   97      H      -7.4655344776     6.2269589675     1.7585409671
   98      C      -7.7473071412     8.1461101919     0.7281392280
   99      H      -8.8156501925     8.1684356036     0.9749077444
  100      C      -7.5167661615     8.9290072251    -0.5454294164
  101      H      -7.2831997880     8.7472273492     1.5200177085
  102      H      -7.9793033744     9.8968748433    -0.3157261289
  103      H      -8.0721047709     8.5219015191    -1.3990364531
  104      C      -5.9885590447     9.1420272805    -0.8157892955
  105      H      -5.4348895480     9.4668430543     0.0746902391
  106      C      -5.6961040180    10.0549876912    -2.0315032199
  107      H      -5.7584084579     8.1255263617    -1.1559518880
  108      H      -6.6071707370    10.2306574785    -2.6179787601
  109      H      -5.0628026893     9.4957699405    -2.7310744703
  110      H      -5.2028917495    11.0078899371    -1.8027829368
 ----------------------------------------------------------------

    9   -5663.5119872040      7.71E-06 Convergence criterion met
 Total energy in the final basis set = -5663.5119872040

                    Orbital Energies (a.u.)
 --------------------------------------------------------------

 Alpha MOs
 -- Occupied --
-88.988 -88.983 -88.937 -88.923 -88.920 -88.916 -88.906 -88.900
-14.389 -14.383 -14.381 -14.374 -14.349 -14.348 -14.344 -14.337
-14.335 -14.327 -10.274 -10.267 -10.265 -10.261 -10.256 -10.254
-10.251 -10.249 -10.244 -10.242 -10.239 -10.238 -10.236 -10.236
-10.234 -10.233 -10.230 -10.228 -10.227 -10.224 -10.221 -10.221
-10.219 -10.219 -10.218 -10.216 -10.215 -10.215 -10.214 -10.212
-10.210 -10.209 -10.204 -10.198 -10.197 -10.197 -10.194 -10.189
-10.188 -10.185 -10.183 -10.182 -10.181 -10.181 -10.179 -10.178
-10.177 -10.176 -10.172 -10.170  -8.044  -8.038  -7.998  -7.981
 -7.979  -7.978  -7.967  -7.961  -6.009  -6.004  -6.004  -6.001
 -5.998  -5.996  -5.961  -5.958  -5.955  -5.946  -5.944  -5.942
 -5.941  -5.940  -5.938  -5.938  -5.936  -5.935  -5.931  -5.927
 -5.925  -5.923  -5.921  -5.917  -1.045  -1.038  -0.974  -0.968
 -0.961  -0.955  -0.939  -0.936  -0.918  -0.914  -0.914  -0.906
 -0.845  -0.845  -0.837  -0.832  -0.813  -0.812  -0.804  -0.801
 -0.799  -0.798  -0.794  -0.791  -0.787  -0.784  -0.768  -0.761
 -0.746  -0.745  -0.738  -0.738  -0.725  -0.717  -0.714  -0.708
 -0.693  -0.691  -0.676  -0.672  -0.657  -0.654  -0.652  -0.642
 -0.634  -0.633  -0.630  -0.621  -0.613  -0.610  -0.600  -0.591
 -0.590  -0.590  -0.586  -0.582  -0.577  -0.576  -0.559  -0.554
 -0.550  -0.550  -0.545  -0.538  -0.526  -0.521  -0.514  -0.512
 -0.507  -0.503  -0.502  -0.498  -0.494  -0.484  -0.481  -0.476
 -0.474  -0.474  -0.469  -0.466  -0.460  -0.458  -0.451  -0.447
 -0.446  -0.444  -0.444  -0.434  -0.434  -0.432  -0.431  -0.429
 -0.425  -0.424  -0.423  -0.421  -0.419  -0.417  -0.415  -0.414
 -0.412  -0.409  -0.407  -0.402  -0.401  -0.398  -0.397  -0.397
 -0.393  -0.392  -0.391  -0.390  -0.389  -0.389  -0.385  -0.384
 -0.380  -0.378  -0.376  -0.375  -0.365  -0.363  -0.357  -0.355
 -0.352  -0.351  -0.347  -0.347  -0.344  -0.343  -0.342  -0.337
 -0.334  -0.334  -0.332  -0.332  -0.329  -0.325  -0.322  -0.318
 -0.315  -0.311  -0.309  -0.302  -0.300  -0.299  -0.299  -0.297
 -0.295  -0.295  -0.291  -0.288  -0.284  -0.281  -0.281  -0.274
 -0.273  -0.269  -0.268  -0.264  -0.258  -0.250  -0.250  -0.248
 -0.245  -0.241  -0.239  -0.226  -0.196  -0.189

          Ground-State Mulliken Net Atomic Charges

     Atom                 Charge (a.u.)
  ----------------------------------------
      1 C                     0.283310
      2 C                    -0.114171
      3 N                    -0.488451
      4 C                    -0.094578
      5 C                     0.105547
      6 C                     0.023485
      7 C                     0.023024
      8 C                     0.061582
      9 C                     0.277344
     10 N                    -0.543948
     11 N                    -0.585781
     12 C                     0.163994
     13 C                     0.348732
     14 S                     0.590278
     15 N                    -0.535470
     16 C                    -0.220817
     17 S                     0.302782
     18 C                    -0.132016
     19 C                    -0.242549
     20 S                     0.296614
     21 C                     0.221859
     22 C                     0.065951
     23 C                    -0.307941
     24 C                    -0.085426
     25 N                    -0.445032
     26 S                     0.256318
     27 C                     0.118855
     28 C                    -0.306398
     29 C                    -0.242336
     30 H                     0.096963
     31 H                     0.103864
     32 H                     0.114861
     33 H                     0.111993
     34 H                     0.130814
     35 H                     0.120119
     36 H                     0.133875
     37 H                     0.141459
     38 H                     0.114343
     39 C                    -0.192030
     40 H                     0.093406
     41 H                     0.117542
     42 H                     0.097345
     43 C                    -0.183860
     44 H                     0.092235
     45 C                    -0.171769
     46 H                     0.092341
     47 H                     0.090761
     48 H                     0.098026
     49 C                    -0.184052
     50 H                     0.091514
     51 C                    -0.306635
     52 H                     0.088825
     53 H                     0.102824
     54 H                     0.109182
     55 H                     0.099509
     56 C                     0.262388
     57 C                    -0.127869
     58 N                    -0.494203
     59 C                    -0.046500
     60 C                     0.075190
     61 C                     0.045450
     62 C                     0.012078
     63 C                     0.048387
     64 C                     0.232936
     65 N                    -0.517185
     66 N                    -0.563473
     67 C                     0.219461
     68 C                     0.349441
     69 S                     0.590806
     70 N                    -0.559464
     71 C                    -0.249002
     72 S                     0.326655
     73 C                    -0.095463
     74 C                    -0.232083
     75 S                     0.263319
     76 C                     0.159509
     77 C                     0.000378
     78 C                    -0.314824
     79 C                    -0.027879
     80 N                    -0.382751
     81 S                     0.293655
     82 C                     0.108676
     83 C                    -0.307263
     84 C                    -0.220743
     85 H                     0.091959
     86 H                     0.104654
     87 H                     0.092270
     88 H                     0.120679
     89 H                     0.127709
     90 H                     0.110578
     91 H                     0.113945
     92 H                     0.136917
     93 H                     0.121090
     94 C                    -0.181530
     95 H                     0.090974
     96 H                     0.120932
     97 H                     0.096257
     98 C                    -0.183081
     99 H                     0.087723
    100 C                    -0.187721
    101 H                     0.089777
    102 H                     0.089973
    103 H                     0.089837
    104 C                    -0.169695
    105 H                     0.098124
    106 C                    -0.331826
    107 H                     0.107776
    108 H                     0.103268
    109 H                     0.104770
    110 H                     0.106797
  ----------------------------------------
  Sum of atomic charges =     0.000000

                    Cartesian Multipole Moments
 -----------------------------------------------------------------
    Charge (ESU x 10^10)
                 0.0000
    Dipole Moment (Debye)
         X      -3.1726      Y      -0.9839      Z      -1.6455
       Tot       3.7069
    Quadrupole Moments (Debye-Ang)
        XX    -388.9773     XY      15.6608     YY    -390.4576
        XZ       1.5806     YZ       3.0343     ZZ    -448.3748

 Total job time:  80.14s(wall), 941.12s(cpu)
        *  Thank you very much for using Q-Chem.  Have a nice day.  *
