 Q-Chem 4.4, Q-Chem, Inc., Pleasanton, CA (2016)
 Q-Chem 4.4.2 for Intel X86 Linux

User input:
--------------------------------------------------------------
$comment
SP
$end

$rem
MEM_STATIC 5000
MEM_TOTAL 20000
JOBTYPE SP
EXCHANGE B3LYP
BASIS 6-31g(d,p)
$end

$molecule
0 1
C          15.126000      8.824000      3.843000
C          16.233000      9.216000      4.643000
N          14.474000      9.704000      3.085000
C          16.616000     10.586000      4.683000
C          14.868000     10.993000      3.127000
C          15.919000     11.501000      3.932000
C          16.368000     12.964000      3.963000
C          17.724000     13.331000      4.237000
C          15.513000     14.048000      3.672000
N          18.257000     14.545000      4.234000
N          14.204000     13.903000      3.384000
C          16.022000     15.321000      3.662000
C          17.447000     15.582000      3.901000
S          13.743000     15.473000      3.059000
N          15.187000     16.297000      3.275000
C          18.202000     16.808000      3.769000
S          19.978000     16.779000      3.459000
C          17.815000     18.038000      4.240000
C          19.943000     18.557000      3.444000
S          16.387000     18.576000      4.950000
C          18.785000     19.014000      4.057000
C          21.095000     19.360000      3.101000
C          17.010000     20.198000      5.073000
C          18.261000     20.262000      4.449000
N          22.084000     18.847000      2.375000
S          21.451000     20.992000      3.691000
C          23.086000     19.748000      2.139000
C          22.931000     20.919000      2.845000
C          14.765000      7.380000      3.802000
H          16.787000      8.409000      5.114000
H          17.473000     10.753000      5.329000
H          14.292000     11.642000      2.468000
H          18.452000     12.553000      4.463000
H          16.380000     20.887000      5.621000
H          18.753000     21.221000      4.336000
H          23.940000     19.463000      1.538000
H          23.579000     21.786000      2.861000
H          14.626000      6.993000      2.785000
C          13.526000      6.961000      4.583000
H          15.586000      6.770000      4.197000
H          12.668000      7.608000      4.363000
H          13.692000      7.095000      5.659000
C          13.143000      5.444000      4.297000
H          12.786000      5.295000      3.271000
C          12.098000      4.977000      5.291000
H          14.023000      4.802000      4.428000
H          12.495000      5.138000      6.301000
H          12.009000      3.891000      5.161000
C          10.738000      5.649000      5.157000
H          10.672000      6.700000      5.462000
C           9.656000      4.919000      5.945000
H          10.346000      5.710000      4.134000
H           8.948000      5.689000      6.275000
H          10.173000      4.407000      6.766000
H           9.157000      4.136000      5.361000
C          27.455000     13.130000    -14.258000
C          27.436000     14.526000    -14.218000
N          27.425000     12.378000    -13.093000
C          27.317000     15.205000    -12.975000
C          27.412000     13.078000    -11.960000
C          27.417000     14.450000    -11.796000
C          27.318000     15.089000    -10.462000
C          28.203000     14.777000     -9.401000
C          26.333000     16.054000    -10.212000
N          28.059000     15.317000     -8.174000
N          25.375000     16.310000    -11.063000
C          26.281000     16.679000     -8.937000
C          27.215000     16.271000     -7.943000
S          24.372000     17.336000    -10.243000
N          25.223000     17.501000     -8.870000
C          27.088000     16.827000     -6.529000
S          26.022000     18.191000     -6.093000
C          27.629000     16.350000     -5.354000
C          26.392000     18.051000     -4.381000
S          28.644000     15.001000     -5.040000
C          27.230000     16.967000     -4.214000
C          25.793000     18.733000     -3.211000
C          28.576000     15.358000     -3.319000
C          27.845000     16.443000     -3.039000
N          25.249000     17.895000     -2.342000
S          25.668000     20.443000     -2.905000
C          24.598000     18.638000     -1.394000
C          24.721000     20.043000     -1.493000
C          27.437000     12.354000    -15.515000
H          27.496000     15.044000    -15.170000
H          27.257000     16.286000    -12.894000
H          27.655000     12.560000    -11.034000
H          28.873000     13.926000     -9.516000
H          29.092000     14.692000     -2.640000
H          27.631000     16.782000     -2.032000
H          24.115000     18.155000     -0.554000
H          24.316000     20.757000     -0.789000
H          26.609000     11.648000    -15.661000
C          28.803000     11.677000    -15.734000
H          27.156000     13.047000    -16.318000
H          28.839000     10.849000    -15.016000
H          29.666000     12.302000    -15.472000
C          28.946000     11.198000    -17.229000
H          29.141000     12.048000    -17.894000
C          27.828000     10.361000    -17.810000
H          29.846000     10.578000    -17.326000
H          28.188000     10.157000    -18.826000
H          26.894000     10.924000    -17.926000
C          27.670000      9.006000    -17.040000
H          28.627000      8.500000    -16.858000
C          26.633000      8.049000    -17.677000
H          27.182000      9.405000    -16.143000
H          26.039000      8.567000    -18.441000
H          25.884000      7.804000    -16.914000
H          27.036000      7.112000    -18.081000
$end

--------------------------------------------------------------

             Standard Nuclear Orientation (Angstroms)
    I     Atom           X                Y                Z
 ----------------------------------------------------------------
    1      C      -9.4294491741     5.6114422264    -1.1156553424
    2      C      -9.4033288375     4.6283220428    -2.1412797535
    3      N      -9.1490942226     5.3000062457     0.1486534534
    4      C      -9.1318361395     3.2728704341    -1.8032980214
    5      C      -8.8774349313     4.0116293752     0.4398703299
    6      C      -8.8815229043     2.9439520295    -0.4932633014
    7      C      -8.5586647814     1.4862880657    -0.1557586333
    8      C      -7.9630415343     0.6046936642    -1.1131118903
    9      C      -8.7628397326     0.9178943478     1.1193896603
   10      N      -7.5777953229    -0.6515451182    -0.9360709959
   11      N      -9.3067665171     1.5915408910     2.1527308373
   12      C      -8.3826199751    -0.3798984340     1.3449485915
   13      C      -7.7243531447    -1.1808174329     0.3051983631
   14      S      -9.2242296005     0.4678375387     3.3829846459
   15      N      -8.5037548953    -0.8295829677     2.6029947557
   16      C      -7.1039508490    -2.4840756803     0.3897201465
   17      S      -5.8130372922    -2.9776384955    -0.7683191172
   18      C      -7.6404938694    -3.5843843126     1.0109709019
   19      C      -5.7188805665    -4.5308108886     0.0927987774
   20      S      -9.0208829840    -3.7873865169     1.9522700027
   21      C      -6.8671560219    -4.7254797555     0.8472187603
   22      C      -4.7194963153    -5.5318852384    -0.2049314103
   23      C      -8.6610462836    -5.4749280616     2.1907298192
   24      C      -7.4192522956    -5.7691658386     1.6164086358
   25      N      -3.5823620721    -5.1934045421    -0.8055332178
   26      S      -4.8929395888    -7.2828393942     0.0008280978
   27      C      -2.7517672238    -6.2626665618    -1.0012164598
   28      C      -3.3453667445    -7.4656127260    -0.6941950678
   29      C      -9.6914933043     7.0249123543    -1.5036928035
   30      H      -9.5051861573     4.9998876080    -3.1569421567
   31      H      -9.1410272296     2.6238720279    -2.6741427795
   32      H      -8.6457654974     3.8465418142     1.4916941605
   33      H      -7.7632425416     0.9675004934    -2.1204825109
   34      H      -9.4335915617    -6.0373824146     2.6993985662
   35      H      -6.9839368765    -6.7512789200     1.7594763869
   36      H      -1.7816572824    -6.1180599677    -1.4591658397
   37      H      -2.9280001518    -8.4613779659    -0.7723341388
   38      H      -8.9740108867     7.7358007493    -1.0756324452
   39      C     -11.0735279527     7.5789313546    -1.1816894220
   40      H      -9.5639189943     7.1537399958    -2.5850318966
   41      H     -11.3620191228     7.3750726259    -0.1432350593
   42      H     -11.8374139831     7.0634607454    -1.7767156262
   43      C     -11.1548198730     9.1418034935    -1.4655842993
   44      H     -10.5442668433     9.7210976610    -0.7627548283
   45      C     -12.5978077307     9.6036133728    -1.4139347310
   46      H     -10.7812490581     9.3616834391    -2.4734645777
   47      H     -13.1712727092     9.0048747053    -2.1324609494
   48      H     -12.6076977747    10.6345389285    -1.7898491970
   49      C     -13.2489045419     9.5249384467    -0.0395173277
   50      H     -13.4733316551     8.5235541551     0.3462856938
   51      C     -14.5624030198    10.2968365014     0.0193311355
   52      H     -12.6491977320     9.9300043883     0.7852173721
   53      H     -15.1999802996     9.7587301593     0.7313710058
   54      H     -14.9516307204    10.3103320939    -1.0062387870
   55      H     -14.4287399724    11.3458654657     0.3105671598
   56      C      12.6733190055     3.2367829685     0.8895155253
   57      C      12.7104049439     1.9980252097     1.5336279754
   58      N      11.6714154015     3.5437054778    -0.0191190225
   59      C      11.6758375906     1.0476120462     1.3176737905
   60      C      10.7891054200     2.5726288908    -0.2480237158
   61      C      10.7387420783     1.3076052871     0.3055860889
   62      C       9.6401074479     0.3568560507     0.0110426486
   63      C       9.2845371900    -0.0098192825    -1.3100966293
   64      C       8.9158399174    -0.2319767458     1.0563476195
   65      N       8.2402018547    -0.8237555933    -1.5645300968
   66      N       9.0557339776     0.1432550711     2.3001851231
   67      C       7.8916300560    -1.1680765968     0.7502998640
   68      C       7.6133884696    -1.4458632285    -0.6180101180
   69      S       7.8640623429    -0.6730236236     3.1031127709
   70      N       7.2640733324    -1.5475374356     1.8735625361
   71      C       6.4289218623    -2.3388319038    -0.9705818144
   72      S       5.5299181462    -3.3105450894     0.2271300890
   73      C       5.7698893725    -2.4762663046    -2.1737538565
   74      C       4.3562722991    -3.8555843544    -0.9615379156
   75      S       6.0340925482    -1.7367039831    -3.7007987984
   76      C       4.6506196885    -3.2421633523    -2.1624805823
   77      C       3.0991566919    -4.6188653884    -0.7886581505
   78      C       4.6248192984    -2.5712993735    -4.3421360279
   79      C       4.0323011828    -3.3638016804    -3.4416648312
   80      N       2.0297236350    -3.9640521011    -1.2139503977
   81      S       2.8773195772    -6.1819990620    -0.0532926543
   82      C       0.9249103875    -4.6930944236    -0.8640375796
   83      C       1.1581091950    -5.9452758582    -0.2503479421
   84      C      13.6332009697     4.3248622167     1.1674708535
   85      H      13.5443835360     1.8201138944     2.2052344612
   86      H      11.6375759097     0.0883230591     1.8246478362
   87      H      10.1539360924     2.6534821474    -1.1282916729
   88      H       9.7214968064     0.5451834652    -2.1391709588
   89      H       4.3408060823    -2.3766661273    -5.3679563789
   90      H       3.1129739113    -3.9065179286    -3.6289145088
   91      H      -0.0648224052    -4.3638058012    -1.1541685880
   92      H       0.3930502871    -6.6571879937     0.0276861902
   93      H      13.2244877964     5.2820021328     1.5170030024
   94      C      14.5726307468     4.5172382485    -0.0378129953
   95      H      14.1568262679     4.0638701197     2.0957588866
   96      H      13.9660928583     5.0093713513    -0.8074367987
   97      H      14.9035224053     3.5828689790    -0.5084538123
   98      C      15.8363488183     5.3622089129     0.3792675872
   99      H      16.5369089379     4.7536789324     0.9637817287
  100      C      15.6012238457     6.6730141894     1.0965958064
  101      H      16.4070697686     5.6276470092    -0.5194143442
  102      H      16.6212863495     7.0486382897     1.2444167240
  103      H      15.1792914260     6.5369221631     2.0997074620
  104      C      14.8084374858     7.6815038750     0.1975255412
  105      H      15.1938507597     7.7384491572    -0.8287409169
  106      C      14.6591510152     9.0878039338     0.8276213230
  107      H      13.8206211808     7.2156956872     0.2934196479
  108      H      14.9575027027     9.0777762300     1.8839080813
  109      H      13.5892410545     9.3236270883     0.8812414281
  110      H      15.1678753522     9.9026821913     0.2977468337
 ----------------------------------------------------------------

   10   -5663.5150522376      3.57E-06 Convergence criterion met
 Total energy in the final basis set = -5663.5150522376

                    Orbital Energies (a.u.)
 --------------------------------------------------------------

 Alpha MOs
 -- Occupied --
-88.986 -88.985 -88.936 -88.932 -88.927 -88.921 -88.914 -88.899
-14.395 -14.389 -14.387 -14.379 -14.348 -14.348 -14.346 -14.346
-14.328 -14.326 -10.273 -10.273 -10.265 -10.263 -10.260 -10.254
-10.254 -10.249 -10.246 -10.240 -10.239 -10.239 -10.237 -10.237
-10.237 -10.236 -10.235 -10.234 -10.233 -10.229 -10.227 -10.226
-10.224 -10.224 -10.219 -10.218 -10.218 -10.217 -10.214 -10.213
-10.213 -10.211 -10.209 -10.204 -10.199 -10.197 -10.196 -10.188
-10.183 -10.181 -10.180 -10.179 -10.178 -10.177 -10.176 -10.175
-10.174 -10.171 -10.169 -10.166  -8.042  -8.041  -7.997  -7.993
 -7.985  -7.980  -7.976  -7.960  -6.007  -6.006  -6.001  -6.000
 -5.999  -5.998  -5.961  -5.957  -5.957  -5.954  -5.954  -5.951
 -5.949  -5.946  -5.944  -5.941  -5.940  -5.940  -5.937  -5.936
 -5.932  -5.924  -5.920  -5.916  -1.043  -1.035  -0.973  -0.972
 -0.967  -0.960  -0.938  -0.933  -0.925  -0.917  -0.912  -0.909
 -0.854  -0.844  -0.834  -0.831  -0.813  -0.813  -0.808  -0.808
 -0.807  -0.801  -0.800  -0.791  -0.784  -0.783  -0.766  -0.764
 -0.754  -0.744  -0.743  -0.737  -0.733  -0.724  -0.713  -0.710
 -0.697  -0.691  -0.674  -0.674  -0.653  -0.653  -0.651  -0.645
 -0.632  -0.630  -0.627  -0.626  -0.610  -0.610  -0.606  -0.602
 -0.597  -0.591  -0.590  -0.586  -0.582  -0.575  -0.564  -0.552
 -0.551  -0.548  -0.544  -0.543  -0.525  -0.524  -0.518  -0.512
 -0.507  -0.507  -0.502  -0.501  -0.490  -0.483  -0.479  -0.478
 -0.473  -0.472  -0.471  -0.466  -0.462  -0.456  -0.455  -0.449
 -0.446  -0.443  -0.443  -0.443  -0.442  -0.438  -0.432  -0.429
 -0.426  -0.423  -0.422  -0.420  -0.420  -0.418  -0.417  -0.415
 -0.415  -0.411  -0.406  -0.403  -0.400  -0.399  -0.399  -0.397
 -0.396  -0.395  -0.392  -0.391  -0.388  -0.387  -0.385  -0.384
 -0.382  -0.381  -0.377  -0.377  -0.364  -0.362  -0.361  -0.356
 -0.352  -0.349  -0.348  -0.347  -0.345  -0.345  -0.342  -0.341
 -0.340  -0.335  -0.335  -0.332  -0.328  -0.326  -0.322  -0.322
 -0.318  -0.313  -0.307  -0.307  -0.306  -0.305  -0.300  -0.299
 -0.297  -0.297  -0.295  -0.291  -0.288  -0.286  -0.283  -0.279
 -0.276  -0.270  -0.266  -0.262  -0.260  -0.252  -0.251  -0.249
 -0.247  -0.243  -0.236  -0.233  -0.195  -0.194

          Ground-State Mulliken Net Atomic Charges

     Atom                 Charge (a.u.)
  ----------------------------------------
      1 C                     0.292217
      2 C                    -0.131132
      3 N                    -0.489053
      4 C                    -0.087775
      5 C                     0.077453
      6 C                     0.052707
      7 C                     0.033739
      8 C                     0.062267
      9 C                     0.247272
     10 N                    -0.504322
     11 N                    -0.558367
     12 C                     0.211791
     13 C                     0.259888
     14 S                     0.584831
     15 N                    -0.545829
     16 C                    -0.205826
     17 S                     0.358513
     18 C                    -0.121186
     19 C                    -0.204478
     20 S                     0.285455
     21 C                     0.158984
     22 C                     0.046638
     23 C                    -0.301481
     24 C                    -0.107378
     25 N                    -0.433530
     26 S                     0.278093
     27 C                     0.120241
     28 C                    -0.314031
     29 C                    -0.228503
     30 H                     0.088266
     31 H                     0.103466
     32 H                     0.119768
     33 H                     0.102966
     34 H                     0.146040
     35 H                     0.110859
     36 H                     0.113762
     37 H                     0.134661
     38 H                     0.115145
     39 C                    -0.174298
     40 H                     0.092543
     41 H                     0.116418
     42 H                     0.088409
     43 C                    -0.181935
     44 H                     0.097470
     45 C                    -0.179111
     46 H                     0.084563
     47 H                     0.093601
     48 H                     0.088260
     49 C                    -0.171329
     50 H                     0.098094
     51 C                    -0.320932
     52 H                     0.092224
     53 H                     0.098886
     54 H                     0.100630
     55 H                     0.103488
     56 C                     0.259216
     57 C                    -0.127500
     58 N                    -0.476211
     59 C                    -0.047911
     60 C                     0.079928
     61 C                     0.044772
     62 C                     0.016105
     63 C                     0.046985
     64 C                     0.232175
     65 N                    -0.517518
     66 N                    -0.561045
     67 C                     0.219437
     68 C                     0.349060
     69 S                     0.591831
     70 N                    -0.560914
     71 C                    -0.248697
     72 S                     0.327429
     73 C                    -0.095403
     74 C                    -0.232647
     75 S                     0.260176
     76 C                     0.159856
     77 C                     0.000580
     78 C                    -0.314505
     79 C                    -0.027856
     80 N                    -0.383194
     81 S                     0.291812
     82 C                     0.105590
     83 C                    -0.312159
     84 C                    -0.219279
     85 H                     0.089793
     86 H                     0.102504
     87 H                     0.085195
     88 H                     0.117083
     89 H                     0.126748
     90 H                     0.110361
     91 H                     0.124824
     92 H                     0.133747
     93 H                     0.121445
     94 C                    -0.181314
     95 H                     0.088992
     96 H                     0.124911
     97 H                     0.094231
     98 C                    -0.183031
     99 H                     0.086407
    100 C                    -0.187098
    101 H                     0.088338
    102 H                     0.088525
    103 H                     0.089847
    104 C                    -0.169745
    105 H                     0.096995
    106 C                    -0.331530
    107 H                     0.110626
    108 H                     0.102748
    109 H                     0.104680
    110 H                     0.105491
  ----------------------------------------
  Sum of atomic charges =     0.000000

                    Cartesian Multipole Moments
 -----------------------------------------------------------------
    Charge (ESU x 10^10)
                 0.0000
    Dipole Moment (Debye)
         X      -1.7137      Y      -5.1157      Z       1.2740
       Tot       5.5434
    Quadrupole Moments (Debye-Ang)
        XX    -411.3292     XY      15.2234     YY    -406.3589
        XZ      19.2551     YZ     -14.7548     ZZ    -429.7408

 Total job time:  85.00s(wall), 982.87s(cpu)
        *  Thank you very much for using Q-Chem.  Have a nice day.  *
