 Q-Chem 4.4, Q-Chem, Inc., Pleasanton, CA (2016)
 Q-Chem 4.4.2 for Intel X86 Linux

User input:
--------------------------------------------------------------
$comment
SP
$end

$rem
MEM_STATIC 5000
MEM_TOTAL 20000
JOBTYPE SP
EXCHANGE B3LYP
BASIS 6-31g(d,p)
$end

$molecule
0 1
C          26.601000     25.159000     -2.806000
C          26.070000     23.890000     -3.027000
N          25.989000     26.214000     -2.308000
C          24.787000     23.652000     -2.486000
C          24.701000     26.041000     -1.996000
C          24.041000     24.772000     -2.011000
C          22.631000     24.633000     -1.626000
C          22.195000     23.426000     -1.090000
C          21.623000     25.558000     -1.829000
N          20.951000     23.201000     -0.616000
N          21.831000     26.790000     -2.364000
C          20.304000     25.277000     -1.604000
C          20.004000     24.066000     -0.919000
S          20.325000     27.402000     -2.650000
N          19.431000     26.244000     -1.968000
C          18.563000     23.692000     -0.735000
S          17.096000     24.481000     -1.522000
C          18.103000     22.658000     -0.061000
C          15.920000     23.477000     -0.652000
S          19.048000     21.480000      0.863000
C          16.708000     22.501000     -0.093000
C          14.633000     23.152000     -1.053000
C          17.436000     20.676000      1.149000
C          16.351000     21.311000      0.555000
N          13.772000     22.771000     -0.149000
S          14.350000     22.698000     -2.696000
C          12.762000     22.072000     -0.776000
C          12.983000     21.795000     -2.098000
C          27.959000     25.597000     -3.231000
H          26.677000     23.114000     -3.485000
H          24.350000     22.659000     -2.542000
H          24.246000     26.987000     -1.706000
H          22.870000     22.576000     -1.000000
H          17.460000     19.788000      1.766000
H          15.332000     20.958000      0.662000
H          11.985000     21.662000     -0.145000
H          12.330000     21.240000     -2.759000
H          28.214000     25.082000     -4.165000
C          28.968000     25.241000     -2.157000
H          28.012000     26.661000     -3.494000
H          29.121000     24.156000     -2.123000
H          28.500000     25.459000     -1.189000
C          30.263000     26.097000     -2.275000
H          29.937000     27.145000     -2.288000
C          31.101000     25.780000     -3.614000
H          30.970000     25.959000     -1.448000
H          30.607000     26.118000     -4.534000
H          31.115000     24.702000     -3.819000
C          32.515000     26.379000     -3.577000
H          32.322000     27.419000     -3.290000
C          33.221000     26.307000     -4.904000
H          33.100000     26.074000     -2.700000
H          33.813000     25.388000     -4.991000
H          33.986000     27.093000     -4.932000
H          32.700000     26.432000     -5.861000
C          27.455000     13.130000    -14.258000
C          27.436000     14.526000    -14.218000
N          27.425000     12.378000    -13.093000
C          27.317000     15.205000    -12.975000
C          27.412000     13.078000    -11.960000
C          27.417000     14.450000    -11.796000
C          27.318000     15.089000    -10.462000
C          28.203000     14.777000     -9.401000
C          26.333000     16.054000    -10.212000
N          28.059000     15.317000     -8.174000
N          25.375000     16.310000    -11.063000
C          26.281000     16.679000     -8.937000
C          27.215000     16.271000     -7.943000
S          24.372000     17.336000    -10.243000
N          25.223000     17.501000     -8.870000
C          27.088000     16.827000     -6.529000
S          26.022000     18.191000     -6.093000
C          27.629000     16.350000     -5.354000
C          26.392000     18.051000     -4.381000
S          28.644000     15.001000     -5.040000
C          27.230000     16.967000     -4.214000
C          25.793000     18.733000     -3.211000
C          28.576000     15.358000     -3.319000
C          27.845000     16.443000     -3.039000
N          25.249000     17.895000     -2.342000
S          25.668000     20.443000     -2.905000
C          24.598000     18.638000     -1.394000
C          24.721000     20.043000     -1.493000
C          27.437000     12.354000    -15.515000
H          27.496000     15.044000    -15.170000
H          27.257000     16.286000    -12.894000
H          27.655000     12.560000    -11.034000
H          28.873000     13.926000     -9.516000
H          29.092000     14.692000     -2.640000
H          27.631000     16.782000     -2.032000
H          24.115000     18.155000     -0.554000
H          24.316000     20.757000     -0.789000
H          26.609000     11.648000    -15.661000
C          28.803000     11.677000    -15.734000
H          27.156000     13.047000    -16.318000
H          28.839000     10.849000    -15.016000
H          29.666000     12.302000    -15.472000
C          28.946000     11.198000    -17.229000
H          29.141000     12.048000    -17.894000
C          27.828000     10.361000    -17.810000
H          29.846000     10.578000    -17.326000
H          28.188000     10.157000    -18.826000
H          26.894000     10.924000    -17.926000
C          27.670000      9.006000    -17.040000
H          28.627000      8.500000    -16.858000
C          26.633000      8.049000    -17.677000
H          27.182000      9.405000    -16.143000
H          26.039000      8.567000    -18.441000
H          25.884000      7.804000    -16.914000
H          27.036000      7.112000    -18.081000
$end

--------------------------------------------------------------

             Standard Nuclear Orientation (Angstroms)
    I     Atom           X                Y                Z
 ----------------------------------------------------------------
    1      C      -3.7298715779     5.0634854264    -1.2283918468
    2      C      -3.0663447666     3.9906264015    -0.6368948616
    3      N      -4.9707626475     5.1005140974    -1.6692900561
    4      C      -3.8662552588     2.8756399631    -0.3016897802
    5      C      -5.6622413722     3.9635854865    -1.5449216245
    6      C      -5.1926961132     2.8200657716    -0.8251467212
    7      C      -6.0083787359     1.6067004872    -0.6907869597
    8      C      -5.8336822858     0.7980551289     0.4271642176
    9      C      -6.8943994802     1.0981122438    -1.6230976587
   10      N      -6.5796730544    -0.2907409993     0.7115192149
   11      N      -7.1894612322     1.7192448219    -2.7954652985
   12      C      -7.4782853323    -0.1315980174    -1.4956732293
   13      C      -7.3362078183    -0.7931498256    -0.2435114245
   14      S      -8.0617039392     0.6201538354    -3.6646992505
   15      N      -8.2222510880    -0.5364568086    -2.5503382536
   16      C      -7.8933891410    -2.1789843791    -0.1048587505
   17      S      -8.5263930869    -3.2670387665    -1.4500065694
   18      C      -7.9239693459    -2.9035221142     0.9947511446
   19      C      -9.0319617870    -4.5628510346    -0.3485698462
   20      S      -7.3864351491    -2.4160444264     2.6096528416
   21      C      -8.4491701579    -4.1965200234     0.8397720689
   22      C      -9.1652177041    -5.9113938481    -0.6426279030
   23      C      -7.8303886224    -4.1216999625     3.0791211641
   24      C      -8.3216832340    -4.9059506600     2.0413994055
   25      N      -9.9228684130    -6.6482643712     0.1233259047
   26      S      -7.9475180427    -6.6940247366    -1.5862117239
   27      C      -9.5563043548    -7.9676136683    -0.0403146267
   28      C      -8.4235661366    -8.1667037189    -0.7822858396
   29      C      -3.0916207923     6.3564695650    -1.5991491150
   30      H      -2.0216153445     4.0815535797    -0.3528848569
   31      H      -3.4333990422     2.0411319535     0.2427235533
   32      H      -6.6294692775     4.0467687782    -2.0384717427
   33      H      -5.0717188686     1.0266581924     1.1710576173
   34      H      -7.6892157697    -4.3707187330     4.1221306931
   35      H      -8.6473609111    -5.9300417449     2.1813654748
   36      H     -10.0793764389    -8.6995870769     0.5601856014
   37      H      -7.9574029878    -9.1175121901    -1.0059153765
   38      H      -2.0540207946     6.1599020908    -1.8947053241
   39      C      -3.1169073357     7.2961292760    -0.4097403466
   40      H      -3.5347939313     6.8228903139    -2.4880378898
   41      H      -2.4167309806     6.9535031620     0.3610711854
   42      H      -4.0960253008     7.1816366706     0.0717069024
   43      C      -2.9596527753     8.7825930430    -0.8449201629
   44      H      -3.7307576377     8.9621375009    -1.6051241348
   45      C      -1.5084608925     9.1003449227    -1.4684022093
   46      H      -3.0930628376     9.5057387189    -0.0312346667
   47      H      -1.3366342995     8.6330973816    -2.4465818233
   48      H      -0.7199738878     8.5910632480    -0.8998730375
   49      C      -1.2434830520    10.6076767182    -1.5999453673
   50      H      -2.1449547185    10.9605893422    -2.1137736599
   51      C      -0.0080113154    10.9218028625    -2.3996223981
   52      H      -1.3652354031    11.1602425595    -0.6596122583
   53      H       0.8730999916    11.0113529269    -1.7529249027
   54      H      -0.1108986941    11.9331629851    -2.8123812743
   55      H       0.3036509148    10.3286795345    -3.2679462847
   56      C      11.3837705034    -1.8723623447    -1.4435655779
   57      C      10.5097780259    -1.2594048406    -2.3442304698
   58      N      11.0599359582    -1.9966267871    -0.1006886157
   59      C       9.2339161919    -0.8084621851    -1.9093991209
   60      C       9.8920756171    -1.4662347636     0.2579818807
   61      C       8.9624153375    -0.8178422375    -0.5323496299
   62      C       7.6602529005    -0.3487781967    -0.0012847438
   63      C       7.5600892262     0.4996833615     1.1284808171
   64      C       6.4644250810    -0.7274878224    -0.6262046152
   65      N       6.3667647388     0.8636997494     1.6396889323
   66      N       6.4273628767    -1.6218859979    -1.5781391175
   67      C       5.2308514747    -0.2356500402    -0.1208871371
   68      C       5.2547163156     0.5992037794     1.0320680091
   69      S       4.8137464914    -1.8733609782    -1.8312941988
   70      N       4.2071674712    -0.7788498625    -0.7965660654
   71      C       3.9372563042     1.0231522895     1.6717771453
   72      S       2.3427388027     0.7891887442     0.9038429053
   73      C       3.7037539977     1.5213126834     2.9359558885
   74      C       1.4768886158     1.3973019989     2.3066777935
   75      S       4.7752360655     1.8698168333     4.2317541120
   76      C       2.4039754869     1.6795409811     3.2895511781
   77      C       0.0265877032     1.4161327742     2.6051701130
   78      C       3.4036595029     2.3189981908     5.2372031863
   79      C       2.2327002576     2.2213173614     4.5974384628
   80      N      -0.2879282427     0.7451912484     3.7025570953
   81      S      -1.2588124528     2.1304469366     1.6719698579
   82      C      -1.6535516889     0.7007313763     3.7900209318
   83      C      -2.3768306750     1.4133025700     2.8061180900
   84      C      12.6641923425    -2.4888073605    -1.8473779803
   85      H      10.8487075269    -1.1698722450    -3.3715272661
   86      H       8.5036184921    -0.3631500036    -2.5780427709
   87      H       9.7092735384    -1.2967950980     1.3175679318
   88      H       8.4544561853     0.6818405451     1.7228313055
   89      H       3.5967343499     2.6104769218     6.2612223526
   90      H       1.2719625529     2.3901267868     5.0699344318
   91      H      -2.1344723076     0.2351203581     4.6409614340
   92      H      -3.4524645723     1.5209143893     2.7766492017
   93      H      12.8038875752    -3.5548441157    -1.6251463928
   94      C      13.8415646465    -1.6433241029    -1.3266107397
   95      H      12.6438996940    -2.5885057100    -2.9399288705
   96      H      13.8861147048    -1.8346541456    -0.2478095036
   97      H      13.6907466476    -0.5592564168    -1.4046439582
   98      C      15.1730731340    -2.0354964742    -2.0737392286
   99      H      15.1866917685    -1.6221475013    -3.0894690940
  100      C      15.5429082040    -3.5011195653    -2.1305280981
  101      H      16.0224193910    -1.5462693846    -1.5807110443
  102      H      16.4954224165    -3.4843343575    -2.6745013803
  103      H      14.8515437911    -4.0886364385    -2.7466613405
  104      C      15.7811371855    -4.0856632748    -0.6968459143
  105      H      16.4056274000    -3.4393089981    -0.0665704816
  106      C      16.2969236290    -5.5454349462    -0.7010899699
  107      H      14.7304852379    -4.1514513354    -0.3906492192
  108      H      16.2125968076    -5.9880841332    -1.7019929045
  109      H      15.6011836830    -6.1527300889    -0.1092001683
  110      H      17.3094381553    -5.6931184605    -0.3053654273
 ----------------------------------------------------------------

    9   -5663.4767316419      6.74E-06 Convergence criterion met
 Total energy in the final basis set = -5663.4767316419

                    Orbital Energies (a.u.)
 --------------------------------------------------------------

 Alpha MOs
 -- Occupied --
-88.995 -88.989 -88.942 -88.926 -88.925 -88.916 -88.908 -88.902
-14.391 -14.390 -14.384 -14.382 -14.358 -14.353 -14.350 -14.342
-14.330 -14.328 -10.278 -10.269 -10.269 -10.262 -10.257 -10.255
-10.255 -10.252 -10.245 -10.242 -10.241 -10.241 -10.240 -10.240
-10.239 -10.231 -10.230 -10.229 -10.228 -10.228 -10.227 -10.227
-10.225 -10.225 -10.225 -10.223 -10.222 -10.222 -10.220 -10.217
-10.213 -10.208 -10.207 -10.206 -10.201 -10.200 -10.196 -10.192
-10.185 -10.184 -10.182 -10.180 -10.179 -10.178 -10.177 -10.177
-10.176 -10.175 -10.171 -10.170  -8.050  -8.045  -8.003  -7.988
 -7.984  -7.975  -7.967  -7.963  -6.015  -6.010  -6.009  -6.008
 -6.004  -6.002  -5.967  -5.964  -5.960  -5.951  -5.948  -5.948
 -5.944  -5.944  -5.941  -5.940  -5.936  -5.932  -5.931  -5.929
 -5.928  -5.924  -5.923  -5.919  -1.046  -1.045  -0.980  -0.978
 -0.974  -0.970  -0.954  -0.935  -0.920  -0.915  -0.915  -0.907
 -0.848  -0.845  -0.836  -0.835  -0.820  -0.818  -0.810  -0.810
 -0.808  -0.806  -0.804  -0.794  -0.787  -0.785  -0.776  -0.769
 -0.752  -0.746  -0.743  -0.740  -0.727  -0.717  -0.713  -0.708
 -0.694  -0.693  -0.680  -0.677  -0.661  -0.657  -0.655  -0.653
 -0.640  -0.635  -0.634  -0.629  -0.617  -0.613  -0.601  -0.600
 -0.595  -0.595  -0.589  -0.588  -0.579  -0.577  -0.571  -0.555
 -0.553  -0.552  -0.551  -0.546  -0.529  -0.528  -0.522  -0.517
 -0.512  -0.510  -0.504  -0.498  -0.492  -0.489  -0.485  -0.481
 -0.477  -0.476  -0.474  -0.473  -0.459  -0.458  -0.454  -0.452
 -0.448  -0.445  -0.445  -0.440  -0.435  -0.434  -0.433  -0.428
 -0.428  -0.426  -0.424  -0.423  -0.423  -0.420  -0.419  -0.418
 -0.416  -0.413  -0.411  -0.405  -0.404  -0.402  -0.399  -0.397
 -0.397  -0.395  -0.394  -0.393  -0.391  -0.389  -0.389  -0.387
 -0.384  -0.382  -0.382  -0.380  -0.369  -0.363  -0.358  -0.355
 -0.355  -0.353  -0.352  -0.349  -0.349  -0.345  -0.342  -0.339
 -0.338  -0.336  -0.332  -0.331  -0.330  -0.324  -0.324  -0.323
 -0.315  -0.309  -0.309  -0.306  -0.306  -0.305  -0.303  -0.301
 -0.298  -0.297  -0.293  -0.293  -0.291  -0.290  -0.288  -0.282
 -0.279  -0.273  -0.273  -0.269  -0.259  -0.255  -0.253  -0.252
 -0.247  -0.245  -0.239  -0.232  -0.200  -0.198

          Ground-State Mulliken Net Atomic Charges

     Atom                 Charge (a.u.)
  ----------------------------------------
      1 C                     0.257871
      2 C                    -0.116167
      3 N                    -0.465258
      4 C                    -0.077652
      5 C                     0.086804
      6 C                     0.009444
      7 C                     0.076278
      8 C                     0.042309
      9 C                     0.227413
     10 N                    -0.523540
     11 N                    -0.568816
     12 C                     0.206772
     13 C                     0.305094
     14 S                     0.613830
     15 N                    -0.546828
     16 C                    -0.218776
     17 S                     0.284903
     18 C                    -0.077299
     19 C                    -0.212805
     20 S                     0.264935
     21 C                     0.131346
     22 C                     0.039533
     23 C                    -0.303494
     24 C                    -0.055236
     25 N                    -0.399339
     26 S                     0.281433
     27 C                     0.100455
     28 C                    -0.298888
     29 C                    -0.206407
     30 H                     0.107007
     31 H                     0.095629
     32 H                     0.122429
     33 H                     0.096182
     34 H                     0.122369
     35 H                     0.117424
     36 H                     0.112934
     37 H                     0.132528
     38 H                     0.089208
     39 C                    -0.181274
     40 H                     0.118945
     41 H                     0.091643
     42 H                     0.102703
     43 C                    -0.189403
     44 H                     0.102463
     45 C                    -0.172511
     46 H                     0.090993
     47 H                     0.092047
     48 H                     0.086055
     49 C                    -0.175829
     50 H                     0.095159
     51 C                    -0.327214
     52 H                     0.094661
     53 H                     0.105312
     54 H                     0.099545
     55 H                     0.106251
     56 C                     0.259690
     57 C                    -0.127560
     58 N                    -0.475948
     59 C                    -0.047700
     60 C                     0.080192
     61 C                     0.044032
     62 C                     0.016828
     63 C                     0.046958
     64 C                     0.232011
     65 N                    -0.517015
     66 N                    -0.560154
     67 C                     0.219785
     68 C                     0.348810
     69 S                     0.593028
     70 N                    -0.561068
     71 C                    -0.248251
     72 S                     0.325892
     73 C                    -0.095244
     74 C                    -0.236799
     75 S                     0.261729
     76 C                     0.160491
     77 C                    -0.011844
     78 C                    -0.314615
     79 C                    -0.028131
     80 N                    -0.381793
     81 S                     0.309823
     82 C                     0.112418
     83 C                    -0.326161
     84 C                    -0.219430
     85 H                     0.090333
     86 H                     0.102729
     87 H                     0.085229
     88 H                     0.117797
     89 H                     0.127762
     90 H                     0.110628
     91 H                     0.118837
     92 H                     0.141837
     93 H                     0.121676
     94 C                    -0.181783
     95 H                     0.089286
     96 H                     0.125027
     97 H                     0.094411
     98 C                    -0.182879
     99 H                     0.086604
    100 C                    -0.186940
    101 H                     0.088549
    102 H                     0.088769
    103 H                     0.089726
    104 C                    -0.169844
    105 H                     0.097189
    106 C                    -0.331566
    107 H                     0.110277
    108 H                     0.102840
    109 H                     0.104604
    110 H                     0.105755
  ----------------------------------------
  Sum of atomic charges =     0.000000

                    Cartesian Multipole Moments
 -----------------------------------------------------------------
    Charge (ESU x 10^10)
                 0.0000
    Dipole Moment (Debye)
         X       0.7350      Y      -0.9485      Z      -1.7131
       Tot       2.0916
    Quadrupole Moments (Debye-Ang)
        XX    -474.9185     XY      14.4931     YY    -424.8221
        XZ     -20.6824     YZ       9.1270     ZZ    -426.5508

 Total job time:  80.67s(wall), 948.56s(cpu)
        *  Thank you very much for using Q-Chem.  Have a nice day.  *
