 Q-Chem 4.4, Q-Chem, Inc., Pleasanton, CA (2016)
 Q-Chem 4.4.2 for Intel X86 Linux

User input:
--------------------------------------------------------------
$comment
SP
$end

$rem
MEM_STATIC 5000
MEM_TOTAL 20000
JOBTYPE SP
EXCHANGE B3LYP
BASIS 6-31g(d,p)
$end

$molecule
0 1
C          17.173000     14.436000    -13.546000
C          17.800000     13.222000    -13.490000
N          17.549000     15.458000    -12.756000
C          18.966000     13.064000    -12.726000
C          18.645000     15.308000    -11.969000
C          19.432000     14.171000    -11.963000
C          20.678000     14.157000    -11.126000
C          20.580000     14.642000     -9.771000
C          21.909000     13.640000    -11.528000
N          21.699000     14.620000     -9.003000
N          22.151000     13.096000    -12.743000
C          22.974000     13.571000    -10.642000
C          22.858000     14.054000     -9.349000
S          23.682000     12.794000    -12.890000
N          24.134000     13.190000    -11.365000
C          23.865000     13.825000     -8.294000
S          25.343000     12.684000     -8.355000
C          23.811000     14.476000     -7.095000
C          25.599000     13.043000     -6.621000
S          22.713000     15.665000     -6.423000
C          24.749000     14.012000     -6.189000
C          26.668000     12.420000     -5.887000
C          23.543000     15.503000     -4.834000
C          24.656000     14.654000     -4.939000
N          27.758000     12.123000     -6.512000
S          26.490000     11.695000     -4.344000
C          28.635000     11.426000     -5.749000
C          28.102000     11.033000     -4.518000
C          15.915000     14.664000    -14.417000
H          17.439000     12.411000    -14.116000
H          19.477000     12.107000    -12.772000
H          18.934000     16.143000    -11.333000
H          19.763000     15.237000     -9.365000
H          23.196000     16.046000     -3.965000
H          25.192000     14.350000     -4.047000
H          29.626000     11.214000     -6.126000
H          28.612000     10.587000     -3.674000
H          15.539000     13.660000    -14.649000
C          16.267000     15.221000    -15.815000
H          15.113000     15.180000    -13.876000
H          17.290000     14.909000    -16.061000
H          16.325000     16.307000    -15.672000
C          15.215000     14.933000    -16.879000
H          15.074000     13.846000    -16.914000
C          15.424000     15.692000    -18.245000
H          14.379000     15.405000    -16.348000
H          16.272000     15.321000    -18.833000
H          15.744000     16.712000    -17.999000
C          14.105000     15.771000    -18.985000
H          13.411000     16.268000    -18.296000
C          13.594000     14.474000    -19.522000
H          14.265000     16.510000    -19.780000
H          14.441000     14.067000    -20.088000
H          12.847000     14.607000    -20.315000
H          13.380000     13.795000    -18.688000
C          27.455000     13.130000    -14.258000
C          27.436000     14.526000    -14.218000
N          27.425000     12.378000    -13.093000
C          27.317000     15.205000    -12.975000
C          27.412000     13.078000    -11.960000
C          27.417000     14.450000    -11.796000
C          27.318000     15.089000    -10.462000
C          28.203000     14.777000     -9.401000
C          26.333000     16.054000    -10.212000
N          28.059000     15.317000     -8.174000
N          25.375000     16.310000    -11.063000
C          26.281000     16.679000     -8.937000
C          27.215000     16.271000     -7.943000
S          24.372000     17.336000    -10.243000
N          25.223000     17.501000     -8.870000
C          27.088000     16.827000     -6.529000
S          26.022000     18.191000     -6.093000
C          27.629000     16.350000     -5.354000
C          26.392000     18.051000     -4.381000
S          28.644000     15.001000     -5.040000
C          27.230000     16.967000     -4.214000
C          25.793000     18.733000     -3.211000
C          28.576000     15.358000     -3.319000
C          27.845000     16.443000     -3.039000
N          25.249000     17.895000     -2.342000
S          25.668000     20.443000     -2.905000
C          24.598000     18.638000     -1.394000
C          24.721000     20.043000     -1.493000
C          27.437000     12.354000    -15.515000
H          27.496000     15.044000    -15.170000
H          27.257000     16.286000    -12.894000
H          27.655000     12.560000    -11.034000
H          28.873000     13.926000     -9.516000
H          29.092000     14.692000     -2.640000
H          27.631000     16.782000     -2.032000
H          24.115000     18.155000     -0.554000
H          24.316000     20.757000     -0.789000
H          26.609000     11.648000    -15.661000
C          28.803000     11.677000    -15.734000
H          27.156000     13.047000    -16.318000
H          28.839000     10.849000    -15.016000
H          29.666000     12.302000    -15.472000
C          28.946000     11.198000    -17.229000
H          29.141000     12.048000    -17.894000
C          27.828000     10.361000    -17.810000
H          29.846000     10.578000    -17.326000
H          28.188000     10.157000    -18.826000
H          26.894000     10.924000    -17.926000
C          27.670000      9.006000    -17.040000
H          28.627000      8.500000    -16.858000
C          26.633000      8.049000    -17.677000
H          27.182000      9.405000    -16.143000
H          26.039000      8.567000    -18.441000
H          25.884000      7.804000    -16.914000
H          27.036000      7.112000    -18.081000
$end

--------------------------------------------------------------

             Standard Nuclear Orientation (Angstroms)
    I     Atom           X                Y                Z
 ----------------------------------------------------------------
    1      C       6.9079359971    -4.0341412374     1.0869295551
    2      C       6.7587354296    -2.9657697578     1.9273952429
    3      N       5.8654875660    -4.5427624432     0.4053389613
    4      C       5.5446142171    -2.2640520187     1.9688427493
    5      C       4.6670559980    -3.9085275283     0.4731095276
    6      C       4.4623309297    -2.7338595456     1.1734071620
    7      C       3.1192673242    -2.0681295405     1.0942572295
    8      C       1.9501899905    -2.8972938592     1.2573483709
    9      C       2.9104694173    -0.6968092297     0.9523486695
   10      N       0.7321393169    -2.3009510783     1.2008077275
   11      N       3.8987683328     0.2211918452     0.8462153568
   12      C       1.6306270692    -0.1642906819     1.0014359401
   13      C       0.5230079609    -0.9830801660     1.1475786499
   14      S       3.2818293548     1.6248859969     0.5209415863
   15      N       1.7015932464     1.2059741886     0.6397344244
   16      C      -0.8383378194    -0.4811296776     1.4201559299
   17      S      -1.3452880501     1.2621016122     1.8608736785
   18      C      -1.9305928745    -1.2985738014     1.3646401763
   19      C      -2.9913496276     0.6287444995     2.1617275477
   20      S      -2.1397325225    -2.9993025189     0.9976368561
   21      C      -3.0885547072    -0.6783666595     1.8010384981
   22      C      -4.0445753148     1.4950987218     2.6197581291
   23      C      -3.8671189585    -2.8713049718     1.4873487394
   24      C      -4.2014624646    -1.5412395565     1.7869074332
   25      N      -4.0344819541     2.7320011710     2.2497521086
   26      S      -5.1065641460     1.1285875380     3.9143651252
   27      C      -4.9985896580     3.4734718586     2.8479364905
   28      C      -5.6768589746     2.7834312396     3.8567445388
   29      C       8.2462667714    -4.8018920045     0.9745974665
   30      H       7.6177388506    -2.6115498221     2.4900313241
   31      H       5.4935386175    -1.3745961029     2.5896047464
   32      H       3.8326887982    -4.3347600614    -0.0813264052
   33      H       1.9262972588    -3.9843272170     1.1930240646
   34      H      -4.5119470511    -3.7399797132     1.4918124569
   35      H      -5.1683722091    -1.3094663784     2.2190448417
   36      H      -5.1596742141     4.4969820648     2.5386912421
   37      H      -6.5641030108     3.0830299053     4.3993223301
   38      H       8.8197269367    -4.5135271800     1.8640946092
   39      C       9.1277613133    -4.2712043638    -0.1786132690
   40      H       8.1164419919    -5.8893708622     1.0263300548
   41      H       8.8591143018    -3.2229565063    -0.3613541033
   42      H       8.7786574078    -4.8153464374    -1.0647537020
   43      C      10.6150297245    -4.5501097946     0.0002398369
   44      H      10.9172925768    -4.1113953312     0.9588021915
   45      C      11.5069527688    -4.2431319507    -1.2630716395
   46      H      10.5192971397    -5.6387381838     0.0970101965
   47      H      11.6254555351    -3.1733049879    -1.4726339545
   48      H      10.9479515648    -4.5885490184    -2.1414341519
   49      C      12.7950289674    -5.0348282419    -1.1754435083
   50      H      12.4890929600    -6.0844171014    -1.0852637687
   51      C      13.7470027257    -4.5922096453    -0.1126482593
   52      H      13.2395486362    -4.9726756176    -2.1765855139
   53      H      13.8542826487    -3.5137519890    -0.2824543305
   54      H      14.7723112845    -4.9424442034    -0.2876485839
   55      H      13.2869509726    -4.7410105865     0.8715283836
   56      C       2.4021952232     4.9325835588    -1.6016110358
   57      C       2.1220528872     4.2143216287    -2.7662556475
   58      N       1.5837652338     4.8384955728    -0.4858382976
   59      C       1.0216885083     3.3154955712    -2.8057645356
   60      C       0.5162891886     4.0540090069    -0.6234381546
   61      C       0.1246099486     3.3194026715    -1.7262735481
   62      C      -1.0547324379     2.4214884042    -1.7022006545
   63      C      -2.3424660485     2.8665311821    -1.3149422473
   64      C      -0.9292008243     1.0795590280    -2.0861503429
   65      N      -3.3909411920     2.0227125531    -1.2341029320
   66      N       0.2314846982     0.5253961151    -2.3168310395
   67      C      -2.0811408420     0.2477089224    -2.0898377941
   68      C      -3.3207602489     0.8038388740    -1.6644918138
   69      S      -0.1205428778    -1.0766325890    -2.5184882155
   70      N      -1.7386855821    -1.0115727639    -2.4004356523
   71      C      -4.5370667367    -0.1053924993    -1.5282646590
   72      S      -4.5980422480    -1.7779310332    -2.1494287593
   73      C      -5.7109483571     0.1083793072    -0.8375124922
   74      C      -6.1932186868    -2.0676592180    -1.4719970593
   75      S      -6.2521561741     1.4494621282     0.0883454700
   76      C      -6.5685366507    -0.9401658762    -0.7697975221
   77      C      -6.9839212048    -3.3162595531    -1.3791976457
   78      C      -7.7187294037     0.5682499533     0.4964411270
   79      C      -7.7722105996    -0.6452642362    -0.0643699586
   80      N      -7.2725654379    -3.6583973815    -0.1330165943
   81      S      -7.4887251747    -4.3731120644    -2.6682270175
   82      C      -7.8622048437    -4.8937001725    -0.1631228364
   83      C      -8.1017477392    -5.4525245969    -1.4395590721
   84      C       3.6032267688     5.7772319187    -1.4383891791
   85      H       2.7901593289     4.3665794253    -3.6080865960
   86      H       0.7865299777     2.7048845720    -3.6721228177
   87      H      -0.2874839729     4.1489185303     0.1044285140
   88      H      -2.4380214276     3.8544009868    -0.8662681803
   89      H      -8.4309458879     1.0435134885     1.1580492071
   90      H      -8.5637795912    -1.3614751082     0.1233173303
   91      H      -8.2235878624    -5.3520902303     0.7487208283
   92      H      -8.6101873822    -6.3884239640    -1.6266913894
   93      H       4.2848830987     5.5320852769    -0.6134141662
   94      C       3.2010059028     7.2638435954    -1.4171736764
   95      H       4.2919153141     5.5196897367    -2.2528823417
   96      H       2.7353137132     7.4282498176    -0.4381407972
   97      H       2.4192545197     7.5323928970    -2.1388273660
   98      C       4.4624463074     8.1783301639    -1.6567512665
   99      H       4.7598916601     8.1639259821    -2.7122458339
  100      C       5.6818274701     7.9354178383    -0.7952658156
  101      H       4.1899520436     9.2256405710    -1.4759287365
  102      H       6.3802641744     8.7028343572    -1.1512574681
  103      H       6.1602175299     6.9702676574    -1.0012004627
  104      C       5.3703727549     8.1879900944     0.7190301316
  105      H       4.8144787787     9.1180513029     0.8950330739
  106      C       6.6164805973     8.0888931851     1.6324752846
  107      H       4.8018781819     7.2692652345     0.9053431807
  108      H       7.4673506942     7.6577016961     1.0893823109
  109      H       6.4137550518     7.3339998837     2.4020423427
  110      H       6.9165880481     9.0195186131     2.1299346604
 ----------------------------------------------------------------

   10   -5663.4994508297      3.81E-06 Convergence criterion met
 Total energy in the final basis set = -5663.4994508297

                    Orbital Energies (a.u.)
 --------------------------------------------------------------

 Alpha MOs
 -- Occupied --
-88.987 -88.979 -88.936 -88.922 -88.920 -88.918 -88.902 -88.895
-14.380 -14.372 -14.371 -14.364 -14.349 -14.341 -14.340 -14.331
-14.326 -14.323 -10.273 -10.259 -10.256 -10.255 -10.247 -10.245
-10.243 -10.242 -10.241 -10.236 -10.235 -10.234 -10.233 -10.232
-10.232 -10.231 -10.228 -10.227 -10.226 -10.223 -10.221 -10.221
-10.220 -10.220 -10.214 -10.214 -10.212 -10.212 -10.209 -10.209
-10.208 -10.200 -10.198 -10.197 -10.193 -10.193 -10.192 -10.187
-10.183 -10.183 -10.181 -10.179 -10.178 -10.178 -10.176 -10.175
-10.175 -10.172 -10.170 -10.170  -8.042  -8.035  -7.997  -7.983
 -7.976  -7.976  -7.961  -7.956  -6.007  -6.002  -6.001  -6.000
 -5.994  -5.992  -5.961  -5.957  -5.954  -5.947  -5.944  -5.941
 -5.940  -5.940  -5.938  -5.936  -5.933  -5.933  -5.926  -5.922
 -5.921  -5.917  -5.917  -5.912  -1.036  -1.030  -0.975  -0.973
 -0.960  -0.953  -0.933  -0.931  -0.913  -0.906  -0.903  -0.878
 -0.841  -0.828  -0.828  -0.827  -0.813  -0.808  -0.807  -0.803
 -0.801  -0.796  -0.791  -0.788  -0.786  -0.782  -0.767  -0.763
 -0.750  -0.742  -0.737  -0.735  -0.721  -0.716  -0.709  -0.706
 -0.688  -0.687  -0.669  -0.668  -0.652  -0.652  -0.645  -0.645
 -0.628  -0.628  -0.623  -0.623  -0.608  -0.608  -0.599  -0.597
 -0.589  -0.588  -0.584  -0.577  -0.572  -0.570  -0.565  -0.551
 -0.546  -0.541  -0.537  -0.533  -0.519  -0.516  -0.513  -0.511
 -0.504  -0.499  -0.498  -0.490  -0.487  -0.486  -0.474  -0.472
 -0.471  -0.469  -0.467  -0.463  -0.460  -0.456  -0.453  -0.448
 -0.444  -0.443  -0.442  -0.439  -0.432  -0.430  -0.429  -0.428
 -0.425  -0.421  -0.419  -0.418  -0.416  -0.415  -0.413  -0.412
 -0.409  -0.406  -0.404  -0.402  -0.397  -0.396  -0.393  -0.391
 -0.390  -0.389  -0.387  -0.386  -0.385  -0.384  -0.384  -0.381
 -0.379  -0.377  -0.374  -0.371  -0.367  -0.360  -0.354  -0.350
 -0.349  -0.345  -0.341  -0.341  -0.338  -0.337  -0.336  -0.331
 -0.330  -0.328  -0.328  -0.325  -0.325  -0.321  -0.319  -0.317
 -0.314  -0.311  -0.305  -0.303  -0.299  -0.297  -0.295  -0.293
 -0.292  -0.290  -0.287  -0.285  -0.282  -0.276  -0.273  -0.271
 -0.268  -0.265  -0.260  -0.254  -0.251  -0.249  -0.247  -0.246
 -0.242  -0.237  -0.233  -0.228  -0.191  -0.188

          Ground-State Mulliken Net Atomic Charges

     Atom                 Charge (a.u.)
  ----------------------------------------
      1 C                     0.275061
      2 C                    -0.118352
      3 N                    -0.493129
      4 C                    -0.053822
      5 C                     0.068810
      6 C                     0.048183
      7 C                    -0.023336
      8 C                     0.061521
      9 C                     0.230999
     10 N                    -0.519227
     11 N                    -0.548698
     12 C                     0.172452
     13 C                     0.297904
     14 S                     0.642538
     15 N                    -0.558368
     16 C                    -0.221583
     17 S                     0.324490
     18 C                    -0.104269
     19 C                    -0.224853
     20 S                     0.276079
     21 C                     0.177051
     22 C                     0.059877
     23 C                    -0.304351
     24 C                    -0.080996
     25 N                    -0.405701
     26 S                     0.268224
     27 C                     0.123327
     28 C                    -0.315766
     29 C                    -0.224012
     30 H                     0.087382
     31 H                     0.109337
     32 H                     0.098315
     33 H                     0.125799
     34 H                     0.141055
     35 H                     0.112404
     36 H                     0.115656
     37 H                     0.130975
     38 H                     0.089243
     39 C                    -0.188387
     40 H                     0.115207
     41 H                     0.092262
     42 H                     0.106153
     43 C                    -0.171813
     44 H                     0.091778
     45 C                    -0.177707
     46 H                     0.097681
     47 H                     0.090559
     48 H                     0.092025
     49 C                    -0.170880
     50 H                     0.091365
     51 C                    -0.308832
     52 H                     0.083390
     53 H                     0.099815
     54 H                     0.103489
     55 H                     0.109264
     56 C                     0.251688
     57 C                    -0.128784
     58 N                    -0.488040
     59 C                    -0.055877
     60 C                     0.095474
     61 C                     0.050204
     62 C                     0.033048
     63 C                     0.052069
     64 C                     0.236925
     65 N                    -0.512089
     66 N                    -0.569073
     67 C                     0.226782
     68 C                     0.347577
     69 S                     0.591937
     70 N                    -0.565444
     71 C                    -0.244904
     72 S                     0.331576
     73 C                    -0.101012
     74 C                    -0.232792
     75 S                     0.270545
     76 C                     0.158821
     77 C                     0.000869
     78 C                    -0.321332
     79 C                    -0.031817
     80 N                    -0.390654
     81 S                     0.295425
     82 C                     0.105276
     83 C                    -0.308613
     84 C                    -0.218795
     85 H                     0.088290
     86 H                     0.102826
     87 H                     0.093582
     88 H                     0.118810
     89 H                     0.121304
     90 H                     0.106873
     91 H                     0.111705
     92 H                     0.136347
     93 H                     0.116227
     94 C                    -0.181043
     95 H                     0.088792
     96 H                     0.124846
     97 H                     0.095297
     98 C                    -0.182642
     99 H                     0.086716
    100 C                    -0.187012
    101 H                     0.088190
    102 H                     0.088734
    103 H                     0.088872
    104 C                    -0.168976
    105 H                     0.097401
    106 C                    -0.331309
    107 H                     0.109473
    108 H                     0.102608
    109 H                     0.103665
    110 H                     0.105844
  ----------------------------------------
  Sum of atomic charges =     0.000000

                    Cartesian Multipole Moments
 -----------------------------------------------------------------
    Charge (ESU x 10^10)
                 0.0000
    Dipole Moment (Debye)
         X      -1.9862      Y      -0.5153      Z      -0.0521
       Tot       2.0526
    Quadrupole Moments (Debye-Ang)
        XX    -389.3998     XY      25.1090     YY    -428.7903
        XZ     -11.4573     YZ       1.9269     ZZ    -434.6542

 Total job time:  108.74s(wall), 1273.50s(cpu)
        *  Thank you very much for using Q-Chem.  Have a nice day.  *
