 Q-Chem 4.4, Q-Chem, Inc., Pleasanton, CA (2016)
 Q-Chem 4.4.2 for Intel X86 Linux

User input:
--------------------------------------------------------------
$comment
SP
$end

$rem
MEM_STATIC 5000
MEM_TOTAL 20000
JOBTYPE SP
EXCHANGE B3LYP
BASIS 6-31g(d,p)
$end

$molecule
0 1
C          -1.994000      6.705000     15.150000
C          -2.971000      5.770000     15.560000
N          -1.164000      6.474000     14.089000
C          -3.137000      4.604000     14.815000
C          -1.304000      5.325000     13.399000
C          -2.265000      4.329000     13.731000
C          -2.191000      3.101000     12.847000
C          -0.983000      2.542000     12.478000
C          -3.348000      2.595000     12.208000
N          -0.886000      1.662000     11.496000
N          -4.608000      2.925000     12.548000
C          -3.211000      1.716000     11.135000
C          -1.906000      1.246000     10.792000
S          -5.553000      2.103000     11.485000
N          -4.423000      1.279000     10.660000
C          -1.352000      0.571000      9.600000
S           0.341000      0.813000      9.087000
C          -2.056000     -0.152000      8.647000
C          -0.049000      0.281000      7.464000
S          -3.700000     -0.713000      8.592000
C          -1.286000     -0.281000      7.466000
C           0.733000      0.541000      6.331000
C          -3.446000     -1.016000      6.861000
C          -2.193000     -0.667000      6.431000
N           0.753000     -0.288000      5.298000
S           1.963000      1.735000      6.350000
C           1.749000      0.045000      4.446000
C           2.462000      1.159000      4.812000
C          -1.581000      7.891000     15.990000
H          -3.559000      5.949000     16.455000
H          -3.912000      3.892000     15.084000
H          -0.568000      5.139000     12.618000
H          -0.042000      2.842000     12.936000
H          -4.266000     -1.339000      6.233000
H          -1.904000     -0.819000      5.398000
H           1.954000     -0.680000      3.671000
H           3.372000      1.526000      4.356000
H          -1.234000      8.653000     15.281000
C          -0.360000      7.343000     16.757000
H          -2.259000      8.299000     16.748000
H           0.323000      6.962000     15.987000
H          -0.621000      6.521000     17.435000
C           0.417000      8.417000     17.501000
H           0.712000      9.242000     16.841000
C           1.638000      7.829000     18.303000
H          -0.212000      8.855000     18.285000
H           2.261000      7.223000     17.633000
H           1.305000      7.082000     19.034000
C           2.433000      8.878000     19.009000
H           2.884000      9.419000     18.167000
C           3.580000      8.137000     19.765000
H           1.827000      9.604000     19.564000
H           4.333000      8.922000     19.914000
H           4.022000      7.365000     19.123000
H           3.327000      7.737000     20.754000
C           7.577000      8.104000     13.594000
C           6.390000      7.901000     12.901000
N           8.214000      7.077000     14.300000
C           5.912000      6.625000     12.773000
C           7.819000      5.811000     14.049000
C           6.690000      5.487000     13.264000
C           6.273000      4.132000     12.851000
C           5.863000      3.926000     11.527000
C           6.110000      3.078000     13.774000
N           5.254000      2.797000     11.172000
N           6.627000      3.001000     15.027000
C           5.446000      1.910000     13.381000
C           5.026000      1.798000     12.027000
S           6.130000      1.609000     15.614000
N           5.419000      0.943000     14.325000
C           4.152000      0.687000     11.619000
S           2.988000     -0.168000     12.676000
C           4.022000      0.253000     10.325000
C           2.333000     -1.026000     11.293000
S           5.063000      0.554000      8.951000
C           3.007000     -0.695000     10.188000
C           1.197000     -1.951000     11.284000
C           4.059000     -0.673000      8.068000
C           3.010000     -1.198000      8.811000
N           1.267000     -2.981000     10.437000
S          -0.140000     -1.955000     12.407000
C           0.247000     -3.910000     10.750000
C          -0.526000     -3.579000     11.768000
C           8.239000      9.465000     13.446000
H           5.827000      8.719000     12.459000
H           4.957000      6.525000     12.265000
H           8.251000      4.978000     14.602000
H           6.082000      4.562000     10.670000
H           4.266000     -0.886000      7.028000
H           2.179000     -1.793000      8.448000
H           0.124000     -4.785000     10.126000
H          -1.435000     -4.087000     12.064000
H           9.324000      9.455000     13.608000
C           7.634000     10.391000     14.581000
H           8.060000      9.858000     12.438000
H           7.750000      9.961000     15.583000
H           6.583000     10.496000     14.284000
C           8.170000     11.768000     14.511000
H           9.249000     11.591000     14.607000
C           7.642000     12.635000     15.601000
H           7.936000     12.143000     13.507000
H           7.609000     12.021000     16.509000
H           6.615000     12.984000     15.437000
C           8.549000     13.829000     15.850000
H           9.592000     13.542000     15.672000
C           8.520000     14.408000     17.285000
H           8.233000     14.575000     15.109000
H           7.537000     14.377000     17.771000
H           8.921000     15.410000     17.478000
H           9.090000     13.723000     17.924000
$end

--------------------------------------------------------------

             Standard Nuclear Orientation (Angstroms)
    I     Atom           X                Y                Z
 ----------------------------------------------------------------
    1      C       2.0725937557    -5.7531850213     0.5803405761
    2      C       1.1194931490    -6.4797094578    -0.1684020210
    3      N       1.8057893150    -4.5151539796     1.0942243471
    4      C      -0.1564788650    -5.9430220237    -0.3296441294
    5      C       0.5821746840    -3.9857026354     0.8983940406
    6      C      -0.4444509134    -4.6461139380     0.1665075780
    7      C      -1.7112864614    -3.8265506297     0.0310096890
    8      C      -1.6764177826    -2.4737454147    -0.2457722203
    9      C      -2.9707430854    -4.3737792472     0.3735237070
   10      N      -2.7341459859    -1.6961901133    -0.0884451688
   11      N      -3.2080807164    -5.6891128529     0.5337371732
   12      C      -4.0524534416    -3.5226999528     0.5933093752
   13      C      -3.8927083259    -2.1258993570     0.3383513519
   14      S      -4.7928448344    -5.7757686659     0.9576374686
   15      N      -5.2100077207    -4.2092265525     0.8658663761
   16      C      -4.6777790248    -0.9307274091     0.7106858959
   17      S      -3.9023734454     0.6554391863     0.9767755783
   18      C      -6.0161355344    -0.8913326927     1.0764780630
   19      C      -5.2776805042     1.1975228037     1.9169504800
   20      S      -7.2727038939    -2.0908304072     1.0242938635
   21      C      -6.3005623107     0.3179435616     1.7554878934
   22      C      -5.2574772934     2.2790634229     2.8072732974
   23      C      -8.2132496242    -1.0247701967     2.0880491722
   24      C      -7.5441962023     0.1202345870     2.4316209462
   25      N      -6.3433859477     2.9984908388     3.0480150424
   26      S      -3.7812480712     2.9536951923     3.3591032163
   27      C      -6.0243457643     4.1159509124     3.7396112723
   28      C      -4.6951792143     4.2244704764     4.0634334251
   29      C       3.5347881706    -6.1284305637     0.6431360848
   30      H       1.3901736992    -7.4243201096    -0.6301950009
   31      H      -0.9193284886    -6.5035607488    -0.8623605543
   32      H       0.4378624307    -2.9637155179     1.2462004596
   33      H      -0.7613749196    -1.9680918062    -0.5495089273
   34      H      -9.1672160061    -1.3464180089     2.4850426571
   35      H      -8.0154855145     0.8641341483     3.0626628044
   36      H      -6.8155729372     4.8475290004     3.8234448095
   37      H      -4.2000566541     5.0850356928     4.4935568478
   38      H       3.8987138547    -5.7521557791     1.6073504712
   39      C       4.1452407058    -5.2666709298    -0.4812090738
   40      H       3.8539741667    -7.1578762128     0.4454647528
   41      H       3.8417358516    -4.2358313896    -0.2580395291
   42      H       3.7671862927    -5.5384925237    -1.4745251775
   43      C       5.6653218752    -5.2579015781    -0.4770453374
   44      H       6.0716168025    -4.9660928127     0.4991831587
   45      C       6.2648049309    -4.3994957091    -1.6532886923
   46      H       6.0433773972    -6.2662790819    -0.6829332490
   47      H       5.8213341178    -3.3957964101    -1.6396374944
   48      H       5.9294398255    -4.7780790823    -2.6266662530
   49      C       7.7575706429    -4.3512926737    -1.6395410959
   50      H       7.9523473284    -3.7621893457    -0.7339665204
   51      C       8.1887338070    -3.4894049398    -2.8673333667
   52      H       8.2376236905    -5.3261448419    -1.4927442238
   53      H       9.1985185811    -3.1529377645    -2.5979645676
   54      H       7.5500985146    -2.6014151982    -2.9517796934
   55      H       8.2665290891    -4.0177275105    -3.8249100766
   56      C       7.1420627658     2.6144455469     1.0957245395
   57      C       6.0548018413     1.9745255095     1.6777838388
   58      N       7.0880351820     3.1523130266    -0.1952880841
   59      C       4.8478378956     2.0091611417     1.0335149457
   60      C       5.8694273453     3.3082310736    -0.7542751170
   61      C       4.6806158508     2.7941549122    -0.1900987875
   62      C       3.3079463139     3.0292963707    -0.6809855738
   63      C       2.3005467256     3.3252677772     0.2469470725
   64      C       2.9366765041     2.8025686348    -2.0226886937
   65      N       1.0189151585     3.3044896610    -0.1115718201
   66      N       3.7632733244     2.7133652393    -3.0960047939
   67      C       1.5808480233     2.7636129731    -2.3687820150
   68      C       0.6199729407     3.0360579456    -1.3564812629
   69      S       2.8179613676     2.4528344050    -4.3481034277
   70      N       1.3503333202     2.6167012606    -3.6925017438
   71      C      -0.8094046860     2.8087439749    -1.6208086341
   72      S      -1.4810982584     1.6157850948    -2.7735648335
   73      C      -1.8211891925     3.3971175073    -0.9068053437
   74      C      -3.1024411884     1.9260028064    -2.1795193178
   75      S      -1.7598421973     4.7914725627     0.1487364725
   76      C      -3.0729673843     2.8824744974    -1.2472343832
   77      C      -4.3360453718     1.2457937145    -2.5816863354
   78      C      -3.5717160044     4.6974570196     0.1875744047
   79      C      -4.1071135493     3.6406333168    -0.5366825457
   80      N      -5.4467377945     1.9862626678    -2.6174224711
   81      S      -4.4615470643    -0.3782059293    -3.2106445867
   82      C      -6.4653095259     1.2641113259    -3.2825683704
   83      C      -6.1202140287     0.0631944034    -3.7093254944
   84      C       8.3659624213     2.8312676080     1.9718106239
   85      H       6.1290894755     1.4461798735     2.6247734038
   86      H       4.0423029154     1.4535411972     1.5052022075
   87      H       5.7730002563     3.6814184532    -1.7729777214
   88      H       2.4374742358     3.6959713883     1.2621986126
   89      H      -4.1311118276     5.3933124083     0.7980492944
   90      H      -5.1279072862     3.2750111127    -0.5110788256
   91      H      -7.4541175699     1.6966946579    -3.3550963862
   92      H      -6.7934947311    -0.6839328530    -4.1098937889
   93      H       8.9887168819     3.6819131849     1.6682517593
   94      C       9.2743667361     1.5425552379     1.8113487035
   95      H       8.0549339292     3.0042209408     3.0090677867
   96      H       9.5243667819     1.3300001013     0.7650790007
   97      H       8.6692649849     0.7514409509     2.2715932643
   98      C      10.4842593971     1.6136315246     2.6595426142
   99      H      10.9533786112     2.5383259270     2.2994684201
  100      C      11.3677645625     0.4275974911     2.4825824655
  101      H      10.1346203894     1.7436609492     3.6911636265
  102      H      11.3658252902     0.1853987517     1.4130568652
  103      H      11.0129212596    -0.4748635157     2.9954921667
  104      C      12.7939530989     0.7277367406     2.9140783399
  105      H      13.0317476864     1.7752787159     2.6949629729
  106      C      13.8972741617    -0.1007270442     2.2129097513
  107      H      12.7948132651     0.5614442044     3.9993428480
  108      H      13.6173726846    -1.1371855215     1.9873992465
  109      H      14.9037473296    -0.1468164042     2.6452771104
  110      H      14.0178255732     0.3071129734     1.2021774044
 ----------------------------------------------------------------

   10   -5663.4994226288      5.72E-06 Convergence criterion met
 Total energy in the final basis set = -5663.4994226288

                    Orbital Energies (a.u.)
 --------------------------------------------------------------

 Alpha MOs
 -- Occupied --
-88.989 -88.988 -88.923 -88.922 -88.922 -88.919 -88.908 -88.906
-14.388 -14.384 -14.381 -14.380 -14.343 -14.338 -14.338 -14.336
-14.331 -14.329 -10.268 -10.260 -10.259 -10.258 -10.258 -10.253
-10.253 -10.249 -10.237 -10.236 -10.233 -10.232 -10.232 -10.231
-10.231 -10.229 -10.227 -10.226 -10.225 -10.224 -10.223 -10.223
-10.222 -10.221 -10.221 -10.221 -10.221 -10.219 -10.215 -10.211
-10.211 -10.208 -10.203 -10.199 -10.198 -10.195 -10.193 -10.192
-10.189 -10.185 -10.178 -10.177 -10.175 -10.175 -10.173 -10.173
-10.171 -10.171 -10.171 -10.170  -8.045  -8.044  -7.985  -7.983
 -7.981  -7.977  -7.969  -7.965  -6.010  -6.009  -6.004  -6.003
 -6.003  -6.002  -5.949  -5.947  -5.945  -5.945  -5.943  -5.942
 -5.941  -5.941  -5.939  -5.938  -5.937  -5.933  -5.933  -5.930
 -5.930  -5.926  -5.925  -5.921  -1.047  -1.037  -0.975  -0.971
 -0.961  -0.955  -0.933  -0.923  -0.911  -0.910  -0.904  -0.901
 -0.845  -0.833  -0.830  -0.830  -0.818  -0.810  -0.808  -0.808
 -0.805  -0.796  -0.796  -0.792  -0.787  -0.784  -0.772  -0.766
 -0.750  -0.748  -0.740  -0.737  -0.722  -0.720  -0.710  -0.708
 -0.691  -0.688  -0.675  -0.673  -0.656  -0.651  -0.644  -0.644
 -0.634  -0.633  -0.624  -0.617  -0.607  -0.606  -0.594  -0.589
 -0.588  -0.582  -0.580  -0.577  -0.574  -0.574  -0.573  -0.573
 -0.552  -0.550  -0.541  -0.539  -0.521  -0.519  -0.513  -0.507
 -0.506  -0.503  -0.502  -0.497  -0.492  -0.487  -0.480  -0.478
 -0.476  -0.471  -0.468  -0.467  -0.466  -0.465  -0.450  -0.448
 -0.443  -0.441  -0.439  -0.436  -0.430  -0.430  -0.428  -0.427
 -0.425  -0.424  -0.424  -0.420  -0.419  -0.415  -0.413  -0.413
 -0.409  -0.408  -0.404  -0.401  -0.398  -0.396  -0.396  -0.394
 -0.392  -0.391  -0.390  -0.389  -0.384  -0.381  -0.380  -0.377
 -0.375  -0.374  -0.373  -0.371  -0.362  -0.360  -0.359  -0.356
 -0.356  -0.352  -0.348  -0.347  -0.344  -0.343  -0.342  -0.341
 -0.341  -0.339  -0.334  -0.331  -0.329  -0.326  -0.318  -0.317
 -0.315  -0.313  -0.312  -0.310  -0.306  -0.299  -0.299  -0.296
 -0.294  -0.293  -0.288  -0.283  -0.281  -0.279  -0.279  -0.276
 -0.270  -0.267  -0.266  -0.265  -0.252  -0.250  -0.249  -0.247
 -0.242  -0.238  -0.233  -0.227  -0.194  -0.189

          Ground-State Mulliken Net Atomic Charges

     Atom                 Charge (a.u.)
  ----------------------------------------
      1 C                     0.249542
      2 C                    -0.113229
      3 N                    -0.477121
      4 C                    -0.064743
      5 C                     0.073743
      6 C                     0.030472
      7 C                    -0.001393
      8 C                     0.055710
      9 C                     0.248382
     10 N                    -0.515002
     11 N                    -0.559671
     12 C                     0.190921
     13 C                     0.319411
     14 S                     0.602498
     15 N                    -0.533186
     16 C                    -0.238149
     17 S                     0.328593
     18 C                    -0.125398
     19 C                    -0.206146
     20 S                     0.286112
     21 C                     0.145434
     22 C                     0.038136
     23 C                    -0.296299
     24 C                    -0.069748
     25 N                    -0.420747
     26 S                     0.295516
     27 C                     0.118603
     28 C                    -0.319075
     29 C                    -0.215992
     30 H                     0.093192
     31 H                     0.109894
     32 H                     0.105240
     33 H                     0.119039
     34 H                     0.126635
     35 H                     0.119175
     36 H                     0.112407
     37 H                     0.130100
     38 H                     0.117970
     39 C                    -0.179108
     40 H                     0.097958
     41 H                     0.120268
     42 H                     0.091910
     43 C                    -0.181886
     44 H                     0.089648
     45 C                    -0.171689
     46 H                     0.082928
     47 H                     0.090162
     48 H                     0.084176
     49 C                    -0.171944
     50 H                     0.095878
     51 C                    -0.323053
     52 H                     0.093183
     53 H                     0.097838
     54 H                     0.108510
     55 H                     0.105952
     56 C                     0.258805
     57 C                    -0.096241
     58 N                    -0.485478
     59 C                    -0.082753
     60 C                     0.077248
     61 C                     0.020080
     62 C                    -0.004624
     63 C                     0.056094
     64 C                     0.238763
     65 N                    -0.495496
     66 N                    -0.535196
     67 C                     0.170040
     68 C                     0.284538
     69 S                     0.612982
     70 N                    -0.541928
     71 C                    -0.209128
     72 S                     0.314213
     73 C                    -0.091933
     74 C                    -0.209895
     75 S                     0.253400
     76 C                     0.154325
     77 C                     0.036894
     78 C                    -0.308753
     79 C                    -0.039218
     80 N                    -0.429496
     81 S                     0.261323
     82 C                     0.131344
     83 C                    -0.301503
     84 C                    -0.235058
     85 H                     0.092953
     86 H                     0.100308
     87 H                     0.121830
     88 H                     0.124259
     89 H                     0.127149
     90 H                     0.132498
     91 H                     0.117411
     92 H                     0.129234
     93 H                     0.115404
     94 C                    -0.183272
     95 H                     0.104677
     96 H                     0.113386
     97 H                     0.089926
     98 C                    -0.162534
     99 H                     0.090712
    100 C                    -0.174148
    101 H                     0.088252
    102 H                     0.089434
    103 H                     0.094178
    104 C                    -0.168524
    105 H                     0.096707
    106 C                    -0.330416
    107 H                     0.092751
    108 H                     0.098811
    109 H                     0.102187
    110 H                     0.101924
  ----------------------------------------
  Sum of atomic charges =     0.000000

                    Cartesian Multipole Moments
 -----------------------------------------------------------------
    Charge (ESU x 10^10)
                 0.0000
    Dipole Moment (Debye)
         X      -1.8247      Y      -2.7368      Z       1.3149
       Tot       3.5424
    Quadrupole Moments (Debye-Ang)
        XX    -429.3354     XY      -1.8901     YY    -426.3768
        XZ       5.1947     YZ      22.8799     ZZ    -432.9582

 Total job time:  95.98s(wall), 1139.84s(cpu)
        *  Thank you very much for using Q-Chem.  Have a nice day.  *
