 Q-Chem 4.4, Q-Chem, Inc., Pleasanton, CA (2016)
 Q-Chem 4.4.2 for Intel X86 Linux

User input:
--------------------------------------------------------------
$comment
SP
$end

$rem
MEM_STATIC 5000
MEM_TOTAL 20000
JOBTYPE SP
EXCHANGE B3LYP
BASIS 6-31g(d,p)
$end

$molecule
0 1
C         -26.751000    -20.990000    -15.129000
C         -26.463000    -22.364000    -15.010000
N         -26.148000    -20.057000    -14.294000
C         -25.579000    -22.829000    -14.012000
C         -25.174000    -20.452000    -13.426000
C         -24.870000    -21.840000    -13.265000
C         -23.766000    -22.236000    -12.325000
C         -24.083000    -23.314000    -11.402000
C         -22.501000    -21.682000    -12.106000
N         -23.299000    -23.734000    -10.375000
N         -22.059000    -20.706000    -12.901000
C         -21.649000    -22.074000    -11.056000
C         -22.095000    -23.139000    -10.235000
S         -20.614000    -20.403000    -12.301000
N         -20.484000    -21.470000    -11.070000
C         -21.177000    -23.540000     -9.151000
S         -19.814000    -22.695000     -8.411000
C         -21.353000    -24.740000     -8.453000
C         -19.415000    -24.029000     -7.331000
S         -22.601000    -25.927000     -8.636000
C         -20.406000    -25.019000     -7.460000
C         -18.728000    -23.889000     -6.058000
C         -21.982000    -26.739000     -7.121000
C         -20.791000    -26.131000     -6.608000
N         -18.151000    -24.953000     -5.564000
S         -18.518000    -22.398000     -5.081000
C         -17.507000    -24.668000     -4.346000
C         -17.833000    -23.399000     -3.869000
C         -28.025000    -20.609000    -15.916000
H         -27.119000    -23.062000    -15.521000
H         -25.301000    -23.870000    -13.883000
H         -24.797000    -19.705000    -12.729000
H         -25.012000    -23.867000    -11.534000
H         -22.560000    -27.572000     -6.743000
H         -20.220000    -26.533000     -5.780000
H         -16.918000    -25.434000     -3.859000
H         -17.735000    -23.055000     -2.848000
H         -28.852000    -21.306000    -15.732000
C         -27.730000    -20.689000    -17.453000
H         -28.335000    -19.584000    -15.681000
H         -27.747000    -21.719000    -17.832000
H         -26.802000    -20.207000    -17.785000
C         -28.826000    -19.802000    -18.134000
H         -29.781000    -20.316000    -17.968000
C         -28.630000    -19.691000    -19.638000
H         -28.826000    -18.768000    -17.765000
H         -28.604000    -20.703000    -20.060000
H         -27.659000    -19.261000    -19.914000
C         -29.713000    -18.799000    -20.244000
H         -29.517000    -18.611000    -21.307000
C         -29.890000    -17.419000    -19.617000
H         -30.709000    -19.260000    -20.257000
H         -29.029000    -16.742000    -19.683000
H         -30.211000    -17.568000    -18.578000
H         -30.626000    -16.749000    -20.076000
C         -22.147000    -20.912000      2.074000
C         -22.015000    -21.899000      1.064000
N         -21.603000    -19.643000      1.956000
C         -21.332000    -21.494000     -0.081000
C         -20.749000    -19.408000      0.932000
C         -20.688000    -20.255000     -0.176000
C         -20.011000    -19.709000     -1.386000
C         -20.593000    -19.856000     -2.714000
C         -18.683000    -19.177000     -1.423000
N         -20.015000    -19.353000     -3.885000
N         -17.988000    -19.028000     -0.277000
C         -18.179000    -18.554000     -2.560000
C         -18.865000    -18.617000     -3.818000
S         -16.672000    -18.168000     -0.784000
N         -16.985000    -17.992000     -2.377000
C         -18.390000    -17.884000     -5.096000
S         -17.027000    -16.727000     -5.103000
C         -18.738000    -18.234000     -6.378000
C         -17.140000    -16.750000     -6.945000
S         -19.892000    -19.438000     -6.871000
C         -18.064000    -17.617000     -7.339000
C         -16.014000    -16.436000     -7.695000
C         -19.564000    -18.963000     -8.516000
C         -18.607000    -17.952000     -8.609000
N         -15.165000    -15.603000     -7.031000
S         -15.617000    -16.845000     -9.356000
C         -14.198000    -15.222000     -7.904000
C         -14.272000    -15.746000     -9.206000
C         -22.915000    -21.189000      3.323000
H         -22.585000    -22.816000      1.179000
H         -21.285000    -22.102000     -0.980000
H         -20.311000    -18.415000      0.840000
H         -21.540000    -20.376000     -2.852000
H         -20.059000    -19.509000     -9.308000
H         -18.295000    -17.417000     -9.499000
H         -13.460000    -14.574000     -7.449000
H         -13.606000    -15.517000    -10.027000
H         -23.464000    -20.317000      3.701000
C         -22.049000    -21.655000      4.571000
H         -23.747000    -21.846000      3.040000
H         -21.147000    -21.036000      4.655000
H         -21.736000    -22.675000      4.317000
C         -23.054000    -21.781000      5.840000
H         -22.411000    -21.860000      6.726000
C         -23.970000    -23.035000      5.834000
H         -23.670000    -20.879000      5.946000
H         -23.376000    -23.956000      5.874000
H         -24.680000    -23.011000      4.998000
C         -24.749000    -23.036000      7.157000
H         -24.111000    -22.997000      8.048000
C         -25.458000    -24.410000      7.454000
H         -25.502000    -22.246000      7.042000
H         -26.004000    -24.239000      8.390000
H         -24.750000    -25.244000      7.540000
H         -26.148000    -24.648000      6.636000
$end

--------------------------------------------------------------

             Standard Nuclear Orientation (Angstroms)
    I     Atom           X                Y                Z
 ----------------------------------------------------------------
    1      C      -9.5696894757    -2.6881275446     1.2686814194
    2      C      -9.3499877340    -3.2269698361    -0.0144246283
    3      N      -8.6101871999    -1.8947254173     1.8860884546
    4      C      -8.1303576601    -3.0014647250    -0.6892097258
    5      C      -7.4897774903    -1.5279233497     1.2017907664
    6      C      -7.2250178871    -2.0713755270    -0.0941425202
    7      C      -5.9978344954    -1.6172542717    -0.8337551275
    8      C      -5.1902337668    -2.6747992089    -1.4201694596
    9      C      -5.4284803654    -0.3485795561    -0.9800505154
   10      N      -3.9727346191    -2.5125363619    -2.0008170237
   11      N      -6.0755918098     0.7243576721    -0.5217738710
   12      C      -4.1696086104    -0.1217422921    -1.5681446916
   13      C      -3.4973748424    -1.2522011920    -2.0947816032
   14      S      -5.0853582805     1.9122850898    -0.9066115092
   15      N      -3.8530524641     1.1484736723    -1.6607762745
   16      C      -2.1866019333    -0.9850203223    -2.7185361732
   17      S      -1.0950221003     0.3966779862    -2.5815790542
   18      C      -1.5511520013    -1.9414347406    -3.5183204220
   19      C       0.0755354135    -0.2586495733    -3.7241629226
   20      S      -2.0710132625    -3.5472570012    -3.9069605338
   21      C      -0.3209095224    -1.5633068955    -4.0698834518
   22      C       1.4911037312     0.0698966343    -3.7420996837
   23      C      -0.4286096095    -3.8457913880    -4.6493333919
   24      C       0.3995052756    -2.6772978291    -4.6620825051
   25      N       2.1487627362    -0.1569009520    -4.8489458735
   26      S       2.4629555276     0.8142479310    -2.4294096087
   27      C       3.4968777953     0.2283915120    -4.7322389556
   28      C       3.8378137611     0.5385601417    -3.4162890749
   29      C     -10.6998518612    -3.3238166349     2.1090613113
   30      H     -10.0188043254    -4.0128247599    -0.3517336939
   31      H      -7.9093226945    -3.3706548029    -1.6854266852
   32      H      -6.7251718234    -0.9848144509     1.7552868352
   33      H      -5.5784520521    -3.6923694205    -1.4307253828
   34      H      -0.2222595313    -4.8523482913    -4.9886265476
   35      H       1.3642975900    -2.6300557127    -5.1521569612
   36      H       4.1465821512     0.1741012523    -5.5958261357
   37      H       4.8374132469     0.5617749137    -3.0031995661
   38      H     -10.7538039895    -4.4118172244     1.9789156806
   39      C     -12.0826323511    -2.7648109096     1.6282029995
   40      H     -10.5818150615    -3.0753538551     3.1703263870
   41      H     -12.4336347725    -3.2457719451     0.7060838192
   42      H     -12.1373601429    -1.6765036768     1.5004366666
   43      C     -13.0676045576    -3.0083024530     2.8208000063
   44      H     -13.1790052087    -4.0963741780     2.9072107475
   45      C     -14.4507295687    -2.4337202501     2.5570321242
   46      H     -12.7311857690    -2.5365290092     3.7533069588
   47      H     -14.8306120815    -2.8600536447     1.6206384500
   48      H     -14.4385323799    -1.3521001349     2.3730045310
   49      C     -15.3602592069    -2.6817865300     3.7599485627
   50      H     -16.3228235378    -2.1700537964     3.6361401690
   51      C     -14.8341969387    -2.2268742844     5.1183194026
   52      H     -15.6556599165    -3.7318720091     3.8814594976
   53      H     -14.6571548654    -1.1502088760     5.2343095005
   54      H     -13.9316463737    -2.8127130626     5.3350182805
   55      H     -15.4984377934    -2.3497773114     5.9814276999
   56      C       8.2247319386    -3.0063154179     1.9038443982
   57      C       7.3129619165    -3.1942549227     0.8337756296
   58      N       8.2501848511    -1.8530079730     2.6716041828
   59      C       6.4104621199    -2.1526887642     0.6284148387
   60      C       7.5159735238    -0.7940410051     2.2561048592
   61      C       6.4875413588    -0.9403478904     1.3235194328
   62      C       5.5188729938     0.1880325417     1.2287344189
   63      C       4.0814189714    -0.0465243761     1.1774900457
   64      C       5.8620937919     1.5563128614     0.9879327358
   65      N       3.1218804653     0.9694594327     1.1040274314
   66      N       7.1583825110     1.9262749810     0.9517998323
   67      C       4.9115880158     2.5694150415     1.0591839979
   68      C       3.5094285058     2.2797647389     1.1439213012
   69      S       7.0433422553     3.5736225628     0.9128552022
   70      N       5.4256866134     3.7936438375     0.9499343433
   71      C       2.4138553086     3.3623608338     1.2985274620
   72      S       2.7859936039     5.0897918257     1.5704874907
   73      C       1.0918476437     3.1959744010     0.9642531902
   74      C       0.9916599607     5.4226048288     1.2950527763
   75      S       0.3031617499     1.7302762150     0.4601853492
   76      C       0.3593248227     4.3013325417     0.9731805481
   77      C       0.5975379460     6.6788985941     0.8530507256
   78      C      -1.1821553944     2.6416595136     0.4107135002
   79      C      -1.0082861100     3.9828350485     0.7536955061
   80      N       1.4667926848     7.6572773197     1.2308830540
   81      S      -0.8688564390     7.1716781119     0.0219870369
   82      C       0.9076115981     8.8506248234     0.9058949808
   83      C      -0.3508780066     8.8160140051     0.2811854435
   84      C       9.1998811156    -4.0719006116     2.2782322682
   85      H       7.2714412978    -4.1774675642     0.3748824613
   86      H       5.5740294157    -2.2305605723    -0.0603451434
   87      H       7.5398019054     0.1182899379     2.8506142860
   88      H       3.6816883433    -1.0593533089     1.2029061427
   89      H      -2.0752278885     2.1345296899     0.0706460624
   90      H      -1.7771129521     4.7348612104     0.8916481748
   91      H       1.5475681954     9.6888880340     1.1494998725
   92      H      -0.9456368874     9.6719058982    -0.0082086496
   93      H       9.3874646569    -4.1329574283     3.3579329120
   94      C      10.6533902420    -3.9206997932     1.6544810901
   95      H       8.6971755374    -5.0316508456     2.1046563770
   96      H      10.9867754424    -2.8778533348     1.7262207050
   97      H      10.5179757401    -4.1595353089     0.5926404668
   98      C      11.5761737767    -5.1006375717     2.2809628432
   99      H      12.6122704745    -4.8343444445     2.0354478677
  100      C      11.3234475737    -6.5166842589     1.6956857755
  101      H      11.4835967341    -5.1350951331     3.3739121410
  102      H      11.5495553210    -6.5448518102     0.6229514767
  103      H      10.3165209156    -6.8786437531     1.9378758449
  104      C      12.3617606191    -7.4594153866     2.3204537649
  105      H      13.3992982172    -7.1345258303     2.1775954127
  106      C      12.4610904352    -8.8450894640     1.5796387146
  107      H      12.0196639235    -7.6126494095     3.3518718106
  108      H      13.1944331363    -9.4150534891     2.1634216305
  109      H      12.7630356519    -8.7450985124     0.5293783203
  110      H      11.4813923010    -9.3368667598     1.5942898953
 ----------------------------------------------------------------

   10   -5663.4572688851      4.07E-06 Convergence criterion met
 Total energy in the final basis set = -5663.4572688851

                    Orbital Energies (a.u.)
 --------------------------------------------------------------

 Alpha MOs
 -- Occupied --
-88.990 -88.986 -88.932 -88.927 -88.922 -88.920 -88.909 -88.907
-14.393 -14.391 -14.388 -14.387 -14.357 -14.357 -14.341 -14.336
-14.335 -14.331 -10.272 -10.268 -10.265 -10.260 -10.258 -10.258
-10.257 -10.256 -10.249 -10.245 -10.244 -10.242 -10.240 -10.236
-10.234 -10.233 -10.232 -10.231 -10.231 -10.228 -10.228 -10.228
-10.228 -10.227 -10.226 -10.226 -10.226 -10.223 -10.221 -10.219
-10.215 -10.214 -10.213 -10.207 -10.206 -10.205 -10.204 -10.196
-10.194 -10.192 -10.187 -10.186 -10.185 -10.182 -10.181 -10.178
-10.177 -10.176 -10.175 -10.171  -8.047  -8.042  -7.993  -7.986
 -7.983  -7.977  -7.969  -7.966  -6.012  -6.007  -6.006  -6.004
 -6.001  -6.000  -5.957  -5.953  -5.950  -5.950  -5.947  -5.946
 -5.943  -5.942  -5.941  -5.940  -5.938  -5.933  -5.933  -5.931
 -5.930  -5.927  -5.925  -5.922  -1.061  -1.043  -0.963  -0.962
 -0.958  -0.942  -0.931  -0.930  -0.923  -0.921  -0.913  -0.905
 -0.843  -0.835  -0.832  -0.830  -0.811  -0.809  -0.808  -0.804
 -0.803  -0.803  -0.796  -0.793  -0.788  -0.786  -0.764  -0.763
 -0.748  -0.745  -0.739  -0.734  -0.722  -0.718  -0.708  -0.707
 -0.692  -0.688  -0.674  -0.670  -0.657  -0.656  -0.649  -0.643
 -0.638  -0.634  -0.627  -0.627  -0.611  -0.610  -0.601  -0.597
 -0.596  -0.587  -0.585  -0.584  -0.578  -0.577  -0.569  -0.564
 -0.547  -0.544  -0.542  -0.537  -0.525  -0.523  -0.518  -0.508
 -0.506  -0.504  -0.500  -0.496  -0.489  -0.487  -0.484  -0.480
 -0.477  -0.473  -0.472  -0.469  -0.468  -0.466  -0.448  -0.448
 -0.445  -0.440  -0.439  -0.438  -0.436  -0.436  -0.431  -0.430
 -0.428  -0.425  -0.424  -0.422  -0.415  -0.414  -0.413  -0.409
 -0.409  -0.408  -0.407  -0.406  -0.399  -0.397  -0.393  -0.391
 -0.390  -0.389  -0.389  -0.387  -0.387  -0.385  -0.384  -0.383
 -0.378  -0.377  -0.377  -0.376  -0.369  -0.368  -0.361  -0.359
 -0.354  -0.353  -0.352  -0.350  -0.350  -0.350  -0.348  -0.344
 -0.343  -0.341  -0.337  -0.335  -0.329  -0.328  -0.326  -0.324
 -0.321  -0.320  -0.316  -0.315  -0.306  -0.303  -0.301  -0.299
 -0.298  -0.296  -0.290  -0.288  -0.286  -0.285  -0.285  -0.278
 -0.277  -0.276  -0.268  -0.266  -0.253  -0.250  -0.247  -0.244
 -0.243  -0.241  -0.232  -0.230  -0.193  -0.188

          Ground-State Mulliken Net Atomic Charges

     Atom                 Charge (a.u.)
  ----------------------------------------
      1 C                     0.271007
      2 C                    -0.114929
      3 N                    -0.487319
      4 C                    -0.072168
      5 C                     0.100358
      6 C                     0.023605
      7 C                     0.024882
      8 C                     0.052566
      9 C                     0.161247
     10 N                    -0.512085
     11 N                    -0.512111
     12 C                     0.257224
     13 C                     0.302453
     14 S                     0.591745
     15 N                    -0.574087
     16 C                    -0.222362
     17 S                     0.341281
     18 C                    -0.115770
     19 C                    -0.223177
     20 S                     0.280185
     21 C                     0.123370
     22 C                     0.031563
     23 C                    -0.312696
     24 C                    -0.055622
     25 N                    -0.412692
     26 S                     0.305519
     27 C                     0.100380
     28 C                    -0.318846
     29 C                    -0.232761
     30 H                     0.090684
     31 H                     0.108077
     32 H                     0.114417
     33 H                     0.110017
     34 H                     0.129340
     35 H                     0.127303
     36 H                     0.117574
     37 H                     0.137957
     38 H                     0.113101
     39 C                    -0.188349
     40 H                     0.124360
     41 H                     0.095174
     42 H                     0.108528
     43 C                    -0.179891
     44 H                     0.089822
     45 C                    -0.172573
     46 H                     0.108641
     47 H                     0.087203
     48 H                     0.091036
     49 C                    -0.176607
     50 H                     0.087167
     51 C                    -0.324776
     52 H                     0.092939
     53 H                     0.100644
     54 H                     0.106490
     55 H                     0.098309
     56 C                     0.249097
     57 C                    -0.109580
     58 N                    -0.474906
     59 C                    -0.080799
     60 C                     0.097324
     61 C                     0.056968
     62 C                    -0.019063
     63 C                     0.051712
     64 C                     0.211684
     65 N                    -0.520676
     66 N                    -0.530209
     67 C                     0.213519
     68 C                     0.296607
     69 S                     0.593447
     70 N                    -0.542472
     71 C                    -0.226134
     72 S                     0.348231
     73 C                    -0.120170
     74 C                    -0.254546
     75 S                     0.308622
     76 C                     0.190873
     77 C                     0.055869
     78 C                    -0.312576
     79 C                    -0.087817
     80 N                    -0.427784
     81 S                     0.287192
     82 C                     0.128965
     83 C                    -0.327036
     84 C                    -0.228726
     85 H                     0.099932
     86 H                     0.095104
     87 H                     0.108498
     88 H                     0.120686
     89 H                     0.136640
     90 H                     0.109304
     91 H                     0.110441
     92 H                     0.133483
     93 H                     0.117708
     94 C                    -0.184007
     95 H                     0.092082
     96 H                     0.114651
     97 H                     0.095595
     98 C                    -0.179133
     99 H                     0.092765
    100 C                    -0.169430
    101 H                     0.096281
    102 H                     0.092532
    103 H                     0.095076
    104 C                    -0.176982
    105 H                     0.099081
    106 C                    -0.325509
    107 H                     0.096365
    108 H                     0.102800
    109 H                     0.102401
    110 H                     0.098671
  ----------------------------------------
  Sum of atomic charges =     0.000000

                    Cartesian Multipole Moments
 -----------------------------------------------------------------
    Charge (ESU x 10^10)
                 0.0000
    Dipole Moment (Debye)
         X      -0.9627      Y      -1.9982      Z      -2.0421
       Tot       3.0149
    Quadrupole Moments (Debye-Ang)
        XX    -403.7056     XY      -7.0630     YY    -408.4764
        XZ      -8.9918     YZ       1.1418     ZZ    -464.2047

 Total job time:  89.56s(wall), 1057.73s(cpu)
        *  Thank you very much for using Q-Chem.  Have a nice day.  *
