 Q-Chem 4.4, Q-Chem, Inc., Pleasanton, CA (2016)
 Q-Chem 4.4.2 for Intel X86 Linux

User input:
--------------------------------------------------------------
$comment
SP
$end

$rem
MEM_STATIC 5000
MEM_TOTAL 20000
JOBTYPE SP
EXCHANGE B3LYP
BASIS 6-31g(d,p)
$end

$molecule
0 1
C           8.660000    -18.819000     -1.402000
C           9.906000    -18.711000     -0.692000
N           8.535000    -18.523000     -2.678000
C          11.028000    -18.185000     -1.359000
C           9.604000    -17.976000     -3.286000
C          10.885000    -17.745000     -2.713000
C          11.997000    -17.181000     -3.598000
C          13.315000    -17.533000     -3.328000
C          11.831000    -16.374000     -4.728000
N          14.428000    -17.187000     -4.031000
N          10.680000    -15.788000     -5.061000
C          12.981000    -15.938000     -5.470000
C          14.234000    -16.447000     -5.122000
S          11.133000    -14.723000     -6.259000
N          12.705000    -15.057000     -6.416000
C          15.493000    -15.982000     -5.763000
S          15.676000    -14.389000     -6.440000
C          16.718000    -16.605000     -5.602000
C          17.393000    -14.643000     -6.627000
S          17.240000    -18.104000     -4.790000
C          17.769000    -15.844000     -6.128000
C          18.355000    -13.733000     -7.187000
C          18.863000    -17.718000     -5.423000
C          19.012000    -16.487000     -5.971000
N          17.976000    -12.828000     -8.071000
S          20.028000    -13.581000     -6.717000
C          19.009000    -12.090000     -8.657000
C          20.225000    -12.434000     -8.087000
C           7.418000    -19.350000     -0.662000
H          10.000000    -19.052000      0.335000
H          11.958000    -17.990000     -0.833000
H           9.382000    -17.714000     -4.319000
H          13.542000    -18.341000     -2.634000
H          19.613000    -18.486000     -5.288000
H          19.872000    -16.122000     -6.520000
H          18.754000    -11.299000     -9.351000
H          21.148000    -11.941000     -8.363000
H           7.129000    -18.506000     -0.023000
C           7.587000    -20.649000      0.048000
H           6.577000    -19.544000     -1.338000
H           8.161000    -20.297000      0.914000
H           8.167000    -21.423000     -0.470000
C           6.346000    -21.360000      0.564000
H           5.847000    -21.789000     -0.313000
C           5.340000    -20.534000      1.357000
H           6.665000    -22.218000      1.168000
H           4.506000    -21.192000      1.629000
H           4.839000    -19.747000      0.781000
C           6.019000    -19.945000      2.636000
H           6.451000    -20.696000      3.310000
C           5.020000    -19.156000      3.560000
H           6.799000    -19.204000      2.420000
H           4.252000    -19.856000      3.910000
H           4.454000    -18.346000      3.083000
H           5.474000    -18.704000      4.451000
C          13.782000    -20.241000     -6.411000
C          14.932000    -21.009000     -6.311000
N          13.737000    -19.155000     -7.226000
C          16.060000    -20.686000     -7.098000
C          14.759000    -18.830000     -8.009000
C          15.991000    -19.594000     -8.021000
C          17.214000    -19.167000     -8.782000
C          17.531000    -17.819000     -9.088000
C          18.315000    -20.077000     -9.209000
N          18.665000    -17.386000     -9.625000
N          18.301000    -21.383000     -8.963000
C          19.434000    -19.601000     -9.894000
C          19.641000    -18.247000    -10.103000
S          19.696000    -21.944000     -9.630000
N          20.238000    -20.565000    -10.330000
C          20.866000    -17.697000    -10.675000
S          22.198000    -18.615000    -11.275000
C          21.120000    -16.363000    -10.859000
C          23.195000    -17.246000    -11.658000
S          20.221000    -14.987000    -10.316000
C          22.402000    -16.125000    -11.369000
C          24.606000    -17.204000    -11.965000
C          21.398000    -13.989000    -11.147000
C          22.528000    -14.715000    -11.589000
N          25.128000    -18.358000    -12.323000
S          25.598000    -15.778000    -11.981000
C          26.350000    -18.097000    -12.887000
C          26.812000    -16.798000    -12.705000
C          12.701000    -20.548000     -5.370000
H          14.925000    -21.760000     -5.526000
H          16.981000    -21.249000     -6.975000
H          14.577000    -17.928000     -8.591000
H          16.806000    -17.048000     -8.831000
H          21.234000    -12.922000    -11.224000
H          23.357000    -14.213000    -12.074000
H          26.962000    -18.944000    -13.164000
H          27.802000    -16.399000    -12.885000
H          13.210000    -20.418000     -4.407000
C          12.108000    -21.975000     -5.533000
H          11.857000    -19.849000     -5.413000
H          12.816000    -22.808000     -5.614000
H          11.447000    -22.057000     -6.405000
C          11.121000    -22.231000     -4.344000
H          10.221000    -21.605000     -4.307000
C          11.844000    -22.250000     -2.945000
H          10.797000    -23.272000     -4.472000
H          12.320000    -21.285000     -2.729000
H          12.674000    -22.968000     -2.927000
C          10.880000    -22.603000     -1.832000
H           9.981000    -21.977000     -1.892000
C          11.487000    -22.638000     -0.376000
H          10.505000    -23.616000     -2.024000
H          12.392000    -23.258000     -0.381000
H          10.720000    -23.023000      0.307000
H          11.693000    -21.622000     -0.018000
$end

--------------------------------------------------------------

             Standard Nuclear Orientation (Angstroms)
    I     Atom           X                Y                Z
 ----------------------------------------------------------------
    1      C      -8.9578849114    -0.5225772697     0.1573837168
    2      C      -8.3459614721    -0.5633947604    -1.1434481850
    3      N      -8.2775152733    -0.6719031361     1.2737241403
    4      C      -6.9741385175    -0.8610816680    -1.2431140578
    5      C      -6.9783389082    -1.0040675997     1.1577864774
    6      C      -6.2388528946    -1.1447896074    -0.0488653995
    7      C      -4.7438426946    -1.4542139871     0.0351944317
    8      C      -3.9015663054    -0.9788994949    -0.9640926230
    9      C      -4.0920524681    -2.1297884718     1.0717626235
   10      N      -2.5473034257    -1.0960014883    -1.0344714254
   11      N      -4.7241362661    -2.8072175368     2.0312655856
   12      C      -2.6703415261    -2.3261512622     1.0139729013
   13      C      -1.9517900791    -1.7138570397    -0.0150915297
   14      S      -3.4926162152    -3.6523560892     2.7686509608
   15      N      -2.1993009533    -3.1108305272     1.9677298042
   16      C      -0.4954299260    -1.9378443437    -0.2176545866
   17      S       0.3122786499    -3.4004149113     0.2701580734
   18      C       0.2880224096    -1.1936516323    -1.0819778167
   19      C       1.7528041976    -2.9161371709    -0.5888734840
   20      S      -0.0152555954     0.2463601385    -2.0885648977
   21      C       1.5626359265    -1.7488787040    -1.2477526081
   22      C       3.0010785863    -3.6248297107    -0.6707876741
   23      C       1.7149222110     0.1439252284    -2.5126000933
   24      C       2.3593772277    -0.9822852521    -2.1199250557
   25      N       3.3581668252    -4.4534576963     0.2935699624
   26      S       4.1003244816    -3.6268549019    -2.0252570758
   27      C       4.6487053913    -4.9808426826     0.1863119300
   28      C       5.2389651673    -4.5629782878    -0.9964284238
   29      C     -10.4685703910    -0.2437303298     0.2678317409
   30      H      -8.9165209071    -0.3428305060    -2.0410334683
   31      H      -6.4954988111    -1.0037022566    -2.2075643672
   32      H      -6.5205929274    -1.1618348806     2.1327711450
   33      H      -4.2552424125    -0.2410198077    -1.6827551157
   34      H       2.1073263390     0.9757163100    -3.0824172542
   35      H       3.4258954703    -1.1682093930    -2.1667977776
   36      H       4.9770012384    -5.7054245009     0.9208492166
   37      H       6.2218768982    -4.9009002937    -1.2978371947
   38      H     -10.9208088314    -1.1892320270    -0.0572604517
   39      C     -10.9622903517     0.9685354393    -0.4440069385
   40      H     -10.7898624478    -0.0726367297     1.3019455616
   41      H     -10.9366765975     0.5855802965    -1.4716378519
   42      H     -10.3338119173     1.8659447673    -0.3850887276
   43      C     -12.3749937884     1.4524040748    -0.1576537593
   44      H     -12.3473894488     1.9217596410     0.8328584077
   45      C     -13.4935136635     0.4174729306    -0.1891468650
   46      H     -12.6119946981     2.2619390277    -0.8585280197
   47      H     -14.4311026469     0.9293065894     0.0587587703
   48      H     -13.4307107484    -0.3479782462     0.5933403807
   49      C     -13.5791566910    -0.2369320898    -1.6062644822
   50      H     -13.7471673258     0.4724896623    -2.4268704804
   51      C     -14.7733412383    -1.2507396593    -1.7491472284
   52      H     -12.7026469040    -0.8440477704    -1.8656447891
   53      H     -15.7098178149    -0.6990632470    -1.6042722562
   54      H     -14.8153433734    -2.0590507707    -1.0083004373
   55      H     -14.8410952060    -1.7500037505    -2.7240553097
   56      C      -2.2290786667     2.1256759258     1.1854744394
   57      C      -1.4958134316     3.0109612274     0.4102867011
   58      N      -1.6124462236     1.1513582921     1.9038862842
   59      C      -0.0854297935     2.9287208005     0.3986031427
   60      C      -0.2890302301     1.0536236480     1.9509611977
   61      C       0.5747504178     1.9588764340     1.2187970181
   62      C       2.0643353459     1.7826956412     1.1334971346
   63      C       2.7252447235     0.5320539291     1.2350998056
   64      C       3.0352987068     2.8668405231     0.8102479632
   65      N       4.0163627402     0.3113723294     1.0203257421
   66      N       2.6589608507     4.1207802182     0.5814400545
   67      C       4.4064181706     2.6202421752     0.7254973232
   68      C       4.9246502129     1.3381954035     0.8128908332
   69      S       4.0629756096     4.9270313708     0.2910323484
   70      N       5.1350231560     3.7221607929     0.5815593678
   71      C       6.3288820694     1.0178105773     0.5766802148
   72      S       7.5827003193     2.1595867046     0.2585056220
   73      C       6.8670785706    -0.2418502324     0.6157592436
   74      C       8.8366907101     0.9813665767     0.0257730932
   75      S       6.0718735197    -1.7743555675     0.7402675772
   76      C       8.2279592431    -0.2556525950     0.2870020537
   77      C      10.1512641424     1.1513662953    -0.5486229260
   78      C       7.6627133497    -2.5098182315     0.7550088521
   79      C       8.6971342548    -1.6014427743     0.4322590732
   80      N      10.5764158319     2.3960832652    -0.5964737967
   81      S      11.2011437961    -0.1289007135    -1.0744224115
   82      C      11.9240058120     2.3589225444    -0.8457152988
   83      C      12.4137040924     1.1141163727    -1.2260075403
   84      C      -3.7442815557     2.1665842096     0.9641653400
   85      H      -2.0794333978     3.6527125944    -0.2437912133
   86      H       0.4862242263     3.5811499276    -0.2555275138
   87      H       0.0528381871     0.2148877899     2.5551963718
   88      H       2.1292160770    -0.3480078992     1.4724940575
   89      H       7.7585526807    -3.5711571383     0.9439229797
   90      H       9.7257255282    -1.9339832041     0.3555332300
   91      H      12.4277750386     3.3023994507    -1.0030362883
   92      H      13.3793003775     0.8651428541    -1.6471215406
   93      H      -3.8644284756     1.9822693500    -0.1105172876
   94      C      -4.3719175204     3.5189831226     1.4019292902
   95      H      -4.2765572526     1.3798252951     1.5123249819
   96      H      -3.9008364579     4.4362808190     1.0299594411
   97      H      -4.4174879718     3.6261126347     2.4930184715
   98      C      -5.8876027394     3.5029574555     1.0071287138
   99      H      -6.5230941294     2.7713223642     1.5210409499
  100      C      -6.1110587826     3.4378504230    -0.5504718355
  101      H      -6.2531602594     4.5040080552     1.2703897940
  102      H      -5.6869689960     2.5194605350    -0.9761064988
  103      H      -5.5789794704     4.2446837960    -1.0707213081
  104      C      -7.5814974843     3.5295505982    -0.8998643113
  105      H      -8.1607104935     2.8100124922    -0.3078725849
  106      C      -7.9333470684     3.4589022181    -2.4363605451
  107      H      -7.9465483332     4.5046601486    -0.5540938059
  108      H      -7.3111155727     4.1812935332    -2.9789734398
  109      H      -9.0053431192     3.6594119178    -2.5530795561
  110      H      -7.7982760351     2.4395709878    -2.8179043288
 ----------------------------------------------------------------

    9   -5663.5228088160      6.43E-06 Convergence criterion met
 Total energy in the final basis set = -5663.5228088160

                    Orbital Energies (a.u.)
 --------------------------------------------------------------

 Alpha MOs
 -- Occupied --
-88.984 -88.983 -88.933 -88.925 -88.923 -88.919 -88.909 -88.908
-14.389 -14.383 -14.382 -14.380 -14.349 -14.345 -14.342 -14.333
-14.328 -14.324 -10.269 -10.264 -10.258 -10.257 -10.255 -10.254
-10.254 -10.247 -10.238 -10.235 -10.234 -10.233 -10.233 -10.233
-10.232 -10.231 -10.231 -10.230 -10.230 -10.228 -10.226 -10.225
-10.224 -10.224 -10.224 -10.223 -10.223 -10.222 -10.220 -10.219
-10.218 -10.207 -10.207 -10.205 -10.203 -10.199 -10.194 -10.191
-10.187 -10.186 -10.186 -10.183 -10.182 -10.180 -10.179 -10.178
-10.177 -10.176 -10.176 -10.173  -8.040  -8.038  -7.994  -7.985
 -7.982  -7.979  -7.968  -7.967  -6.005  -6.004  -6.000  -5.998
 -5.998  -5.996  -5.958  -5.955  -5.951  -5.949  -5.946  -5.946
 -5.943  -5.942  -5.942  -5.939  -5.938  -5.936  -5.932  -5.931
 -5.929  -5.928  -5.924  -5.924  -1.042  -1.040  -0.975  -0.961
 -0.956  -0.948  -0.944  -0.931  -0.918  -0.915  -0.911  -0.907
 -0.846  -0.845  -0.831  -0.816  -0.815  -0.814  -0.807  -0.806
 -0.805  -0.797  -0.789  -0.788  -0.783  -0.780  -0.768  -0.762
 -0.747  -0.746  -0.741  -0.736  -0.725  -0.720  -0.712  -0.705
 -0.698  -0.689  -0.675  -0.673  -0.658  -0.653  -0.647  -0.639
 -0.636  -0.633  -0.624  -0.621  -0.612  -0.605  -0.601  -0.599
 -0.595  -0.592  -0.590  -0.584  -0.576  -0.575  -0.566  -0.554
 -0.544  -0.542  -0.539  -0.538  -0.521  -0.520  -0.516  -0.513
 -0.507  -0.502  -0.501  -0.496  -0.487  -0.483  -0.476  -0.474
 -0.473  -0.472  -0.469  -0.467  -0.460  -0.458  -0.455  -0.448
 -0.448  -0.442  -0.438  -0.437  -0.436  -0.434  -0.430  -0.429
 -0.426  -0.423  -0.422  -0.418  -0.416  -0.415  -0.414  -0.412
 -0.410  -0.410  -0.408  -0.402  -0.399  -0.398  -0.397  -0.394
 -0.391  -0.391  -0.391  -0.388  -0.387  -0.386  -0.382  -0.381
 -0.380  -0.379  -0.377  -0.375  -0.367  -0.364  -0.358  -0.356
 -0.354  -0.353  -0.352  -0.349  -0.348  -0.344  -0.341  -0.340
 -0.339  -0.336  -0.333  -0.333  -0.331  -0.330  -0.324  -0.323
 -0.317  -0.313  -0.311  -0.309  -0.303  -0.301  -0.299  -0.298
 -0.298  -0.293  -0.290  -0.289  -0.287  -0.284  -0.281  -0.280
 -0.268  -0.265  -0.264  -0.262  -0.253  -0.252  -0.249  -0.243
 -0.242  -0.240  -0.232  -0.224  -0.196  -0.189

          Ground-State Mulliken Net Atomic Charges

     Atom                 Charge (a.u.)
  ----------------------------------------
      1 C                     0.265914
      2 C                    -0.116775
      3 N                    -0.474050
      4 C                    -0.091275
      5 C                     0.064445
      6 C                     0.050408
      7 C                     0.076122
      8 C                     0.025877
      9 C                     0.213686
     10 N                    -0.510939
     11 N                    -0.552960
     12 C                     0.232183
     13 C                     0.313463
     14 S                     0.596887
     15 N                    -0.551270
     16 C                    -0.246705
     17 S                     0.352491
     18 C                    -0.096305
     19 C                    -0.203746
     20 S                     0.270544
     21 C                     0.140782
     22 C                     0.053324
     23 C                    -0.315671
     24 C                    -0.065779
     25 N                    -0.436665
     26 S                     0.262155
     27 C                     0.116858
     28 C                    -0.305429
     29 C                    -0.229854
     30 H                     0.096854
     31 H                     0.103924
     32 H                     0.119321
     33 H                     0.107847
     34 H                     0.123980
     35 H                     0.128751
     36 H                     0.123925
     37 H                     0.125159
     38 H                     0.116448
     39 C                    -0.178469
     40 H                     0.111708
     41 H                     0.089531
     42 H                     0.107520
     43 C                    -0.186558
     44 H                     0.088619
     45 C                    -0.170996
     46 H                     0.094419
     47 H                     0.092757
     48 H                     0.099282
     49 C                    -0.174801
     50 H                     0.098159
     51 C                    -0.332002
     52 H                     0.097721
     53 H                     0.099885
     54 H                     0.100658
     55 H                     0.097511
     56 C                     0.281707
     57 C                    -0.106949
     58 N                    -0.501190
     59 C                    -0.056150
     60 C                     0.075026
     61 C                     0.021055
     62 C                     0.046859
     63 C                     0.067280
     64 C                     0.219582
     65 N                    -0.543122
     66 N                    -0.557864
     67 C                     0.219873
     68 C                     0.315805
     69 S                     0.584298
     70 N                    -0.570337
     71 C                    -0.228886
     72 S                     0.362866
     73 C                    -0.123078
     74 C                    -0.201490
     75 S                     0.325453
     76 C                     0.112153
     77 C                     0.055011
     78 C                    -0.309718
     79 C                    -0.104137
     80 N                    -0.414711
     81 S                     0.285686
     82 C                     0.111654
     83 C                    -0.310011
     84 C                    -0.231250
     85 H                     0.087502
     86 H                     0.117003
     87 H                     0.111633
     88 H                     0.120553
     89 H                     0.119232
     90 H                     0.106951
     91 H                     0.113901
     92 H                     0.134387
     93 H                     0.120418
     94 C                    -0.189807
     95 H                     0.114111
     96 H                     0.099550
     97 H                     0.106294
     98 C                    -0.192477
     99 H                     0.107520
    100 C                    -0.168395
    101 H                     0.089004
    102 H                     0.088721
    103 H                     0.083420
    104 C                    -0.187095
    105 H                     0.102322
    106 C                    -0.323399
    107 H                     0.089565
    108 H                     0.103335
    109 H                     0.101563
    110 H                     0.099897
  ----------------------------------------
  Sum of atomic charges =     0.000000

                    Cartesian Multipole Moments
 -----------------------------------------------------------------
    Charge (ESU x 10^10)
                 0.0000
    Dipole Moment (Debye)
         X       1.6555      Y      -0.0419      Z      -3.8590
       Tot       4.1993
    Quadrupole Moments (Debye-Ang)
        XX    -380.3377     XY     -23.8319     YY    -430.7750
        XZ      -2.4064     YZ      -5.7213     ZZ    -449.1815

 Total job time:  96.20s(wall), 1167.54s(cpu)
        *  Thank you very much for using Q-Chem.  Have a nice day.  *
