 Q-Chem 4.4, Q-Chem, Inc., Pleasanton, CA (2016)
 Q-Chem 4.4.2 for Intel X86 Linux

User input:
--------------------------------------------------------------
$comment
SP
$end

$rem
MEM_STATIC 5000
MEM_TOTAL 20000
JOBTYPE SP
EXCHANGE B3LYP
BASIS 6-31g(d,p)
$end

$molecule
0 1
C         -23.666000     10.347000     -8.030000
C         -23.420000      8.966000     -8.381000
N         -23.974000     10.771000     -6.801000
C         -23.526000      8.015000     -7.357000
C         -24.040000      9.837000     -5.872000
C         -23.902000      8.423000     -6.087000
C         -24.192000      7.518000     -4.898000
C         -25.009000      8.012000     -3.787000
C         -23.809000      6.131000     -4.758000
N         -25.295000      7.354000     -2.671000
N         -23.200000      5.334000     -5.716000
C         -23.980000      5.485000     -3.517000
C         -24.762000      6.094000     -2.483000
S         -22.805000      3.964000     -4.977000
N         -23.444000      4.234000     -3.505000
C         -24.995000      5.397000     -1.220000
S         -24.368000      3.850000     -0.732000
C         -25.757000      5.941000     -0.140000
C         -25.183000      3.926000      0.797000
S         -26.503000      7.519000     -0.014000
C         -25.777000      5.135000      0.981000
C         -24.906000      2.864000      1.790000
C         -26.948000      6.972000      1.739000
C         -26.446000      5.754000      2.090000
N         -24.675000      1.667000      1.221000
S         -25.536000      2.865000      3.442000
C         -24.842000      0.767000      2.209000
C         -25.176000      1.172000      3.457000
C         -23.473000     11.384000     -9.136000
H         -23.184000      8.762000     -9.421000
H         -23.462000      6.971000     -7.652000
H         -24.151000     10.252000     -4.871000
H         -25.474000      8.996000     -3.780000
H         -27.561000      7.712000      2.236000
H         -26.516000      5.347000      3.093000
H         -24.664000     -0.297000      2.122000
H         -25.175000      0.654000      4.407000
H         -23.207000     12.335000     -8.659000
C         -24.698000     11.560000    -10.075000
H         -22.577000     11.151000     -9.724000
H         -25.625000     11.857000     -9.570000
H         -24.933000     10.596000    -10.543000
C         -24.652000     12.664000    -11.097000
H         -24.116000     12.377000    -12.010000
C         -23.835000     13.905000    -10.690000
H         -25.672000     13.002000    -11.320000
H         -22.818000     13.506000    -10.589000
H         -24.139000     14.256000     -9.697000
C         -23.829000     15.011000    -11.702000
H         -24.894000     15.271000    -11.714000
C         -23.206000     14.660000    -13.031000
H         -23.191000     15.897000    -11.599000
H         -22.235000     14.257000    -12.718000
H         -23.116000     15.628000    -13.539000
H         -23.712000     13.840000    -13.555000
C         -13.833000     -4.735000    -10.399000
C         -14.141000     -4.117000     -9.239000
N         -14.760000     -4.943000    -11.332000
C         -15.422000     -3.565000     -9.003000
C         -16.045000     -4.438000    -11.156000
C         -16.443000     -3.788000     -9.974000
C         -17.841000     -3.316000     -9.759000
C         -18.075000     -2.064000     -9.238000
C         -19.029000     -4.057000    -10.105000
N         -19.286000     -1.539000     -9.019000
N         -19.021000     -5.356000    -10.508000
C         -20.283000     -3.524000     -9.958000
C         -20.440000     -2.155000     -9.370000
S         -20.538000     -5.754000    -10.832000
N         -21.244000     -4.379000    -10.255000
C         -21.732000     -1.617000     -9.104000
S         -23.345000     -2.502000     -9.075000
C         -21.894000     -0.296000     -8.890000
C         -24.137000     -0.935000     -8.766000
S         -20.789000      1.081000     -8.660000
C         -23.233000      0.064000     -8.728000
C         -25.559000     -0.775000     -8.786000
C         -22.169000      2.156000     -8.418000
C         -23.385000      1.460000     -8.363000
N         -26.016000      0.360000     -9.232000
S         -26.623000     -2.105000     -8.615000
C         -27.342000      0.311000     -9.364000
C         -27.871000     -0.949000     -9.078000
C         -12.452000     -5.289000    -10.806000
H         -13.433000     -3.961000     -8.431000
H         -15.618000     -3.072000     -8.055000
H         -16.829000     -4.857000    -11.785000
H         -17.279000     -1.369000     -8.976000
H         -22.079000      3.234000     -8.404000
H         -24.281000      1.977000     -8.041000
H         -27.989000      1.149000     -9.586000
H         -28.897000     -1.288000     -9.011000
H         -12.345000     -5.072000    -11.876000
C         -12.242000     -6.749000    -10.436000
H         -11.714000     -4.704000    -10.244000
H         -13.165000     -7.206000    -10.815000
H         -12.189000     -6.843000     -9.344000
C         -10.931000     -7.364000    -10.993000
H         -10.127000     -6.618000    -10.978000
C         -11.279000     -7.823000    -12.476000
H         -10.537000     -8.234000    -10.453000
H         -12.191000     -7.351000    -12.861000
H         -11.344000     -8.916000    -12.548000
C         -10.235000     -7.230000    -13.351000
H         -10.343000     -6.161000    -13.131000
C         -10.526000     -7.500000    -14.868000
H          -9.212000     -7.576000    -13.156000
H          -9.896000     -6.785000    -15.411000
H         -11.577000     -7.365000    -15.150000
H         -10.185000     -8.489000    -15.200000
$end

--------------------------------------------------------------

             Standard Nuclear Orientation (Angstroms)
    I     Atom           X                Y                Z
 ----------------------------------------------------------------
    1      C       6.4939854173     5.6188049386    -0.9871368869
    2      C       5.2070432203     5.1278446669    -0.5471189406
    3      N       7.4918968670     4.8421052986    -1.4184040985
    4      C       5.0082454094     3.7406646404    -0.5677103148
    5      C       7.2434942735     3.5468396018    -1.4367323917
    6      C       6.0485120520     2.9108100774    -0.9549140292
    7      C       6.0523596529     1.3893140208    -0.9115441560
    8      C       7.3243268812     0.6628972223    -0.8952959309
    9      C       4.8967490788     0.5282627835    -0.7965964819
   10      N       7.4746951380    -0.6551897408    -0.9111750076
   11      N       3.5811752396     0.9212042374    -0.5998314257
   12      C       5.0473619931    -0.8628349530    -0.9663045777
   13      C       6.3514142530    -1.4549569165    -0.9863116700
   14      S       2.6868136799    -0.4027796164    -0.7617886907
   15      N       3.8540014576    -1.5172923285    -0.9704489549
   16      C       6.5075852799    -2.9036805778    -1.0962087287
   17      S       5.2527871824    -4.0940495811    -1.2778274793
   18      C       7.7731902573    -3.5670823878    -1.1297061866
   19      C       6.3975988804    -5.3966956152    -1.2968402699
   20      S       9.3761859088    -2.8650293040    -1.1281541627
   21      C       7.6750864941    -4.9318712362    -1.3151894766
   22      C       5.8990708630    -6.7609518891    -1.5812636074
   23      C       9.9642707192    -4.6493715410    -1.3294550240
   24      C       8.9576896807    -5.5588679951    -1.4648795898
   25      N       4.6611932386    -6.9736447389    -1.0992348339
   26      S       6.9423502058    -8.1744539183    -1.7802239715
   27      C       4.5169374266    -8.3124767271    -1.0718091532
   28      C       5.5230834064    -9.1196910390    -1.4831001961
   29      C       6.6736976720     7.1358493792    -1.0333285605
   30      H       4.4884982179     5.8718109610    -0.2167869369
   31      H       4.0882252208     3.3728142241    -0.1212733945
   32      H       8.0318554962     2.9782579332    -1.9284116251
   33      H       8.2933069480     1.1574517261    -0.8633041684
   34      H      11.0440052860    -4.7109234047    -1.3018392052
   35      H       9.1265677824    -6.6043658195    -1.6993417104
   36      H       3.6097853711    -8.8380753635    -0.8031639938
   37      H       5.5504398703   -10.1765118290    -1.7137654119
   38      H       7.4263477138     7.3595326243    -1.7989457758
   39      C       7.0595493241     7.7805801201     0.3263636011
   40      H       5.7721982821     7.6137986003    -1.4354633539
   41      H       7.9889055359     7.4008357394     0.7675599712
   42      H       6.2846219457     7.5472725085     1.0670390473
   43      C       7.4027925405     9.2459726511     0.3413577492
   44      H       6.5168266989     9.8902713698     0.3977287393
   45      C       8.0407280281     9.7865276151    -0.9524960465
   46      H       8.1016387650     9.4520323057     1.1620442748
   47      H       7.2470909532     9.6409154617    -1.6958857787
   48      H       8.8827622580     9.1547768900    -1.2583315858
   49      C       8.4111748236    11.2385383941    -0.9094859385
   50      H       9.1673555597    11.2241117566    -0.1157910561
   51      C       7.2545763729    12.1895205127    -0.7211138758
   52      H       8.7572833439    11.7822360464    -1.7967574612
   53      H       6.5730999253    11.8658663867    -1.5173907486
   54      H       7.6942846285    13.1749322156    -0.9181124184
   55      H       6.7061566926    12.0401735185     0.2169390702
   56      C     -10.7752403133     0.2800219120    -2.7301264051
   57      C      -9.6655320548    -0.3281883219    -3.2002496787
   58      N     -10.8264011958     0.7441396185    -1.4831062294
   59      C      -8.4750820639    -0.4037504074    -2.4396708264
   60      C      -9.6935874835     0.6879166556    -0.6763856634
   61      C      -8.5028677374     0.0661233004    -1.0930240075
   62      C      -7.3167541422    -0.0590949523    -0.1981117612
   63      C      -6.0576917596     0.2234144753    -0.6762867712
   64      C      -7.3654743843    -0.4162119330     1.1983963125
   65      N      -4.9317399676     0.1570907320     0.0433942159
   66      N      -8.4870575797    -0.8572802696     1.8287802101
   67      C      -6.2412924512    -0.4278850922     1.9821645937
   68      C      -4.9098696554    -0.1171139619     1.3695565270
   69      S      -8.1000221256    -1.0851660278     3.3659661580
   70      N      -6.4740339447    -0.8531067127     3.2100786667
   71      C      -3.7109140826    -0.2264939549     2.1311374823
   72      S      -3.4763242668    -1.0357821339     3.7669416460
   73      C      -2.5711592363     0.3518055843     1.7026406525
   74      C      -1.7786242167    -0.4928852820     3.7307263467
   75      S      -2.0643728705     1.1601671724     0.1993864749
   76      C      -1.5208495399     0.2126898234     2.6116298421
   77      C      -0.9068839114    -0.6187654335     4.8586922272
   78      C      -0.4375105680     1.3701992769     0.8534465362
   79      C      -0.2675124321     0.7169214680     2.0824403272
   80      N      -0.0253808095     0.3248212658     5.0277674242
   81      S      -1.2305584289    -1.7106836956     6.1366540089
   82      C       0.5949293089     0.1810561049     6.1993680112
   83      C       0.0838572552    -0.8723458082     6.9598854440
   84      C     -12.0937473974     0.5065478098    -3.4982091393
   85      H      -9.5878688361    -0.7599857178    -4.1932166637
   86      H      -7.6068811598    -0.8986461965    -2.8656688875
   87      H      -9.8455617022     0.8109548905     0.3948862113
   88      H      -5.8677016217     0.5552052163    -1.6956511082
   89      H       0.3047638083     2.0062832596     0.3899749435
   90      H       0.7273222345     0.6164318655     2.4995671976
   91      H       1.4577880233     0.7413793173     6.5335083060
   92      H       0.4167660880    -1.2942711877     7.8996921705
   93      H     -12.4493541048     1.4998538354    -3.1976679453
   94      C     -13.1115322168    -0.6083259655    -3.3144415512
   95      H     -11.8247961884     0.5263699503    -4.5612168203
   96      H     -13.1099427348    -0.7288053461    -2.2236156290
   97      H     -12.7429610346    -1.5204243558    -3.8005905100
   98      C     -14.5007770012    -0.3102537325    -3.9376163847
   99      H     -14.3832448392     0.2485984837    -4.8741137906
  100      C     -15.2800700790     0.5386122641    -2.8407103638
  101      H     -15.1154867747    -1.1833724829    -4.1896710255
  102      H     -14.6107508439     0.9695931098    -2.0863760399
  103      H     -16.0714131497    -0.0561450566    -2.3673205941
  104      C     -15.7821730914     1.7530850956    -3.5336449251
  105      H     -14.8522904904     2.1877697619    -3.9198994904
  106      C     -16.4690068250     2.7492027104    -2.5362086515
  107      H     -16.5003885780     1.5650288548    -4.3417732350
  108      H     -16.5184220934     3.7034328577    -3.0747037370
  109      H     -15.9264164739     2.8778378553    -1.5920695142
  110      H     -17.5135512157     2.4888350874    -2.3222887676
 ----------------------------------------------------------------

    9   -5663.4845436204      9.29E-06 Convergence criterion met
 Total energy in the final basis set = -5663.4845436204

                    Orbital Energies (a.u.)
 --------------------------------------------------------------

 Alpha MOs
 -- Occupied --
-88.989 -88.985 -88.933 -88.932 -88.930 -88.920 -88.912 -88.911
-14.382 -14.379 -14.378 -14.376 -14.353 -14.350 -14.345 -14.344
-14.329 -14.325 -10.276 -10.267 -10.266 -10.263 -10.258 -10.253
-10.251 -10.249 -10.241 -10.241 -10.240 -10.238 -10.238 -10.236
-10.235 -10.233 -10.233 -10.232 -10.231 -10.230 -10.230 -10.229
-10.229 -10.226 -10.225 -10.223 -10.221 -10.220 -10.219 -10.215
-10.212 -10.211 -10.208 -10.207 -10.206 -10.203 -10.200 -10.195
-10.185 -10.182 -10.181 -10.176 -10.176 -10.176 -10.171 -10.171
-10.170 -10.170 -10.167 -10.165  -8.045  -8.041  -7.995  -7.994
 -7.988  -7.980  -7.971  -7.969  -6.010  -6.006  -6.004  -6.003
 -6.001  -5.999  -5.959  -5.958  -5.956  -5.954  -5.952  -5.952
 -5.951  -5.949  -5.944  -5.944  -5.940  -5.937  -5.936  -5.933
 -5.932  -5.930  -5.927  -5.925  -1.040  -1.033  -0.990  -0.980
 -0.953  -0.951  -0.945  -0.931  -0.914  -0.913  -0.898  -0.894
 -0.841  -0.841  -0.832  -0.826  -0.818  -0.817  -0.815  -0.808
 -0.806  -0.805  -0.796  -0.796  -0.786  -0.780  -0.767  -0.766
 -0.750  -0.750  -0.741  -0.737  -0.729  -0.725  -0.711  -0.707
 -0.692  -0.690  -0.674  -0.673  -0.658  -0.648  -0.643  -0.643
 -0.634  -0.630  -0.624  -0.623  -0.613  -0.606  -0.601  -0.599
 -0.593  -0.592  -0.587  -0.583  -0.578  -0.571  -0.567  -0.557
 -0.550  -0.545  -0.540  -0.540  -0.524  -0.521  -0.519  -0.514
 -0.507  -0.502  -0.498  -0.495  -0.486  -0.485  -0.477  -0.476
 -0.473  -0.472  -0.470  -0.468  -0.463  -0.460  -0.460  -0.451
 -0.450  -0.446  -0.443  -0.442  -0.437  -0.436  -0.434  -0.432
 -0.430  -0.422  -0.422  -0.421  -0.419  -0.417  -0.417  -0.415
 -0.409  -0.409  -0.405  -0.404  -0.400  -0.399  -0.398  -0.396
 -0.393  -0.392  -0.391  -0.390  -0.386  -0.384  -0.384  -0.381
 -0.381  -0.377  -0.373  -0.367  -0.366  -0.364  -0.359  -0.353
 -0.352  -0.349  -0.349  -0.345  -0.344  -0.344  -0.340  -0.340
 -0.338  -0.332  -0.332  -0.330  -0.329  -0.325  -0.323  -0.318
 -0.312  -0.308  -0.308  -0.307  -0.303  -0.302  -0.301  -0.301
 -0.300  -0.295  -0.294  -0.291  -0.290  -0.286  -0.280  -0.276
 -0.272  -0.267  -0.265  -0.265  -0.257  -0.254  -0.254  -0.252
 -0.243  -0.241  -0.233  -0.232  -0.195  -0.192

          Ground-State Mulliken Net Atomic Charges

     Atom                 Charge (a.u.)
  ----------------------------------------
      1 C                     0.257414
      2 C                    -0.113750
      3 N                    -0.467514
      4 C                    -0.080776
      5 C                     0.061773
      6 C                     0.055293
      7 C                     0.022306
      8 C                     0.061787
      9 C                     0.203326
     10 N                    -0.524983
     11 N                    -0.565058
     12 C                     0.206572
     13 C                     0.314079
     14 S                     0.622772
     15 N                    -0.566507
     16 C                    -0.234190
     17 S                     0.378616
     18 C                    -0.118327
     19 C                    -0.240951
     20 S                     0.265895
     21 C                     0.155844
     22 C                     0.024728
     23 C                    -0.313800
     24 C                    -0.050908
     25 N                    -0.407993
     26 S                     0.280282
     27 C                     0.132333
     28 C                    -0.308074
     29 C                    -0.239360
     30 H                     0.095170
     31 H                     0.119198
     32 H                     0.101373
     33 H                     0.116730
     34 H                     0.129658
     35 H                     0.120232
     36 H                     0.109959
     37 H                     0.143148
     38 H                     0.121814
     39 C                    -0.170324
     40 H                     0.101633
     41 H                     0.106606
     42 H                     0.092370
     43 C                    -0.184512
     44 H                     0.090355
     45 C                    -0.182963
     46 H                     0.089872
     47 H                     0.085538
     48 H                     0.092460
     49 C                    -0.162315
     50 H                     0.086120
     51 C                    -0.318612
     52 H                     0.091158
     53 H                     0.101849
     54 H                     0.101904
     55 H                     0.103303
     56 C                     0.271680
     57 C                    -0.115890
     58 N                    -0.482466
     59 C                    -0.081578
     60 C                     0.057286
     61 C                     0.038798
     62 C                     0.043604
     63 C                     0.052042
     64 C                     0.200132
     65 N                    -0.530712
     66 N                    -0.539698
     67 C                     0.212751
     68 C                     0.310721
     69 S                     0.594927
     70 N                    -0.586506
     71 C                    -0.208378
     72 S                     0.322965
     73 C                    -0.099665
     74 C                    -0.235616
     75 S                     0.283633
     76 C                     0.168639
     77 C                     0.061033
     78 C                    -0.325316
     79 C                    -0.047149
     80 N                    -0.418236
     81 S                     0.274447
     82 C                     0.135860
     83 C                    -0.312698
     84 C                    -0.206870
     85 H                     0.085290
     86 H                     0.102608
     87 H                     0.120366
     88 H                     0.113277
     89 H                     0.139959
     90 H                     0.118314
     91 H                     0.120838
     92 H                     0.131352
     93 H                     0.119155
     94 C                    -0.176424
     95 H                     0.086634
     96 H                     0.117550
     97 H                     0.081699
     98 C                    -0.190831
     99 H                     0.094896
    100 C                    -0.164882
    101 H                     0.091244
    102 H                     0.106785
    103 H                     0.089591
    104 C                    -0.173658
    105 H                     0.095092
    106 C                    -0.328238
    107 H                     0.089694
    108 H                     0.096425
    109 H                     0.102373
    110 H                     0.100597
  ----------------------------------------
  Sum of atomic charges =     0.000000

                    Cartesian Multipole Moments
 -----------------------------------------------------------------
    Charge (ESU x 10^10)
                 0.0000
    Dipole Moment (Debye)
         X       1.9817      Y      -4.1198      Z       1.4606
       Tot       4.7993
    Quadrupole Moments (Debye-Ang)
        XX    -463.6759     XY     -16.6150     YY    -401.4241
        XZ      10.3880     YZ       4.9871     ZZ    -416.0353

 Total job time:  79.60s(wall), 934.75s(cpu)
        *  Thank you very much for using Q-Chem.  Have a nice day.  *
