 Q-Chem 4.4, Q-Chem, Inc., Pleasanton, CA (2016)
 Q-Chem 4.4.2 for Intel X86 Linux

User input:
--------------------------------------------------------------
$comment
SP
$end

$rem
MEM_STATIC 5000
MEM_TOTAL 20000
JOBTYPE SP
EXCHANGE B3LYP
BASIS 6-31g(d,p)
$end

$molecule
0 1
C          13.069000    -20.466000    -10.666000
C          12.951000    -19.269000    -11.325000
N          14.281000    -21.100000    -10.557000
C          14.046000    -18.641000    -11.873000
C          15.305000    -20.514000    -11.188000
C          15.277000    -19.264000    -11.786000
C          16.471000    -18.658000    -12.414000
C          16.548000    -17.228000    -12.688000
C          17.552000    -19.370000    -12.942000
N          17.569000    -16.650000    -13.206000
N          17.754000    -20.730000    -12.813000
C          18.639000    -18.746000    -13.549000
C          18.672000    -17.352000    -13.681000
S          19.109000    -21.111000    -13.617000
N          19.529000    -19.583000    -14.106000
C          19.841000    -16.616000    -14.198000
S          21.381000    -17.350000    -14.691000
C          19.963000    -15.261000    -14.401000
C          22.120000    -15.844000    -15.144000
S          18.900000    -13.994000    -13.861000
C          21.271000    -14.805000    -14.840000
C          23.499000    -15.818000    -15.489000
C          20.255000    -12.866000    -14.245000
C          21.355000    -13.401000    -14.852000
N          24.198000    -14.663000    -15.605000
S          24.401000    -17.226000    -15.877000
C          25.549000    -14.910000    -15.854000
C          25.836000    -16.208000    -15.816000
C          11.763000    -20.975000    -10.048000
H          12.058000    -18.653000    -11.280000
H          13.870000    -17.658000    -12.299000
H          16.275000    -21.007000    -11.147000
H          15.774000    -16.612000    -12.232000
H          20.068000    -11.847000    -13.933000
H          22.277000    -12.900000    -15.127000
H          26.272000    -14.122000    -16.017000
H          26.776000    -16.643000    -16.128000
H          11.448000    -20.325000     -9.222000
C          11.897000    -22.462000     -9.632000
H          10.901000    -20.964000    -10.726000
H          12.680000    -22.452000     -8.864000
H          12.245000    -23.203000    -10.363000
C          10.617000    -23.085000     -9.053000
H          10.212000    -22.313000     -8.388000
C          10.690000    -24.435000     -8.241000
H           9.928000    -23.245000     -9.891000
H          11.174000    -24.352000     -7.260000
H          11.349000    -25.198000     -8.675000
C           9.293000    -24.964000     -7.830000
H           8.603000    -25.003000     -8.682000
C           8.734000    -24.304000     -6.563000
H           9.437000    -26.013000     -7.544000
H           9.322000    -24.536000     -5.666000
H           7.684000    -24.607000     -6.466000
H           8.711000    -23.209000     -6.625000
C          13.782000    -20.241000     -6.411000
C          14.932000    -21.009000     -6.311000
N          13.737000    -19.155000     -7.226000
C          16.060000    -20.686000     -7.098000
C          14.759000    -18.830000     -8.009000
C          15.991000    -19.594000     -8.021000
C          17.214000    -19.167000     -8.782000
C          17.531000    -17.819000     -9.088000
C          18.315000    -20.077000     -9.209000
N          18.665000    -17.386000     -9.625000
N          18.301000    -21.383000     -8.963000
C          19.434000    -19.601000     -9.894000
C          19.641000    -18.247000    -10.103000
S          19.696000    -21.944000     -9.630000
N          20.238000    -20.565000    -10.330000
C          20.866000    -17.697000    -10.675000
S          22.198000    -18.615000    -11.275000
C          21.120000    -16.363000    -10.859000
C          23.195000    -17.246000    -11.658000
S          20.221000    -14.987000    -10.316000
C          22.402000    -16.125000    -11.369000
C          24.606000    -17.204000    -11.965000
C          21.398000    -13.989000    -11.147000
C          22.528000    -14.715000    -11.589000
N          25.128000    -18.358000    -12.323000
S          25.598000    -15.778000    -11.981000
C          26.350000    -18.097000    -12.887000
C          26.812000    -16.798000    -12.705000
C          12.701000    -20.548000     -5.370000
H          14.925000    -21.760000     -5.526000
H          16.981000    -21.249000     -6.975000
H          14.577000    -17.928000     -8.591000
H          16.806000    -17.048000     -8.831000
H          21.234000    -12.922000    -11.224000
H          23.357000    -14.213000    -12.074000
H          26.962000    -18.944000    -13.164000
H          27.802000    -16.399000    -12.885000
H          13.210000    -20.418000     -4.407000
C          12.108000    -21.975000     -5.533000
H          11.857000    -19.849000     -5.413000
H          12.816000    -22.808000     -5.614000
H          11.447000    -22.057000     -6.405000
C          11.121000    -22.231000     -4.344000
H          10.221000    -21.605000     -4.307000
C          11.844000    -22.250000     -2.945000
H          10.797000    -23.272000     -4.472000
H          12.320000    -21.285000     -2.729000
H          12.674000    -22.968000     -2.927000
C          10.880000    -22.603000     -1.832000
H           9.981000    -21.977000     -1.892000
C          11.487000    -22.638000     -0.376000
H          10.505000    -23.616000     -2.024000
H          12.392000    -23.258000     -0.381000
H          10.720000    -23.023000      0.307000
H          11.693000    -21.622000     -0.018000
$end

--------------------------------------------------------------

             Standard Nuclear Orientation (Angstroms)
    I     Atom           X                Y                Z
 ----------------------------------------------------------------
    1      C       4.8056797070     2.7213078385     0.0741381886
    2      C       4.0753779724     3.4377653558    -0.8392959920
    3      N       4.1956579177     1.8671585373     0.9579274099
    4      C       2.7086484928     3.3041505975    -0.9282376912
    5      C       2.8587790937     1.8378248957     0.9128991148
    6      C       2.0686209601     2.4577823297    -0.0421877420
    7      C       0.5953811947     2.3290823065    -0.0582157636
    8      C      -0.1865721052     2.6436435260    -1.2479658533
    9      C      -0.2013957795     2.0581131567     1.0580329423
   10      N      -1.4613578351     2.5240100733    -1.3218453491
   11      N       0.2665305612     1.7051589500     2.3084381837
   12      C      -1.5898972468     1.9764207070     0.9888663390
   13      C      -2.2525017787     2.1984015447    -0.2249823920
   14      S      -1.0129741579     1.5297091175     3.2880743560
   15      N      -2.2042621301     1.8278974414     2.1735243613
   16      C      -3.7044355033     2.0071329214    -0.4006262740
   17      S      -4.8247782890     1.4388110084     0.8544622670
   18      C      -4.4544526582     2.2309341950    -1.5317784553
   19      C      -6.2323500843     1.5202642522    -0.1611523302
   20      S      -3.8928981060     2.5353126828    -3.1500702154
   21      C      -5.8586148931     1.8687927633    -1.4384885756
   22      C      -7.4673863416     0.9993973217     0.3128994432
   23      C      -5.5808506959     2.1662752443    -3.6701590764
   24      C      -6.5041902410     1.9651502399    -2.6844274613
   25      N      -8.5319965535     0.7980330496    -0.5008201195
   26      S      -7.7723110129     0.6522745697     1.9661201605
   27      C      -9.5857511620     0.1895588814     0.1829718163
   28      C      -9.2535912691    -0.1333450830     1.4295751355
   29      C       6.3195820341     2.9325882462    -0.0263672020
   30      H       4.5265031551     3.9802546230    -1.6645968247
   31      H       2.2268570937     3.8454863640    -1.7366767030
   32      H       2.3415254476     1.1929601548     1.6215796717
   33      H       0.3793820229     2.7849479635    -2.1678555102
   34      H      -5.6998408140     2.1213856661    -4.7446358224
   35      H      -7.5503482469     1.6993876642    -2.7922869993
   36      H     -10.5417431683    -0.0232255609    -0.2764235091
   37      H      -9.9483177288    -0.4700376837     2.1873100752
   38      H       6.7065919560     2.5113588214    -0.9627379043
   39      C       7.0349967105     2.3751090785     1.2304461565
   40      H       6.6333895149     3.9826325385    -0.0685673099
   41      H       6.8178571545     1.3003441185     1.2031754008
   42      H       6.7076395575     2.6916281910     2.2290446473
   43      C       8.5562881940     2.5917649691     1.2528614905
   44      H       8.8813987855     2.3646994512     0.2306196630
   45      C       9.4601625546     1.7631304125     2.2446018355
   46      H       8.7282009333     3.6539204006     1.4646086265
   47      H       9.5477038515     0.6972685980     2.0001000694
   48      H       9.0531827327     1.6567522041     3.2584347120
   49      C      10.9481240206     2.1926050468     2.2010907535
   50      H      11.0641980622     3.2783296152     2.3071755233
   51      C      11.7377405323     1.5580488515     1.0490429249
   52      H      11.4113444361     1.7765911075     3.1040261050
   53      H      11.8330585267     0.4691429951     1.1458701717
   54      H      12.7113263491     2.0611436124     0.9966566790
   55      H      11.2754255635     1.7271986413     0.0687107270
   56      C       6.2980947069    -1.1085140282    -1.2559674229
   57      C       5.7857869152    -1.9322682725    -0.2653647419
   58      N       5.4795776572    -0.3192237962    -1.9994032098
   59      C       4.3993534724    -1.9214707987     0.0062373995
   60      C       4.1751743659    -0.2498134941    -1.7608402967
   61      C       3.5426578964    -1.0304089373    -0.7157289773
   62      C       2.0541414190    -1.0858266324    -0.5197020002
   63      C       1.1067384277    -0.8929197446    -1.5572199541
   64      C       1.3737936292    -1.4691195853     0.7502757150
   65      N      -0.2043038484    -1.0769244542    -1.4616981389
   66      N       2.0428608206    -1.7857370459     1.8541101578
   67      C      -0.0174672136    -1.5207069271     0.8487338962
   68      C      -0.8349076134    -1.3415927054    -0.2556008757
   69      S       0.8751606825    -2.1124833929     2.9655723533
   70      N      -0.4536524183    -1.7292045254     2.0865057728
   71      C      -2.2808246218    -1.5389603614    -0.2295429954
   72      S      -3.2206224271    -1.9176417313     1.1669986278
   73      C      -3.1134094440    -1.4093053155    -1.3102465083
   74      C      -4.7338051522    -2.0560081529     0.3267654614
   75      S      -2.7201208232    -1.1922128895    -2.9819584869
   76      C      -4.4438981072    -1.7200190019    -1.0044280616
   77      C      -5.9807984749    -2.6246356052     0.7834978487
   78      C      -4.4426222913    -1.1092207135    -3.2950000040
   79      C      -5.2280146899    -1.4795040806    -2.1790300186
   80      N      -6.0849954338    -2.7504610065     2.0895127652
   81      S      -7.3299485878    -3.0510256161    -0.2243620283
   82      C      -7.4061605270    -2.9804411115     2.3743512241
   83      C      -8.1999627269    -3.2707651025     1.2700147501
   84      C       7.7691792897    -1.3502638606    -1.6080443587
   85      H       6.4916414956    -2.6347475308     0.1688785113
   86      H       3.9891852833    -2.6108264500     0.7389650725
   87      H       3.6531259895     0.4131979071    -2.4488325747
   88      H       1.4722387585    -0.6044165039    -2.5417454176
   89      H      -4.7934189033    -0.8486507778    -4.2851308264
   90      H      -6.3086967445    -1.5214590377    -2.2485719371
   91      H      -7.6643246546    -3.1944038480     3.4020930354
   92      H      -9.2086544732    -3.6626561083     1.2442581871
   93      H       7.8093828900    -2.4115903114    -1.8824889529
   94      C       8.7248705899    -1.0114507568    -0.4305865805
   95      H       8.1048889146    -0.7571825428    -2.4673112545
   96      H       8.4857906050    -1.4382099871     0.5504492599
   97      H       8.8264468268     0.0694109928    -0.2710586947
   98      C      10.1773874518    -1.4224918682    -0.8485171617
   99      H      10.6257508755    -0.8685043219    -1.6823714889
  100      C      10.3335421497    -2.9748312363    -1.0633408026
  101      H      10.7871906931    -1.2311437219     0.0439888011
  102      H       9.6829770465    -3.3329993787    -1.8713863634
  103      H      10.0037931707    -3.5414109555    -0.1829993730
  104      C      11.7702595886    -3.3472254536    -1.3630732628
  105      H      12.1693382321    -2.7154706026    -2.1663783385
  106      C      12.0499620072    -4.8796825307    -1.6139753630
  107      H      12.3754700704    -3.0718183872    -0.4904168468
  108      H      11.6113328076    -5.4618460461    -0.7941338743
  109      H      13.1344413819    -5.0224227686    -1.6948005462
  110      H      11.6554603978    -5.1905895776    -2.5889426898
 ----------------------------------------------------------------

   10   -5663.5121009623      4.57E-06 Convergence criterion met
 Total energy in the final basis set = -5663.5121009623

                    Orbital Energies (a.u.)
 --------------------------------------------------------------

 Alpha MOs
 -- Occupied --
-88.988 -88.982 -88.930 -88.920 -88.917 -88.915 -88.907 -88.905
-14.382 -14.379 -14.378 -14.375 -14.346 -14.345 -14.340 -14.338
-14.327 -14.323 -10.266 -10.265 -10.261 -10.257 -10.254 -10.250
-10.247 -10.246 -10.240 -10.237 -10.235 -10.234 -10.233 -10.232
-10.230 -10.228 -10.227 -10.227 -10.226 -10.226 -10.225 -10.223
-10.223 -10.221 -10.220 -10.220 -10.219 -10.218 -10.212 -10.208
-10.206 -10.204 -10.204 -10.201 -10.198 -10.194 -10.190 -10.187
-10.186 -10.185 -10.185 -10.181 -10.177 -10.176 -10.176 -10.175
-10.175 -10.173 -10.171 -10.166  -8.043  -8.038  -7.991  -7.982
 -7.976  -7.974  -7.966  -7.965  -6.008  -6.003  -6.002  -6.001
 -5.997  -5.995  -5.955  -5.952  -5.948  -5.946  -5.942  -5.940
 -5.939  -5.938  -5.936  -5.935  -5.933  -5.931  -5.931  -5.929
 -5.927  -5.925  -5.923  -5.921  -1.040  -1.028  -0.973  -0.959
 -0.957  -0.948  -0.934  -0.930  -0.914  -0.908  -0.906  -0.892
 -0.843  -0.841  -0.831  -0.816  -0.811  -0.811  -0.806  -0.805
 -0.799  -0.797  -0.796  -0.788  -0.783  -0.782  -0.765  -0.761
 -0.751  -0.745  -0.740  -0.735  -0.718  -0.714  -0.708  -0.704
 -0.692  -0.688  -0.677  -0.672  -0.656  -0.653  -0.640  -0.639
 -0.633  -0.632  -0.620  -0.618  -0.609  -0.604  -0.598  -0.592
 -0.590  -0.586  -0.584  -0.580  -0.575  -0.573  -0.566  -0.561
 -0.549  -0.540  -0.537  -0.534  -0.521  -0.519  -0.514  -0.508
 -0.507  -0.501  -0.500  -0.496  -0.483  -0.482  -0.479  -0.471
 -0.469  -0.468  -0.465  -0.459  -0.459  -0.456  -0.447  -0.446
 -0.443  -0.442  -0.441  -0.435  -0.433  -0.433  -0.428  -0.426
 -0.424  -0.421  -0.419  -0.417  -0.416  -0.416  -0.413  -0.411
 -0.410  -0.404  -0.401  -0.399  -0.398  -0.396  -0.395  -0.394
 -0.391  -0.390  -0.387  -0.385  -0.384  -0.382  -0.380  -0.380
 -0.379  -0.376  -0.374  -0.374  -0.365  -0.363  -0.355  -0.353
 -0.352  -0.351  -0.349  -0.348  -0.344  -0.341  -0.340  -0.336
 -0.334  -0.332  -0.330  -0.327  -0.326  -0.323  -0.321  -0.312
 -0.309  -0.308  -0.305  -0.303  -0.302  -0.299  -0.298  -0.298
 -0.296  -0.294  -0.291  -0.288  -0.284  -0.280  -0.277  -0.271
 -0.266  -0.266  -0.263  -0.259  -0.259  -0.245  -0.244  -0.241
 -0.241  -0.232  -0.226  -0.222  -0.193  -0.184

          Ground-State Mulliken Net Atomic Charges

     Atom                 Charge (a.u.)
  ----------------------------------------
      1 C                     0.290779
      2 C                    -0.112771
      3 N                    -0.498447
      4 C                    -0.083125
      5 C                     0.076786
      6 C                     0.063092
      7 C                     0.004310
      8 C                     0.087152
      9 C                     0.228575
     10 N                    -0.512576
     11 N                    -0.565836
     12 C                     0.205270
     13 C                     0.302797
     14 S                     0.628315
     15 N                    -0.574229
     16 C                    -0.208364
     17 S                     0.338700
     18 C                    -0.132490
     19 C                    -0.240102
     20 S                     0.287805
     21 C                     0.162200
     22 C                     0.071589
     23 C                    -0.315217
     24 C                    -0.046010
     25 N                    -0.469805
     26 S                     0.272540
     27 C                     0.125991
     28 C                    -0.289296
     29 C                    -0.255597
     30 H                     0.085461
     31 H                     0.095854
     32 H                     0.130036
     33 H                     0.105911
     34 H                     0.120246
     35 H                     0.129388
     36 H                     0.115775
     37 H                     0.115415
     38 H                     0.132270
     39 C                    -0.181875
     40 H                     0.109825
     41 H                     0.115464
     42 H                     0.101043
     43 C                    -0.175305
     44 H                     0.085725
     45 C                    -0.187216
     46 H                     0.086135
     47 H                     0.088276
     48 H                     0.087530
     49 C                    -0.178641
     50 H                     0.091816
     51 C                    -0.320300
     52 H                     0.090795
     53 H                     0.108380
     54 H                     0.100270
     55 H                     0.103706
     56 C                     0.280913
     57 C                    -0.105833
     58 N                    -0.499470
     59 C                    -0.064381
     60 C                     0.079877
     61 C                     0.033763
     62 C                     0.041494
     63 C                     0.061552
     64 C                     0.228309
     65 N                    -0.539124
     66 N                    -0.556132
     67 C                     0.226418
     68 C                     0.308074
     69 S                     0.584473
     70 N                    -0.582535
     71 C                    -0.226860
     72 S                     0.360113
     73 C                    -0.109423
     74 C                    -0.198956
     75 S                     0.308441
     76 C                     0.114931
     77 C                     0.057694
     78 C                    -0.296009
     79 C                    -0.104369
     80 N                    -0.417425
     81 S                     0.294182
     82 C                     0.109857
     83 C                    -0.300921
     84 C                    -0.230720
     85 H                     0.087332
     86 H                     0.119202
     87 H                     0.101769
     88 H                     0.106303
     89 H                     0.121935
     90 H                     0.116362
     91 H                     0.109939
     92 H                     0.129263
     93 H                     0.120287
     94 C                    -0.195649
     95 H                     0.111658
     96 H                     0.102599
     97 H                     0.118778
     98 C                    -0.193971
     99 H                     0.096288
    100 C                    -0.168738
    101 H                     0.095106
    102 H                     0.090451
    103 H                     0.085170
    104 C                    -0.178184
    105 H                     0.089662
    106 C                    -0.322411
    107 H                     0.090233
    108 H                     0.103936
    109 H                     0.102672
    110 H                     0.104050
  ----------------------------------------
  Sum of atomic charges =     0.000000

                    Cartesian Multipole Moments
 -----------------------------------------------------------------
    Charge (ESU x 10^10)
                 0.0000
    Dipole Moment (Debye)
         X      -2.2594      Y      -1.6482      Z      -0.0936
       Tot       2.7983
    Quadrupole Moments (Debye-Ang)
        XX    -385.2079     XY      15.3263     YY    -443.4978
        XZ      -3.7684     YZ      -8.2371     ZZ    -431.6996

 Total job time:  124.58s(wall), 1471.68s(cpu)
        *  Thank you very much for using Q-Chem.  Have a nice day.  *
