 Q-Chem 4.4, Q-Chem, Inc., Pleasanton, CA (2016)
 Q-Chem 4.4.2 for Intel X86 Linux

User input:
--------------------------------------------------------------
$comment
SP
$end

$rem
MEM_STATIC 5000
MEM_TOTAL 20000
JOBTYPE SP
EXCHANGE B3LYP
BASIS 6-31g(d,p)
$end

$molecule
0 1
C          10.731000    -16.110000     -9.583000
C          11.285000    -17.075000     -8.832000
N           9.403000    -15.812000     -9.464000
C          10.567000    -17.860000     -7.862000
C           8.674000    -16.475000     -8.544000
C           9.188000    -17.516000     -7.737000
C           8.357000    -18.457000     -6.922000
C           8.674000    -19.784000     -6.629000
C           7.155000    -18.013000     -6.240000
N           8.001000    -20.588000     -5.728000
N           6.661000    -16.810000     -6.325000
C           6.381000    -18.842000     -5.432000
C           6.850000    -20.158000     -5.181000
S           5.170000    -16.840000     -5.702000
N           5.221000    -18.317000     -4.938000
C           6.243000    -21.158000     -4.344000
S           7.265000    -22.441000     -3.565000
C           4.901000    -21.474000     -4.194000
C           5.837000    -23.204000     -2.842000
S           3.468000    -20.681000     -4.766000
C           4.703000    -22.610000     -3.361000
C           5.880000    -24.118000     -1.803000
C           2.592000    -21.835000     -3.731000
C           3.346000    -22.703000     -2.956000
N           4.909000    -25.084000     -1.731000
S           7.381000    -24.515000     -0.971000
C           5.273000    -25.989000     -0.712000
C           6.539000    -25.793000     -0.217000
C          11.400000    -15.347000    -10.685000
H          12.326000    -17.299000     -9.049000
H          11.154000    -18.601000     -7.327000
H           7.627000    -16.175000     -8.566000
H           9.603000    -20.162000     -7.052000
H           1.513000    -21.826000     -3.806000
H           3.001000    -23.372000     -2.176000
H           4.587000    -26.781000     -0.442000
H           7.079000    -26.436000      0.465000
H          11.675000    -16.048000    -11.482000
C          12.674000    -14.499000    -10.337000
H          10.704000    -14.700000    -11.232000
H          12.559000    -13.831000     -9.474000
H          12.786000    -13.881000    -11.236000
C          14.044000    -15.228000    -10.077000
H          14.020000    -15.759000     -9.118000
C          15.301000    -14.327000    -10.192000
H          14.211000    -15.994000    -10.845000
H          16.212000    -14.879000     -9.929000
H          15.171000    -13.523000     -9.458000
C          15.559000    -13.590000    -11.559000
H          15.888000    -14.339000    -12.290000
C          16.626000    -12.541000    -11.437000
H          14.589000    -13.167000    -11.847000
H          17.584000    -13.061000    -11.312000
H          16.585000    -11.962000    -10.506000
H          16.700000    -11.774000    -12.217000
C          13.782000    -20.241000     -6.411000
C          14.932000    -21.009000     -6.311000
N          13.737000    -19.155000     -7.226000
C          16.060000    -20.686000     -7.098000
C          14.759000    -18.830000     -8.009000
C          15.991000    -19.594000     -8.021000
C          17.214000    -19.167000     -8.782000
C          17.531000    -17.819000     -9.088000
C          18.315000    -20.077000     -9.209000
N          18.665000    -17.386000     -9.625000
N          18.301000    -21.383000     -8.963000
C          19.434000    -19.601000     -9.894000
C          19.641000    -18.247000    -10.103000
S          19.696000    -21.944000     -9.630000
N          20.238000    -20.565000    -10.330000
C          20.866000    -17.697000    -10.675000
S          22.198000    -18.615000    -11.275000
C          21.120000    -16.363000    -10.859000
C          23.195000    -17.246000    -11.658000
S          20.221000    -14.987000    -10.316000
C          22.402000    -16.125000    -11.369000
C          24.606000    -17.204000    -11.965000
C          21.398000    -13.989000    -11.147000
C          22.528000    -14.715000    -11.589000
N          25.128000    -18.358000    -12.323000
S          25.598000    -15.778000    -11.981000
C          26.350000    -18.097000    -12.887000
C          26.812000    -16.798000    -12.705000
C          12.701000    -20.548000     -5.370000
H          14.925000    -21.760000     -5.526000
H          16.981000    -21.249000     -6.975000
H          14.577000    -17.928000     -8.591000
H          16.806000    -17.048000     -8.831000
H          21.234000    -12.922000    -11.224000
H          23.357000    -14.213000    -12.074000
H          26.962000    -18.944000    -13.164000
H          27.802000    -16.399000    -12.885000
H          13.210000    -20.418000     -4.407000
C          12.108000    -21.975000     -5.533000
H          11.857000    -19.849000     -5.413000
H          12.816000    -22.808000     -5.614000
H          11.447000    -22.057000     -6.405000
C          11.121000    -22.231000     -4.344000
H          10.221000    -21.605000     -4.307000
C          11.844000    -22.250000     -2.945000
H          10.797000    -23.272000     -4.472000
H          12.320000    -21.285000     -2.729000
H          12.674000    -22.968000     -2.927000
C          10.880000    -22.603000     -1.832000
H           9.981000    -21.977000     -1.892000
C          11.487000    -22.638000     -0.376000
H          10.505000    -23.616000     -2.024000
H          12.392000    -23.258000     -0.381000
H          10.720000    -23.023000      0.307000
H          11.693000    -21.622000     -0.018000
$end

--------------------------------------------------------------

             Standard Nuclear Orientation (Angstroms)
    I     Atom           X                Y                Z
 ----------------------------------------------------------------
    1      C      -0.6073880134    -4.5017139352     0.7391220323
    2      C      -0.6950775131    -3.1779672642     0.5338239496
    3      N      -1.7328066413    -5.2751047018     0.7821177765
    4      C      -1.9325467826    -2.4675364602     0.3424947049
    5      C      -2.9268540432    -4.6873819842     0.5670763633
    6      C      -3.0927494310    -3.2975512190     0.3671384621
    7      C      -4.4038549410    -2.5769325505     0.4116140339
    8      C      -4.5990996142    -1.2591625745     0.8271002646
    9      C      -5.6188417286    -3.1777830942    -0.1078565909
   10      N      -5.7733930569    -0.5423527424     0.6915843061
   11      N      -5.6973615963    -4.3886666823    -0.5833201189
   12      C      -6.8482044799    -2.5241193154    -0.1317708147
   13      C      -6.8908820208    -1.1655045318     0.2770842905
   14      S      -7.2624419571    -4.7639289306    -0.7310079965
   15      N      -7.9263331921    -3.2488413684    -0.5532888164
   16      C      -8.0321663977    -0.2900485095     0.2851294268
   17      S      -7.8084180989     1.5048129305     0.1244337207
   18      C      -9.3434021185    -0.5678621668     0.6412199438
   19      C      -9.5526425302     1.7824127997     0.2816006566
   20      S     -10.1394313414    -2.0679708309     0.9955269748
   21      C     -10.1633989943     0.5945229363     0.6338040265
   22      C     -10.1920696574     2.9596107684    -0.0678330159
   23      C     -11.6380071644    -1.1064388121     0.9889179175
   24      C     -11.5367556919     0.2381772184     0.6659305027
   25      N     -11.3182868682     3.3305957999     0.6215042750
   26      S      -9.3429401283     4.2820933456    -0.8633535221
   27      C     -11.6681785273     4.6338439710     0.2104057085
   28      C     -10.7260475779     5.2409311441    -0.5833394890
   29      C       0.6373828844    -5.2709147837     1.0600729113
   30      H       0.2417507962    -2.6306162055     0.5946970755
   31      H      -1.8419946310    -1.3970946403     0.1817787505
   32      H      -3.7483304934    -5.3969118580     0.6589284173
   33      H      -3.7130312758    -0.7239047119     1.1636057180
   34      H     -12.5410601508    -1.6203204050     1.2895306453
   35      H     -12.3399296226     0.9419494873     0.4799137545
   36      H     -12.5848013489     5.0739440571     0.5803712704
   37      H     -10.7126035318     6.2735230370    -0.9054361210
   38      H       1.0285881140    -4.9217076863     2.0230100180
   39      C       1.8189272166    -5.2403665279     0.0274530418
   40      H       0.4326435061    -6.3195286979     1.3064966239
   41      H       1.5302304000    -5.4654222065    -1.0070623470
   42      H       2.4565555495    -6.0555418296     0.3902041085
   43      C       2.7084234752    -3.9482521318    -0.0957451454
   44      H       2.1446941135    -3.1387016260    -0.5743422466
   45      C       4.0841156760    -4.1592210843    -0.7798782244
   46      H       2.9766231778    -3.5828815827     0.9037758806
   47      H       4.6200498792    -3.2091377376    -0.8978195832
   48      H       3.8723093134    -4.5526255804    -1.7810989629
   49      C       5.0768104331    -5.1986850921    -0.1376215034
   50      H       5.4745503497    -4.7601093479     0.7859894945
   51      C       6.2263774403    -5.5130669847    -1.0505474159
   52      H       4.4664307128    -6.0824163547     0.0842538052
   53      H       6.8696316141    -4.6249191381    -1.0852816972
   54      H       5.9500166324    -5.6064622878    -2.1081792144
   55      H       6.8198485544    -6.4143346726    -0.8564505548
   56      C      -0.3746900951     1.4467455385    -0.2593906459
   57      C       0.3809605636     2.6066460421    -0.1822744751
   58      N       0.2136248407     0.2245122031    -0.1840433825
   59      C       1.7765385510     2.5206410366     0.0203266605
   60      C       1.5159906083     0.0918451658     0.0383096356
   61      C       2.3910784025     1.2383059799     0.1849825848
   62      C       3.8854038988     1.1221392050     0.2883053384
   63      C       4.6421827336     0.0617404302    -0.2721134634
   64      C       4.7833699763     2.1551722611     0.8791772609
   65      N       5.9664257594    -0.0056332902    -0.3325716338
   66      N       4.3259778153     3.2908378066     1.3962886414
   67      C       6.1681821454     1.9856304241     0.9180722728
   68      C       6.7901433591     0.9121512923     0.3011016072
   69      S       5.6716435618     4.0761434680     1.9236535218
   70      N       6.7979007702     2.9270099965     1.6131024550
   71      C       8.2387580659     0.7772287529     0.1843953967
   72      S       9.4081113682     1.8467867928     0.8667490102
   73      C       8.8857710093    -0.2492491537    -0.4525075459
   74      C      10.7933319544     1.0375215813     0.2025858187
   75      S       8.2362429418    -1.5162364130    -1.4370290409
   76      C      10.2761578414    -0.0849244730    -0.4619868198
   77      C      12.1589580244     1.4988823673     0.1069528635
   78      C       9.8694638723    -2.1363478284    -1.5782566047
   79      C      10.8470602903    -1.2432578815    -1.0822368570
   80      N      12.4612320606     2.4995566295     0.9067312253
   81      S      13.4001398540     0.7940745824    -0.8832540100
   82      C      13.8282794851     2.5967459325     0.9418962468
   83      C      14.4925800119     1.8414615493    -0.0184262566
   84      C      -1.8322707671     1.6459612558    -0.6863129840
   85      H      -0.1522491601     3.5267798416    -0.4043469443
   86      H       2.3772572671     3.4258893055     0.0190634174
   87      H       1.8390513907    -0.9477357792     0.0571561175
   88      H       4.1059930397    -0.7652957259    -0.7353917908
   89      H      10.0385727692    -3.0901553471    -2.0609235686
   90      H      11.9025835793    -1.4784795642    -1.1530277207
   91      H      14.2548866610     3.4261995873     1.4884261654
   92      H      15.5324872436     1.8855884348    -0.3156580976
   93      H      -1.7619350095     2.1657954033    -1.6497315536
   94      C      -2.6518158155     2.4532918087     0.3582492650
   95      H      -2.3642516631     0.6995083468    -0.8412620634
   96      H      -2.2207492824     3.3951193231     0.7172152483
   97      H      -2.8799286472     1.8659341121     1.2565835415
   98      C      -4.0767751334     2.7146515835    -0.2372404583
   99      H      -4.7101820739     1.8347841176    -0.4041952131
  100      C      -4.0432485332     3.6280991709    -1.5197304084
  101      H      -4.5765017285     3.3477053632     0.5074455441
  102      H      -3.4684758859     3.1590241801    -2.3284714405
  103      H      -3.5178631947     4.5731520905    -1.3310687401
  104      C      -5.4415898851     3.9453483518    -2.0062161952
  105      H      -6.0332652877     3.0257345024    -2.0951408037
  106      C      -5.5369949227     4.8440164091    -3.2996239428
  107      H      -5.9513197854     4.5071097926    -1.2135892260
  108      H      -4.9111572288     5.7345680231    -3.1628942684
  109      H      -6.5914858830     5.0954376940    -3.4664746309
  110      H      -5.2431704561     4.2741419078    -4.1894364149
 ----------------------------------------------------------------

   10   -5663.5115766577      3.65E-06 Convergence criterion met
 Total energy in the final basis set = -5663.5115766577

                    Orbital Energies (a.u.)
 --------------------------------------------------------------

 Alpha MOs
 -- Occupied --
-88.988 -88.985 -88.936 -88.925 -88.924 -88.917 -88.914 -88.911
-14.390 -14.388 -14.385 -14.378 -14.351 -14.349 -14.346 -14.345
-14.336 -14.319 -10.272 -10.264 -10.263 -10.260 -10.257 -10.255
-10.252 -10.252 -10.243 -10.241 -10.239 -10.237 -10.237 -10.236
-10.235 -10.234 -10.233 -10.233 -10.231 -10.231 -10.229 -10.229
-10.228 -10.227 -10.225 -10.224 -10.224 -10.220 -10.216 -10.216
-10.215 -10.212 -10.209 -10.207 -10.206 -10.200 -10.196 -10.194
-10.189 -10.186 -10.185 -10.183 -10.183 -10.178 -10.178 -10.177
-10.175 -10.174 -10.174 -10.169  -8.044  -8.041  -7.997  -7.987
 -7.983  -7.976  -7.974  -7.971  -6.009  -6.006  -6.003  -6.001
 -6.000  -5.998  -5.961  -5.958  -5.954  -5.950  -5.948  -5.947
 -5.944  -5.944  -5.940  -5.940  -5.938  -5.937  -5.936  -5.935
 -5.932  -5.932  -5.930  -5.927  -1.045  -1.043  -0.978  -0.955
 -0.954  -0.951  -0.942  -0.928  -0.920  -0.912  -0.909  -0.903
 -0.851  -0.840  -0.826  -0.823  -0.817  -0.812  -0.810  -0.807
 -0.804  -0.800  -0.796  -0.791  -0.786  -0.781  -0.767  -0.761
 -0.750  -0.747  -0.742  -0.741  -0.725  -0.716  -0.711  -0.710
 -0.693  -0.693  -0.678  -0.672  -0.657  -0.654  -0.647  -0.641
 -0.639  -0.637  -0.628  -0.621  -0.611  -0.610  -0.604  -0.597
 -0.596  -0.586  -0.585  -0.583  -0.580  -0.577  -0.566  -0.558
 -0.551  -0.547  -0.544  -0.541  -0.525  -0.521  -0.519  -0.511
 -0.510  -0.506  -0.504  -0.498  -0.491  -0.479  -0.478  -0.475
 -0.473  -0.472  -0.469  -0.463  -0.463  -0.460  -0.451  -0.448
 -0.445  -0.442  -0.440  -0.438  -0.435  -0.431  -0.427  -0.425
 -0.425  -0.422  -0.421  -0.420  -0.418  -0.417  -0.415  -0.413
 -0.411  -0.407  -0.405  -0.404  -0.403  -0.398  -0.396  -0.395
 -0.394  -0.393  -0.391  -0.390  -0.388  -0.386  -0.384  -0.383
 -0.381  -0.379  -0.378  -0.377  -0.367  -0.363  -0.361  -0.360
 -0.358  -0.357  -0.355  -0.349  -0.347  -0.346  -0.343  -0.342
 -0.341  -0.337  -0.335  -0.331  -0.326  -0.323  -0.320  -0.315
 -0.314  -0.312  -0.310  -0.307  -0.307  -0.302  -0.302  -0.301
 -0.299  -0.298  -0.293  -0.290  -0.289  -0.289  -0.281  -0.278
 -0.273  -0.272  -0.269  -0.263  -0.255  -0.254  -0.252  -0.246
 -0.246  -0.241  -0.231  -0.229  -0.195  -0.188

          Ground-State Mulliken Net Atomic Charges

     Atom                 Charge (a.u.)
  ----------------------------------------
      1 C                     0.290720
      2 C                    -0.117964
      3 N                    -0.493136
      4 C                    -0.085737
      5 C                     0.093772
      6 C                     0.019259
      7 C                     0.076528
      8 C                     0.037477
      9 C                     0.234638
     10 N                    -0.533679
     11 N                    -0.539424
     12 C                     0.213082
     13 C                     0.286435
     14 S                     0.590907
     15 N                    -0.560467
     16 C                    -0.231632
     17 S                     0.311868
     18 C                    -0.106450
     19 C                    -0.199768
     20 S                     0.288652
     21 C                     0.129210
     22 C                     0.012188
     23 C                    -0.307247
     24 C                    -0.046297
     25 N                    -0.428014
     26 S                     0.289668
     27 C                     0.115659
     28 C                    -0.308418
     29 C                    -0.243367
     30 H                     0.085580
     31 H                     0.134737
     32 H                     0.117502
     33 H                     0.107500
     34 H                     0.122683
     35 H                     0.128121
     36 H                     0.116107
     37 H                     0.132321
     38 H                     0.109387
     39 C                    -0.181771
     40 H                     0.123481
     41 H                     0.103069
     42 H                     0.099981
     43 C                    -0.193026
     44 H                     0.097903
     45 C                    -0.196617
     46 H                     0.087373
     47 H                     0.105140
     48 H                     0.089609
     49 C                    -0.171887
     50 H                     0.099065
     51 C                    -0.325862
     52 H                     0.096169
     53 H                     0.110696
     54 H                     0.098290
     55 H                     0.100696
     56 C                     0.284372
     57 C                    -0.110562
     58 N                    -0.509836
     59 C                    -0.064064
     60 C                     0.086602
     61 C                     0.011336
     62 C                     0.043279
     63 C                     0.066256
     64 C                     0.222425
     65 N                    -0.545961
     66 N                    -0.558937
     67 C                     0.219831
     68 C                     0.319199
     69 S                     0.591150
     70 N                    -0.568856
     71 C                    -0.224711
     72 S                     0.367412
     73 C                    -0.117330
     74 C                    -0.200587
     75 S                     0.306086
     76 C                     0.115564
     77 C                     0.055762
     78 C                    -0.306952
     79 C                    -0.101546
     80 N                    -0.414308
     81 S                     0.290868
     82 C                     0.111703
     83 C                    -0.309501
     84 C                    -0.234560
     85 H                     0.094471
     86 H                     0.123462
     87 H                     0.105539
     88 H                     0.111684
     89 H                     0.128924
     90 H                     0.109949
     91 H                     0.115438
     92 H                     0.136422
     93 H                     0.125037
     94 C                    -0.195553
     95 H                     0.112759
     96 H                     0.100465
     97 H                     0.108350
     98 C                    -0.196170
     99 H                     0.125190
    100 C                    -0.171169
    101 H                     0.093189
    102 H                     0.086664
    103 H                     0.081291
    104 C                    -0.185090
    105 H                     0.103309
    106 C                    -0.326600
    107 H                     0.094431
    108 H                     0.101709
    109 H                     0.103521
    110 H                     0.103939
  ----------------------------------------
  Sum of atomic charges =     0.000000

                    Cartesian Multipole Moments
 -----------------------------------------------------------------
    Charge (ESU x 10^10)
                 0.0000
    Dipole Moment (Debye)
         X       3.1672      Y       2.8510      Z      -1.7143
       Tot       4.5933
    Quadrupole Moments (Debye-Ang)
        XX    -362.8267     XY     -11.4641     YY    -426.2255
        XZ      -5.6156     YZ      -1.3954     ZZ    -454.6741

 Total job time:  93.97s(wall), 1124.33s(cpu)
        *  Thank you very much for using Q-Chem.  Have a nice day.  *
