 Q-Chem 4.4, Q-Chem, Inc., Pleasanton, CA (2016)
 Q-Chem 4.4.2 for Intel X86 Linux

User input:
--------------------------------------------------------------
$comment
SP
$end

$rem
MEM_STATIC 5000
MEM_TOTAL 20000
JOBTYPE SP
EXCHANGE B3LYP
BASIS 6-31g(d,p)
$end

$molecule
0 1
C          21.480000    -21.648000    -16.526000
C          21.115000    -22.871000    -16.023000
N          22.233000    -20.835000    -15.782000
C          21.615000    -23.388000    -14.807000
C          22.809000    -21.326000    -14.675000
C          22.551000    -22.564000    -14.120000
C          23.170000    -22.977000    -12.822000
C          22.509000    -23.899000    -12.029000
C          24.512000    -22.700000    -12.444000
N          22.982000    -24.395000    -10.941000
N          25.413000    -21.923000    -13.161000
C          24.994000    -23.219000    -11.278000
C          24.183000    -24.059000    -10.480000
S          26.797000    -22.028000    -12.237000
N          26.287000    -22.964000    -10.969000
C          24.533000    -24.515000     -9.160000
S          26.080000    -24.241000     -8.378000
C          23.774000    -25.441000     -8.465000
C          25.572000    -25.104000     -6.919000
S          22.179000    -26.068000     -8.740000
C          24.351000    -25.757000     -7.230000
C          26.226000    -25.415000     -5.729000
C          22.431000    -27.021000     -7.250000
C          23.553000    -26.700000     -6.566000
N          26.946000    -24.467000     -5.302000
S          26.339000    -26.909000     -4.866000
C          27.840000    -24.891000     -4.270000
C          27.714000    -26.214000     -3.987000
C          21.036000    -21.175000    -17.853000
H          20.571000    -23.559000    -16.664000
H          21.374000    -24.365000    -14.400000
H          23.376000    -20.508000    -14.234000
H          21.481000    -24.209000    -12.213000
H          21.632000    -27.677000     -6.929000
H          23.708000    -27.107000     -5.573000
H          28.408000    -24.245000     -3.614000
H          28.188000    -26.848000     -3.249000
H          21.812000    -20.477000    -18.192000
C          19.721000    -20.309000    -17.855000
H          21.001000    -21.959000    -18.619000
H          19.517000    -20.005000    -18.890000
H          19.872000    -19.474000    -17.160000
C          18.470000    -21.045000    -17.428000
H          18.454000    -22.004000    -17.959000
C          17.239000    -20.161000    -17.616000
H          18.615000    -21.404000    -16.401000
H          17.278000    -19.593000    -18.554000
H          17.201000    -19.352000    -16.875000
C          15.922000    -20.982000    -17.529000
H          15.016000    -20.381000    -17.669000
C          15.599000    -21.556000    -16.127000
H          15.939000    -21.753000    -18.309000
H          16.407000    -22.115000    -15.637000
H          14.774000    -22.272000    -16.225000
H          15.220000    -20.787000    -15.443000
C          13.782000    -20.241000     -6.411000
C          14.932000    -21.009000     -6.311000
N          13.737000    -19.155000     -7.226000
C          16.060000    -20.686000     -7.098000
C          14.759000    -18.830000     -8.009000
C          15.991000    -19.594000     -8.021000
C          17.214000    -19.167000     -8.782000
C          17.531000    -17.819000     -9.088000
C          18.315000    -20.077000     -9.209000
N          18.665000    -17.386000     -9.625000
N          18.301000    -21.383000     -8.963000
C          19.434000    -19.601000     -9.894000
C          19.641000    -18.247000    -10.103000
S          19.696000    -21.944000     -9.630000
N          20.238000    -20.565000    -10.330000
C          20.866000    -17.697000    -10.675000
S          22.198000    -18.615000    -11.275000
C          21.120000    -16.363000    -10.859000
C          23.195000    -17.246000    -11.658000
S          20.221000    -14.987000    -10.316000
C          22.402000    -16.125000    -11.369000
C          24.606000    -17.204000    -11.965000
C          21.398000    -13.989000    -11.147000
C          22.528000    -14.715000    -11.589000
N          25.128000    -18.358000    -12.323000
S          25.598000    -15.778000    -11.981000
C          26.350000    -18.097000    -12.887000
C          26.812000    -16.798000    -12.705000
C          12.701000    -20.548000     -5.370000
H          14.925000    -21.760000     -5.526000
H          16.981000    -21.249000     -6.975000
H          14.577000    -17.928000     -8.591000
H          16.806000    -17.048000     -8.831000
H          21.234000    -12.922000    -11.224000
H          23.357000    -14.213000    -12.074000
H          26.962000    -18.944000    -13.164000
H          27.802000    -16.399000    -12.885000
H          13.210000    -20.418000     -4.407000
C          12.108000    -21.975000     -5.533000
H          11.857000    -19.849000     -5.413000
H          12.816000    -22.808000     -5.614000
H          11.447000    -22.057000     -6.405000
C          11.121000    -22.231000     -4.344000
H          10.221000    -21.605000     -4.307000
C          11.844000    -22.250000     -2.945000
H          10.797000    -23.272000     -4.472000
H          12.320000    -21.285000     -2.729000
H          12.674000    -22.968000     -2.927000
C          10.880000    -22.603000     -1.832000
H           9.981000    -21.977000     -1.892000
C          11.487000    -22.638000     -0.376000
H          10.505000    -23.616000     -2.024000
H          12.392000    -23.258000     -0.381000
H          10.720000    -23.023000      0.307000
H          11.693000    -21.622000     -0.018000
$end

--------------------------------------------------------------

             Standard Nuclear Orientation (Angstroms)
    I     Atom           X                Y                Z
 ----------------------------------------------------------------
    1      C      -3.4734404940     4.1944163946     3.5195278551
    2      C      -2.9609254914     3.2285239772     4.3479861884
    3      N      -3.7508114893     3.8856858167     2.2509598588
    4      C      -2.8431081694     1.8712717600     3.9739133380
    5      C      -3.7505681566     2.5945458508     1.8886567683
    6      C      -3.3080181924     1.5442429588     2.6685582776
    7      C      -3.2518744376     0.1487594985     2.1318947042
    8      C      -2.3297780698    -0.7359529098     2.6637558168
    9      C      -4.2416056863    -0.4338269424     1.2942777905
   10      N      -2.2481895856    -1.9796928311     2.3476176709
   11      N      -5.3442299689     0.2232671646     0.7631789052
   12      C      -4.1317814318    -1.7502291974     0.9533016387
   13      C      -3.0722593516    -2.5352791163     1.4644127681
   14      S      -6.1263844859    -0.9938585869    -0.0657337660
   15      N      -5.1120442841    -2.2794061948     0.1842688397
   16      C      -2.7708186748    -3.8760573655     1.0351305709
   17      S      -3.7490727664    -4.8216085478    -0.0733643069
   18      C      -1.8092467945    -4.6582908341     1.6516306274
   19      C      -2.6429770561    -6.1998353448     0.0191406971
   20      S      -0.5616840495    -4.2697632913     2.7941771453
   21      C      -1.7423431394    -5.9353016183     1.0834956452
   22      C      -2.6649482770    -7.4693526462    -0.5539038796
   23      C      -0.1125564314    -5.9965759333     2.7035378498
   24      C      -0.7618581471    -6.6917527640     1.7418115603
   25      N      -3.0586130943    -7.4589868968    -1.7557164951
   26      S      -2.4122305204    -9.0264374156     0.1540472179
   27      C      -3.3709879633    -8.7701426211    -2.2325063944
   28      C      -3.1769350934    -9.7253089527    -1.2857779419
   29      C      -3.6949011243     5.5841068831     3.9684259902
   30      H      -2.8135755187     3.4645140032     5.3981088923
   31      H      -2.4756983267     1.0778626674     4.6171636930
   32      H      -4.0080857670     2.5712484592     0.8311900257
   33      H      -1.5252799743    -0.4239108828     3.3287013694
   34      H       0.7170256310    -6.3351063645     3.3109658282
   35      H      -0.4423473987    -7.7002173891     1.5038305071
   36      H      -3.5339392771    -9.0507674139    -3.2644814885
   37      H      -3.2677499151   -10.8034424862    -1.3114051166
   38      H      -4.5111855827     5.9690506356     3.3440871476
   39      C      -2.5062152177     6.5792866076     3.6930569083
   40      H      -4.0581400721     5.6688840202     4.9996908950
   41      H      -2.8065660538     7.5730287756     4.0501603649
   42      H      -2.2767096899     6.5343255140     2.6214428393
   43      C      -1.2319809989     6.2788326543     4.4513975822
   44      H      -1.5070988538     6.0837805452     5.4945480222
   45      C      -0.2047743989     7.3872711780     4.2314620455
   46      H      -0.8856792547     5.2787124455     4.1607609191
   47      H      -0.6625192709     8.3842880000     4.2518602986
   48      H       0.2117428380     7.3615356106     3.2161507278
   49      C       0.9627604154     7.3012929220     5.2539928259
   50      H       1.7160784592     8.0883009847     5.1324723161
   51      C       1.8902979929     6.0718875613     5.0877234623
   52      H       0.5476562265     7.3852673888     6.2658064458
   53      H       1.3909595648     5.0960530691     5.0256494886
   54      H       2.5414652617     6.0048669386     5.9677089305
   55      H       2.5780201276     6.1847188239     4.2408672929
   56      C       8.1521686576     0.5965147662    -0.4114254294
   57      C       7.1588748002    -0.3502079630    -0.2129124905
   58      N       7.8466944221     1.8487402363    -0.8406839335
   59      C       5.8058893952     0.0013568364    -0.4176432547
   60      C       6.5888835167     2.2366243514    -1.0157714534
   61      C       5.4704659297     1.3427198483    -0.7883053232
   62      C       4.0503174802     1.7045328915    -1.1191356470
   63      C       3.6783770766     2.6227725560    -2.1338894373
   64      C       2.8443808686     1.0649714814    -0.5197125147
   65      N       2.4430750139     2.8605422843    -2.5573376282
   66      N       2.9230482414     0.1063113340     0.3974189732
   67      C       1.5536523950     1.4394825374    -0.8961743006
   68      C       1.3247177799     2.3316519840    -1.9312919850
   69      S       1.3581405590    -0.2569030228     0.7506529985
   70      N       0.6024861228     0.8800916943    -0.1557875049
   71      C      -0.0026932986     2.6323966011    -2.4583987144
   72      S      -1.4941868610     2.0284944834    -1.8357453714
   73      C      -0.2618531895     3.4778542397    -3.5052824387
   74      C      -2.4997517385     2.7707318446    -3.0410594288
   75      S       0.8395629437     4.2437936709    -4.5991952730
   76      C      -1.6219929953     3.5256654536    -3.8339187067
   77      C      -3.8844912796     2.5094335145    -3.3591059442
   78      C      -0.5513215939     5.0166636937    -5.3340463674
   79      C      -1.7827702438     4.4884857980    -4.8824909077
   80      N      -4.5580185327     1.8807710903    -2.4191545647
   81      S      -4.7091928064     3.0264873183    -4.7979661722
   82      C      -5.8901575209     2.0024153798    -2.7193368143
   83      C      -6.1597579301     2.4915792236    -3.9929157687
   84      C       9.5850572242     0.0568727909    -0.3655136208
   85      H       7.5087649352    -1.3601961264    -0.0185525073
   86      H       5.0327787058    -0.7559736103    -0.3223046144
   87      H       6.5073921804     3.2608782721    -1.3759312345
   88      H       4.4676329436     3.1648409847    -2.6528807618
   89      H      -0.4024721022     5.7744126809    -6.0923169664
   90      H      -2.7225515107     4.8401036646    -5.2919369314
   91      H      -6.5924936025     1.4691758601    -2.0939875974
   92      H      -7.1002480855     2.5061272907    -4.5286093576
   93      H       9.5998217819    -0.7327987076    -1.1267960469
   94      C       9.9739133298    -0.4761865151     1.0413217305
   95      H      10.3337083211     0.8117567418    -0.6346934040
   96      H       9.2807805446    -1.1749495161     1.5240340781
   97      H      10.1378554938     0.3320856751     1.7650951987
   98      C      11.3964007929    -1.1241110617     0.9405784956
   99      H      12.2294554466    -0.4502223809     0.7057615672
  100      C      11.4242841834    -2.3909056175     0.0053004246
  101      H      11.5802760437    -1.5453942936     1.9374492649
  102      H      11.1456164185    -2.1326156785    -1.0243051232
  103      H      10.6753373263    -3.1344410580     0.3069320775
  104      C      12.7867146500    -3.0514992845     0.0138579243
  105      H      13.5728308648    -2.3088829041    -0.1711264218
  106      C      12.9430358148    -4.3270083155    -0.9017022350
  107      H      12.9861224712    -3.3920316437     1.0375435367
  108      H      12.1210116108    -5.0218564391    -0.6897770287
  109      H      13.9268426814    -4.7712142147    -0.7072590085
  110      H      12.9711559572    -4.0423717705    -1.9604974441
 ----------------------------------------------------------------

   10   -5663.5163093000      3.30E-06 Convergence criterion met
 Total energy in the final basis set = -5663.5163093000

                    Orbital Energies (a.u.)
 --------------------------------------------------------------

 Alpha MOs
 -- Occupied --
-88.985 -88.982 -88.932 -88.926 -88.922 -88.919 -88.912 -88.908
-14.389 -14.386 -14.382 -14.379 -14.346 -14.342 -14.339 -14.336
-14.324 -14.316 -10.268 -10.258 -10.258 -10.254 -10.253 -10.252
-10.247 -10.246 -10.237 -10.235 -10.235 -10.234 -10.234 -10.233
-10.231 -10.231 -10.230 -10.229 -10.229 -10.227 -10.225 -10.224
-10.223 -10.222 -10.221 -10.221 -10.217 -10.216 -10.211 -10.211
-10.209 -10.209 -10.206 -10.205 -10.202 -10.198 -10.193 -10.191
-10.188 -10.188 -10.183 -10.178 -10.178 -10.177 -10.177 -10.176
-10.176 -10.175 -10.169 -10.168  -8.040  -8.037  -7.993  -7.984
 -7.984  -7.978  -7.971  -7.968  -6.005  -6.002  -6.000  -5.998
 -5.997  -5.995  -5.957  -5.954  -5.950  -5.948  -5.948  -5.945
 -5.944  -5.943  -5.941  -5.940  -5.939  -5.936  -5.935  -5.933
 -5.932  -5.929  -5.927  -5.925  -1.039  -1.027  -0.977  -0.975
 -0.973  -0.949  -0.937  -0.932  -0.915  -0.913  -0.906  -0.896
 -0.847  -0.846  -0.830  -0.817  -0.813  -0.812  -0.808  -0.806
 -0.805  -0.803  -0.796  -0.790  -0.784  -0.780  -0.768  -0.763
 -0.749  -0.746  -0.742  -0.737  -0.724  -0.720  -0.712  -0.706
 -0.695  -0.690  -0.677  -0.673  -0.654  -0.654  -0.645  -0.640
 -0.637  -0.634  -0.622  -0.622  -0.614  -0.606  -0.600  -0.599
 -0.594  -0.592  -0.585  -0.578  -0.575  -0.573  -0.567  -0.565
 -0.544  -0.542  -0.541  -0.538  -0.523  -0.520  -0.516  -0.511
 -0.505  -0.503  -0.501  -0.496  -0.485  -0.484  -0.476  -0.472
 -0.471  -0.470  -0.468  -0.467  -0.460  -0.455  -0.449  -0.449
 -0.444  -0.442  -0.442  -0.437  -0.436  -0.435  -0.430  -0.429
 -0.425  -0.422  -0.419  -0.418  -0.417  -0.416  -0.416  -0.415
 -0.414  -0.409  -0.403  -0.403  -0.400  -0.398  -0.396  -0.393
 -0.391  -0.389  -0.388  -0.386  -0.384  -0.383  -0.383  -0.382
 -0.379  -0.377  -0.375  -0.371  -0.365  -0.362  -0.357  -0.355
 -0.354  -0.354  -0.352  -0.352  -0.346  -0.345  -0.341  -0.338
 -0.336  -0.333  -0.332  -0.330  -0.330  -0.326  -0.325  -0.316
 -0.313  -0.313  -0.309  -0.309  -0.303  -0.302  -0.300  -0.300
 -0.299  -0.297  -0.291  -0.287  -0.286  -0.282  -0.278  -0.274
 -0.268  -0.266  -0.264  -0.263  -0.256  -0.250  -0.247  -0.242
 -0.242  -0.240  -0.230  -0.225  -0.194  -0.190

          Ground-State Mulliken Net Atomic Charges

     Atom                 Charge (a.u.)
  ----------------------------------------
      1 C                     0.295292
      2 C                    -0.127956
      3 N                    -0.483725
      4 C                    -0.072964
      5 C                     0.060734
      6 C                     0.037304
      7 C                     0.032183
      8 C                     0.047638
      9 C                     0.259100
     10 N                    -0.533349
     11 N                    -0.546226
     12 C                     0.195808
     13 C                     0.329574
     14 S                     0.601006
     15 N                    -0.565232
     16 C                    -0.228458
     17 S                     0.367273
     18 C                    -0.109233
     19 C                    -0.164330
     20 S                     0.281293
     21 C                     0.110453
     22 C                     0.048734
     23 C                    -0.312214
     24 C                    -0.074396
     25 N                    -0.428084
     26 S                     0.249038
     27 C                     0.105550
     28 C                    -0.297465
     29 C                    -0.247830
     30 H                     0.081753
     31 H                     0.101963
     32 H                     0.134337
     33 H                     0.105897
     34 H                     0.122195
     35 H                     0.111933
     36 H                     0.122413
     37 H                     0.136879
     38 H                     0.118689
     39 C                    -0.176170
     40 H                     0.096211
     41 H                     0.092168
     42 H                     0.113434
     43 C                    -0.168914
     44 H                     0.080610
     45 C                    -0.171635
     46 H                     0.100608
     47 H                     0.088249
     48 H                     0.094861
     49 C                    -0.177425
     50 H                     0.089249
     51 C                    -0.322972
     52 H                     0.092363
     53 H                     0.102020
     54 H                     0.097772
     55 H                     0.104824
     56 C                     0.276239
     57 C                    -0.109616
     58 N                    -0.488137
     59 C                    -0.066233
     60 C                     0.074110
     61 C                     0.016543
     62 C                     0.044003
     63 C                     0.064542
     64 C                     0.220134
     65 N                    -0.539543
     66 N                    -0.558963
     67 C                     0.220789
     68 C                     0.318310
     69 S                     0.593209
     70 N                    -0.571649
     71 C                    -0.225369
     72 S                     0.367258
     73 C                    -0.114685
     74 C                    -0.201479
     75 S                     0.302583
     76 C                     0.115211
     77 C                     0.060312
     78 C                    -0.305117
     79 C                    -0.101100
     80 N                    -0.421119
     81 S                     0.291318
     82 C                     0.119082
     83 C                    -0.310592
     84 C                    -0.227636
     85 H                     0.088391
     86 H                     0.121618
     87 H                     0.106753
     88 H                     0.108530
     89 H                     0.126290
     90 H                     0.108965
     91 H                     0.108155
     92 H                     0.135195
     93 H                     0.120752
     94 C                    -0.188332
     95 H                     0.115447
     96 H                     0.100335
     97 H                     0.106032
     98 C                    -0.188795
     99 H                     0.098018
    100 C                    -0.167190
    101 H                     0.090196
    102 H                     0.091026
    103 H                     0.084910
    104 C                    -0.178957
    105 H                     0.090046
    106 C                    -0.322377
    107 H                     0.090802
    108 H                     0.103708
    109 H                     0.102836
    110 H                     0.104406
  ----------------------------------------
  Sum of atomic charges =     0.000000

                    Cartesian Multipole Moments
 -----------------------------------------------------------------
    Charge (ESU x 10^10)
                 0.0000
    Dipole Moment (Debye)
         X      -0.9523      Y      -3.4944      Z       0.0925
       Tot       3.6230
    Quadrupole Moments (Debye-Ang)
        XX    -425.7694     XY     -13.0766     YY    -405.7956
        XZ      19.5752     YZ      -3.6556     ZZ    -422.7288

 Total job time:  89.98s(wall), 1057.96s(cpu)
        *  Thank you very much for using Q-Chem.  Have a nice day.  *
