 Q-Chem 4.4, Q-Chem, Inc., Pleasanton, CA (2016)
 Q-Chem 4.4.2 for Intel X86 Linux

User input:
--------------------------------------------------------------
$comment
SP
$end

$rem
MEM_STATIC 5000
MEM_TOTAL 20000
JOBTYPE SP
EXCHANGE B3LYP
BASIS 6-31g(d,p)
$end

$molecule
0 1
C          15.972000    -24.772000    -10.833000
C          16.000000    -23.753000     -9.909000
N          15.387000    -25.913000    -10.577000
C          15.437000    -24.001000     -8.595000
C          14.838000    -26.125000     -9.323000
C          14.758000    -25.137000     -8.293000
C          14.224000    -25.480000     -6.955000
C          13.127000    -26.368000     -6.820000
C          14.824000    -25.087000     -5.714000
N          12.497000    -26.532000     -5.641000
N          15.982000    -24.438000     -5.600000
C          14.230000    -25.368000     -4.474000
C          12.999000    -26.103000     -4.478000
S          16.161000    -24.118000     -4.016000
N          14.824000    -24.788000     -3.405000
C          12.239000    -26.359000     -3.274000
S          12.690000    -25.898000     -1.628000
C          10.960000    -26.932000     -3.256000
C          11.257000    -26.737000     -0.943000
S          10.000000    -27.537000     -4.576000
C          10.431000    -27.042000     -1.971000
C          10.908000    -26.654000      0.455000
C           8.790000    -27.818000     -3.292000
C           9.178000    -27.592000     -1.949000
N           9.979000    -27.483000      0.871000
S          11.515000    -25.561000      1.627000
C           9.722000    -27.301000      2.216000
C          10.377000    -26.180000      2.815000
C          16.346000    -24.508000    -12.290000
H          16.477000    -22.803000    -10.134000
H          15.445000    -23.174000     -7.891000
H          14.312000    -27.065000     -9.165000
H          12.718000    -26.908000     -7.672000
H           7.829000    -28.214000     -3.592000
H           8.592000    -27.923000     -1.099000
H           9.089000    -27.978000      2.774000
H          10.322000    -25.790000      3.822000
H          17.311000    -23.986000    -12.277000
C          15.319000    -23.752000    -13.061000
H          16.667000    -25.465000    -12.720000
H          15.754000    -23.575000    -14.052000
H          15.157000    -22.777000    -12.585000
C          13.938000    -24.421000    -13.187000
H          13.550000    -24.824000    -12.243000
C          14.050000    -25.657000    -14.185000
H          13.228000    -23.670000    -13.557000
H          14.779000    -26.385000    -13.810000
H          14.508000    -25.319000    -15.123000
C          12.719000    -26.373000    -14.407000
H          12.386000    -26.898000    -13.503000
C          12.876000    -27.491000    -15.496000
H          11.973000    -25.664000    -14.787000
H          13.434000    -28.363000    -15.136000
H          13.362000    -27.062000    -16.382000
H          11.939000    -27.907000    -15.887000
C          13.782000    -20.241000     -6.411000
C          14.932000    -21.009000     -6.311000
N          13.737000    -19.155000     -7.226000
C          16.060000    -20.686000     -7.098000
C          14.759000    -18.830000     -8.009000
C          15.991000    -19.594000     -8.021000
C          17.214000    -19.167000     -8.782000
C          17.531000    -17.819000     -9.088000
C          18.315000    -20.077000     -9.209000
N          18.665000    -17.386000     -9.625000
N          18.301000    -21.383000     -8.963000
C          19.434000    -19.601000     -9.894000
C          19.641000    -18.247000    -10.103000
S          19.696000    -21.944000     -9.630000
N          20.238000    -20.565000    -10.330000
C          20.866000    -17.697000    -10.675000
S          22.198000    -18.615000    -11.275000
C          21.120000    -16.363000    -10.859000
C          23.195000    -17.246000    -11.658000
S          20.221000    -14.987000    -10.316000
C          22.402000    -16.125000    -11.369000
C          24.606000    -17.204000    -11.965000
C          21.398000    -13.989000    -11.147000
C          22.528000    -14.715000    -11.589000
N          25.128000    -18.358000    -12.323000
S          25.598000    -15.778000    -11.981000
C          26.350000    -18.097000    -12.887000
C          26.812000    -16.798000    -12.705000
C          12.701000    -20.548000     -5.370000
H          14.925000    -21.760000     -5.526000
H          16.981000    -21.249000     -6.975000
H          14.577000    -17.928000     -8.591000
H          16.806000    -17.048000     -8.831000
H          21.234000    -12.922000    -11.224000
H          23.357000    -14.213000    -12.074000
H          26.962000    -18.944000    -13.164000
H          27.802000    -16.399000    -12.885000
H          13.210000    -20.418000     -4.407000
C          12.108000    -21.975000     -5.533000
H          11.857000    -19.849000     -5.413000
H          12.816000    -22.808000     -5.614000
H          11.447000    -22.057000     -6.405000
C          11.121000    -22.231000     -4.344000
H          10.221000    -21.605000     -4.307000
C          11.844000    -22.250000     -2.945000
H          10.797000    -23.272000     -4.472000
H          12.320000    -21.285000     -2.729000
H          12.674000    -22.968000     -2.927000
C          10.880000    -22.603000     -1.832000
H           9.981000    -21.977000     -1.892000
C          11.487000    -22.638000     -0.376000
H          10.505000    -23.616000     -2.024000
H          12.392000    -23.258000     -0.381000
H          10.720000    -23.023000      0.307000
H          11.693000    -21.622000     -0.018000
$end

--------------------------------------------------------------

             Standard Nuclear Orientation (Angstroms)
    I     Atom           X                Y                Z
 ----------------------------------------------------------------
    1      C      -0.8477867601    -4.1521372738    -0.7190127841
    2      C      -0.8566229566    -2.8394436011    -0.3070925935
    3      N       0.2536437793    -4.7415723681    -1.1050944288
    4      C       0.3791292444    -2.0839829061    -0.3923254274
    5      C       1.4281888634    -4.0094057995    -1.1619887287
    6      C       1.5654488415    -2.6571740968    -0.7191872825
    7      C       2.8436757049    -1.9298664854    -0.8929938536
    8      C       4.0836450075    -2.5944509827    -0.7169780172
    9      C       2.9558055050    -0.5856094317    -1.3776895120
   10      N       5.2444994704    -1.9135421656    -0.6658204322
   11      N       1.9371839732     0.1535127396    -1.8150333024
   12      C       4.1865683845     0.0854095634    -1.4436686195
   13      C       5.3583873383    -0.6338424740    -1.0373204362
   14      S       2.5550196532     1.6239274551    -2.1307176967
   15      N       4.1111667727     1.3993889086    -1.7595323203
   16      C       6.6646120536    -0.0170876911    -0.9589461350
   17      S       7.0688694961     1.6481149984    -1.3935884279
   18      C       7.7986419117    -0.6385183056    -0.4183036724
   19      C       8.8146712278     1.3623691641    -1.0818824259
   20      S       7.9837012742    -2.2526167933     0.2065675979
   21      C       8.9262931143     0.1808769693    -0.4309586608
   22      C       9.7914866996     2.4239453849    -1.1263960359
   23      C       9.6416510859    -1.6961447667     0.5716132194
   24      C      10.0340227005    -0.4180320653     0.1049854893
   25      N      11.0509551273     2.0544654397    -1.1026926660
   26      S       9.5075131281     4.1138392570    -1.1437082234
   27      C      11.8878562344     3.1529692248    -1.1356163868
   28      C      11.2343550037     4.4200215277    -1.0261558779
   29      C      -2.0490413262    -5.0566539565    -0.4520707712
   30      H      -1.7738031531    -2.3604339608     0.0245461431
   31      H       0.3556139465    -1.0582699278    -0.0359984468
   32      H       2.3344404064    -4.5472532747    -1.4352436172
   33      H       4.1408139753    -3.6703230651    -0.5620071445
   34      H      10.2990101570    -2.3898607536     1.0785394281
   35      H      11.0641624265    -0.0800652561     0.0980876119
   36      H      12.9577796275     3.0532262421    -1.2609051339
   37      H      11.6434206848     5.4200698516    -0.9844111952
   38      H      -2.9347863318    -4.5158853063    -0.8083053176
   39      C      -2.1950933065    -5.4812772646     0.9688690112
   40      H      -2.0199561487    -5.8612948071    -1.1973875856
   41      H      -3.1288127914    -6.0542285812     1.0191652572
   42      H      -2.3110668528    -4.5917472088     1.6003208434
   43      C      -1.0275488771    -6.2951958357     1.5562143654
   44      H      -0.0372976260    -5.8763633339     1.3369638347
   45      C      -1.0427209327    -7.7555963980     0.9211993999
   46      H      -1.1513124494    -6.3307245449     2.6463617357
   47      H      -0.9401204436    -7.6984547692    -0.1688730627
   48      H      -2.0425619888    -8.1897396065     1.0464572825
   49      C       0.0615414682    -8.6596027857     1.4660645216
   50      H       1.0546864803    -8.3282923828     1.1379998909
   51      C      -0.0939100887   -10.1135154259     0.8982028762
   52      H      -0.0232164335    -8.7355978399     2.5572280519
   53      H       0.1844000632   -10.1914735054    -0.1590643545
   54      H      -1.1284530799   -10.4482438107     1.0495657109
   55      H       0.5063784389   -10.8843253812     1.3976142262
   56      C       0.8017577700     1.3707955334     2.6951285502
   57      C       0.4940166691     1.2909516198     1.3455936807
   58      N      -0.1766924339     1.3370389986     3.6370105464
   59      C      -0.8504355281     1.1291701068     0.9426581628
   60      C      -1.4506622935     1.1538769178     3.3104367428
   61      C      -1.8773161409     1.0081260548     1.9326170229
   62      C      -3.3214787829     0.9489380849     1.5226535519
   63      C      -4.3804025276     1.5519369324     2.2481202243
   64      C      -3.8237725968     0.3622258386     0.2474674225
   65      N      -5.6427712923     1.6506836969     1.8500144867
   66      N      -3.0178194434    -0.1906881118    -0.6531288677
   67      C      -5.1817053690     0.3654696941    -0.0749764695
   68      C      -6.1169495034     1.0214947246     0.7091125360
   69      S      -4.0236103562    -0.6963486186    -1.8524316199
   70      N      -5.4679293914    -0.3309361312    -1.1699206395
   71      C      -7.5174634999     1.1813141621     0.3305266234
   72      S      -8.2644375585     0.5099943340    -1.0724371837
   73      C      -8.4591915004     1.8569917525     1.0616464268
   74      C      -9.8215852148     1.2290410396    -0.8020263634
   75      S      -8.2578821110     2.8488583673     2.4659616152
   76      C      -9.7047480689     1.9018705520     0.4238041830
   77      C     -10.9378746974     1.3532226840    -1.7105475300
   78      C      -9.9991382099     3.0483116218     2.4777767530
   79      C     -10.6215141372     2.5614936967     1.3051743000
   80      N     -10.9001324953     0.5417782568    -2.7461620663
   81      S     -12.3128919414     2.3919511872    -1.4910784534
   82      C     -12.1486277324     0.5427691350    -3.3125185451
   83      C     -13.0015688942     1.5365772937    -2.8447518103
   84      C       2.2511157771     1.7527058353     3.0113513969
   85      H       1.3207603224     1.4790948863     0.6663499520
   86      H      -1.0988454621     1.1285735287    -0.1149954425
   87      H      -2.1151998794     1.1654318820     4.1728219697
   88      H      -4.1498206699     2.0169876661     3.2055515911
   89      H     -10.4729025926     3.5550204473     3.3085038297
   90      H     -11.6900282663     2.6665227869     1.1578092903
   91      H     -12.2784503494    -0.0085896715    -4.2332962352
   92      H     -13.9508582134     1.8617310799    -3.2507392530
   93      H       2.3978860144     2.7068175753     2.4903146563
   94      C       3.2648156842     0.6693077263     2.5496068399
   95      H       2.4259977389     1.9121856759     4.0822241623
   96      H       3.1761009683     0.3032136717     1.5201318075
   97      H       3.2446107979    -0.2227713792     3.1882112809
   98      C       4.7108072782     1.2193161616     2.7946069035
   99      H       5.0042701426     1.3865959192     3.8382265804
  100      C       5.0394448726     2.4831863867     1.9143112795
  101      H       5.3742401765     0.4481193273     2.3821105615
  102      H       4.3647862999     3.3171210264     2.1463583156
  103      H       4.8691345721     2.2898590166     0.8473684837
  104      C       6.4762784763     2.9238495278     2.0986999757
  105      H       6.7142266712     3.0151274642     3.1658110266
  106      C       6.9209696429     4.1953384117     1.2770091674
  107      H       7.1227211908     2.1059275737     1.7569786069
  108      H       6.6393185282     4.0578347227     0.2257169221
  109      H       8.0020589638     4.3275037855     1.4065514160
  110      H       6.4772746323     5.1045317069     1.7005162979
 ----------------------------------------------------------------

   10   -5663.5257618929      4.33E-06 Convergence criterion met
 Total energy in the final basis set = -5663.5257618929

                    Orbital Energies (a.u.)
 --------------------------------------------------------------

 Alpha MOs
 -- Occupied --
-88.992 -88.988 -88.935 -88.929 -88.923 -88.922 -88.917 -88.913
-14.394 -14.388 -14.385 -14.384 -14.351 -14.350 -14.345 -14.344
-14.328 -14.325 -10.271 -10.268 -10.264 -10.263 -10.260 -10.260
-10.259 -10.252 -10.246 -10.242 -10.240 -10.240 -10.239 -10.239
-10.238 -10.238 -10.234 -10.234 -10.233 -10.232 -10.230 -10.229
-10.229 -10.229 -10.227 -10.226 -10.226 -10.224 -10.216 -10.214
-10.211 -10.210 -10.206 -10.202 -10.201 -10.197 -10.194 -10.191
-10.190 -10.188 -10.179 -10.176 -10.175 -10.172 -10.172 -10.172
-10.171 -10.170 -10.167 -10.164  -8.048  -8.044  -7.997  -7.990
 -7.983  -7.981  -7.976  -7.973  -6.013  -6.009  -6.007  -6.005
 -6.003  -6.001  -5.960  -5.957  -5.954  -5.953  -5.951  -5.948
 -5.947  -5.945  -5.943  -5.941  -5.940  -5.939  -5.937  -5.937
 -5.937  -5.933  -5.932  -5.929  -1.050  -1.046  -0.978  -0.973
 -0.962  -0.954  -0.937  -0.936  -0.920  -0.918  -0.913  -0.912
 -0.850  -0.843  -0.836  -0.822  -0.816  -0.812  -0.811  -0.808
 -0.807  -0.802  -0.795  -0.794  -0.784  -0.773  -0.766  -0.765
 -0.751  -0.748  -0.741  -0.740  -0.724  -0.717  -0.708  -0.707
 -0.691  -0.690  -0.677  -0.676  -0.655  -0.654  -0.647  -0.645
 -0.638  -0.637  -0.629  -0.626  -0.610  -0.609  -0.603  -0.596
 -0.595  -0.592  -0.583  -0.581  -0.579  -0.573  -0.565  -0.560
 -0.557  -0.546  -0.544  -0.542  -0.528  -0.525  -0.520  -0.512
 -0.508  -0.505  -0.503  -0.499  -0.488  -0.487  -0.480  -0.478
 -0.474  -0.473  -0.471  -0.467  -0.460  -0.459  -0.452  -0.450
 -0.446  -0.445  -0.441  -0.439  -0.437  -0.436  -0.434  -0.432
 -0.426  -0.424  -0.421  -0.419  -0.419  -0.416  -0.415  -0.415
 -0.412  -0.403  -0.402  -0.401  -0.401  -0.397  -0.397  -0.396
 -0.395  -0.393  -0.392  -0.388  -0.386  -0.385  -0.384  -0.384
 -0.382  -0.378  -0.373  -0.372  -0.368  -0.364  -0.359  -0.359
 -0.358  -0.355  -0.354  -0.352  -0.348  -0.344  -0.342  -0.341
 -0.340  -0.336  -0.335  -0.330  -0.328  -0.326  -0.321  -0.318
 -0.316  -0.314  -0.310  -0.310  -0.307  -0.306  -0.301  -0.300
 -0.298  -0.297  -0.290  -0.290  -0.288  -0.288  -0.286  -0.282
 -0.270  -0.268  -0.268  -0.260  -0.257  -0.254  -0.249  -0.247
 -0.245  -0.242  -0.230  -0.229  -0.195  -0.194

          Ground-State Mulliken Net Atomic Charges

     Atom                 Charge (a.u.)
  ----------------------------------------
      1 C                     0.264935
      2 C                    -0.114180
      3 N                    -0.468993
      4 C                    -0.094119
      5 C                     0.051124
      6 C                     0.072346
      7 C                     0.031961
      8 C                     0.060394
      9 C                     0.231504
     10 N                    -0.549313
     11 N                    -0.558441
     12 C                     0.191928
     13 C                     0.336003
     14 S                     0.603796
     15 N                    -0.557170
     16 C                    -0.224166
     17 S                     0.304737
     18 C                    -0.097213
     19 C                    -0.216339
     20 S                     0.302925
     21 C                     0.156469
     22 C                     0.044209
     23 C                    -0.314908
     24 C                    -0.062114
     25 N                    -0.429367
     26 S                     0.288460
     27 C                     0.111900
     28 C                    -0.318734
     29 C                    -0.217024
     30 H                     0.101379
     31 H                     0.103934
     32 H                     0.094226
     33 H                     0.121650
     34 H                     0.114975
     35 H                     0.136695
     36 H                     0.116917
     37 H                     0.141636
     38 H                     0.088352
     39 C                    -0.173896
     40 H                     0.110513
     41 H                     0.095318
     42 H                     0.089352
     43 C                    -0.175625
     44 H                     0.107799
     45 C                    -0.169240
     46 H                     0.086240
     47 H                     0.106723
     48 H                     0.081517
     49 C                    -0.174232
     50 H                     0.098850
     51 C                    -0.326560
     52 H                     0.091953
     53 H                     0.102642
     54 H                     0.097628
     55 H                     0.092971
     56 C                     0.279714
     57 C                    -0.109932
     58 N                    -0.488098
     59 C                    -0.080679
     60 C                     0.075775
     61 C                     0.014892
     62 C                     0.044363
     63 C                     0.065443
     64 C                     0.222581
     65 N                    -0.539751
     66 N                    -0.566152
     67 C                     0.221210
     68 C                     0.318519
     69 S                     0.593433
     70 N                    -0.567282
     71 C                    -0.225206
     72 S                     0.366429
     73 C                    -0.114481
     74 C                    -0.199925
     75 S                     0.304333
     76 C                     0.115129
     77 C                     0.055729
     78 C                    -0.305076
     79 C                    -0.101485
     80 N                    -0.414346
     81 S                     0.290442
     82 C                     0.111458
     83 C                    -0.309322
     84 C                    -0.227259
     85 H                     0.089711
     86 H                     0.128599
     87 H                     0.108501
     88 H                     0.110168
     89 H                     0.127503
     90 H                     0.109521
     91 H                     0.115423
     92 H                     0.136169
     93 H                     0.121021
     94 C                    -0.192474
     95 H                     0.117119
     96 H                     0.093991
     97 H                     0.108422
     98 C                    -0.192854
     99 H                     0.096835
    100 C                    -0.178454
    101 H                     0.099255
    102 H                     0.085251
    103 H                     0.097590
    104 C                    -0.179976
    105 H                     0.085153
    106 C                    -0.326667
    107 H                     0.100578
    108 H                     0.110497
    109 H                     0.110065
    110 H                     0.096276
  ----------------------------------------
  Sum of atomic charges =     0.000000

                    Cartesian Multipole Moments
 -----------------------------------------------------------------
    Charge (ESU x 10^10)
                 0.0000
    Dipole Moment (Debye)
         X      -1.0091      Y       4.1606      Z      -0.8194
       Tot       4.3589
    Quadrupole Moments (Debye-Ang)
        XX    -353.1132     XY       3.1296     YY    -442.7058
        XZ      11.7662     YZ      -6.5532     ZZ    -449.4871

 Total job time:  100.40s(wall), 1217.52s(cpu)
        *  Thank you very much for using Q-Chem.  Have a nice day.  *
