 Q-Chem 4.4, Q-Chem, Inc., Pleasanton, CA (2016)
 Q-Chem 4.4.2 for Intel X86 Linux

User input:
--------------------------------------------------------------
$comment
SP
$end

$rem
MEM_STATIC 5000
MEM_TOTAL 20000
JOBTYPE SP
EXCHANGE B3LYP
BASIS 6-31g(d,p)
$end

$molecule
0 1
C           7.683000     20.016000     -2.905000
C           8.338000     20.424000     -1.732000
N           6.425000     19.475000     -2.880000
C           7.646000     20.234000     -0.499000
C           5.856000     19.230000     -1.683000
C           6.349000     19.637000     -0.444000
C           5.554000     19.345000      0.820000
C           4.131000     19.268000      0.761000
C           6.173000     18.951000      2.030000
N           3.407000     18.854000      1.800000
N           7.514000     19.011000      2.148000
C           5.439000     18.676000      3.143000
C           4.012000     18.542000      2.982000
S           7.711000     18.562000      3.744000
N           6.243000     18.414000      4.210000
C           3.156000     18.077000      4.100000
S           3.634000     17.112000      5.527000
C           1.822000     18.182000      4.088000
C           1.947000     17.016000      6.152000
S           0.755000     19.140000      3.014000
C           1.180000     17.587000      5.197000
C           1.516000     16.210000      7.237000
C          -0.591000     18.557000      3.976000
C          -0.241000     17.738000      5.045000
N           0.313000     16.403000      7.739000
S           2.428000     14.874000      7.851000
C           0.133000     15.610000      8.849000
C           1.170000     14.756000      9.089000
C           8.339000     20.077000     -4.297000
H           9.328000     20.871000     -1.749000
H           8.100000     20.660000      0.391000
H           4.832000     18.864000     -1.739000
H           3.630000     19.673000     -0.117000
H          -1.571000     18.879000      3.647000
H          -0.921000     17.182000      5.680000
H          -0.758000     15.663000      9.461000
H           1.271000     14.081000      9.929000
H           7.711000     20.511000     -5.084000
C           9.019000     18.829000     -4.791000
H           9.134000     20.831000     -4.239000
H           8.304000     18.078000     -5.148000
H           9.679000     18.250000     -4.134000
C           9.989000     19.242000     -6.026000
H           9.609000     19.946000     -6.776000
C          10.404000     18.051000     -6.906000
H          10.942000     19.695000     -5.727000
H           9.520000     17.649000     -7.416000
H          10.730000     17.181000     -6.323000
C          11.489000     18.399000     -7.982000
H          11.147000     19.247000     -8.587000
C          11.822000     17.222000     -8.859000
H          12.397000     18.687000     -7.438000
H          10.913000     16.837000     -9.338000
H          12.195000     16.396000     -8.240000
H          12.502000     17.564000     -9.649000
C           3.628000      8.313000      2.806000
C           2.287000      8.209000      2.378000
N           4.258000      9.459000      2.861000
C           1.574000      9.332000      1.948000
C           3.606000     10.581000      2.454000
C           2.305000     10.562000      1.892000
C           1.611000     11.803000      1.541000
C           2.222000     12.835000      0.790000
C           0.262000     12.004000      1.910000
N           1.667000     14.056000      0.636000
N          -0.523000     11.123000      2.536000
C          -0.350000     13.276000      1.721000
C           0.445000     14.270000      1.059000
S          -1.934000     11.923000      2.724000
N          -1.580000     13.377000      2.232000
C          -0.019000     15.644000      0.852000
S          -1.628000     16.318000      1.410000
C           0.589000     16.656000      0.156000
C          -1.342000     17.923000      0.691000
S           1.980000     16.734000     -0.788000
C          -0.147000     17.861000      0.063000
C          -2.233000     19.057000      0.717000
C           1.466000     18.341000     -1.454000
C           0.272000     18.780000     -0.922000
N          -1.721000     20.283000      0.587000
S          -3.813000     18.913000      1.295000
C          -2.665000     21.186000      0.837000
C          -3.906000     20.645000      1.230000
C           4.478000      7.153000      3.287000
H           1.772000      7.253000      2.347000
H           0.581000      9.192000      1.531000
H           4.103000     11.530000      2.649000
H           3.220000     12.698000      0.379000
H           2.076000     18.864000     -2.178000
H          -0.184000     19.712000     -1.236000
H          -2.514000     22.239000      0.637000
H          -4.803000     21.179000      1.515000
H           4.754000      6.629000      2.364000
C           3.777000      6.165000      4.301000
H           5.457000      7.479000      3.660000
H           2.980000      5.728000      3.687000
H           3.309000      6.800000      5.063000
C           4.728000      5.050000      4.912000
H           4.750000      4.144000      4.294000
C           4.298000      4.630000      6.369000
H           5.733000      5.486000      4.874000
H           3.262000      4.269000      6.341000
H           4.230000      5.505000      7.028000
C           5.121000      3.494000      7.046000
H           4.725000      3.290000      8.049000
C           6.651000      3.739000      7.104000
H           4.869000      2.564000      6.522000
H           7.242000      2.874000      7.430000
H           6.897000      4.616000      7.715000
H           7.071000      4.007000      6.127000
$end

--------------------------------------------------------------

             Standard Nuclear Orientation (Angstroms)
    I     Atom           X                Y                Z
 ----------------------------------------------------------------
    1      C      -7.5969864799    -2.5145838438    -0.5634210069
    2      C      -7.4286010302    -2.4497801504    -1.9558522697
    3      N      -6.7663095758    -1.8474982727     0.2973012025
    4      C      -6.3374504340    -1.6718451305    -2.4451992643
    5      C      -5.6961456373    -1.2059355889    -0.2123471740
    6      C      -5.4348681789    -0.9980676051    -1.5659881866
    7      C      -4.2160321134    -0.1901172339    -1.9862736172
    8      C      -3.7235519409     0.8444879028    -1.1369241656
    9      C      -3.4203450915    -0.5443199184    -3.1015850631
   10      N      -2.5695836022     1.4636923264    -1.3819465217
   11      N      -3.8386105176    -1.5085762444    -3.9448340009
   12      C      -2.3226532349     0.1830656268    -3.4467413420
   13      C      -1.8463736280     1.1589970018    -2.4975723964
   14      S      -2.6368158523    -1.4585949761    -5.1027707242
   15      N      -1.7695221416    -0.2792864257    -4.6016550068
   16      C      -0.5647941866     1.8733876404    -2.7122469197
   17      S       0.8272486536     1.3643494402    -3.7118142469
   18      C      -0.2089331045     2.9567408679    -2.0119372205
   19      C       1.8214751768     2.7874923481    -3.2301630410
   20      S      -1.1945653933     4.0164286762    -0.9558502258
   21      C       1.0929356891     3.4296817381    -2.2903875346
   22      C       3.1958087581     2.9708023291    -3.5305405671
   23      C       0.2448834106     4.9960012154    -0.7426044013
   24      C       1.3615079771     4.5660924535    -1.4527804597
   25      N       3.7441968646     4.1508865369    -3.3228539107
   26      S       4.2431547903     1.6829753812    -4.0186020809
   27      C       5.0406379080     4.1555575946    -3.7839046693
   28      C       5.4708794631     2.9391107010    -4.2282403075
   29      C      -8.6738373707    -3.3839611999     0.1120759745
   30      H      -8.0964818503    -2.9618661749    -2.6428028601
   31      H      -6.2816962640    -1.5231994947    -3.5196702725
   32      H      -5.1197429020    -0.6424205434     0.5196901748
   33      H      -4.3719729444     1.2093305280    -0.3417197509
   34      H       0.1375626930     5.8396819212    -0.0725222196
   35      H       2.3695292978     4.9546009021    -1.3649442346
   36      H       5.6540233944     5.0471732396    -3.7801916115
   37      H       6.4290620985     2.7173293136    -4.6800423144
   38      H      -9.2484994695    -2.8787213646     0.8973180906
   39      C      -8.2637422388    -4.7607426786     0.5595519433
   40      H      -9.4606794128    -3.5493657746    -0.6345336473
   41      H      -7.6806091307    -4.7409530001     1.4881202752
   42      H      -7.6684161617    -5.4105793146    -0.0929733117
   43      C      -9.6129819420    -5.6260942577     0.8191918243
   44      H     -10.4477853596    -5.1471920976     1.3448076298
   45      C      -9.3835580667    -6.8770633511     1.6837998355
   46      H     -10.0880663259    -6.0156599451    -0.0892972529
   47      H      -9.0925614992    -6.5720384925     2.6964403607
   48      H      -8.5058011685    -7.4569441823     1.3734032356
   49      C     -10.6295666249    -7.8224130008     1.7832066381
   50      H     -11.4986323185    -7.2490692097     2.1268557577
   51      C     -10.3816662088    -9.0014145171     2.6853417767
   52      H     -10.8241855066    -8.2011702670     0.7722613259
   53      H     -10.0768473428    -8.6585609651     3.6820784023
   54      H      -9.5309302225    -9.5820624189     2.3063136832
   55      H     -11.3220083526    -9.5564013138     2.7912205191
   56      C       5.7502838205    -4.4288142562     1.4871526825
   57      C       6.0196196135    -3.5785439089     2.5811268902
   58      N       4.7259743609    -4.2445287190     0.6933832124
   59      C       5.1719661814    -2.5126045963     2.8968087567
   60      C       3.8723793253    -3.2195222538     0.9586646885
   61      C       3.9871180357    -2.3899998491     2.1021390469
   62      C       3.0920838690    -1.2487449141     2.3055327883
   63      C       1.6865369563    -1.3459685370     2.1738838490
   64      C       3.6049021128     0.0101536045     2.6909610810
   65      N       0.8757406168    -0.2666294778     2.1591024020
   66      N       4.8829439218     0.2915839336     2.9586700728
   67      C       2.7546835334     1.1524169848     2.7156944010
   68      C       1.3686031292     0.9174019455     2.4295929427
   69      S       4.8668061151     1.8878783059     3.3019612729
   70      N       3.3853699205     2.3034050261     2.9640554485
   71      C       0.3834469886     1.9987366401     2.3508296452
   72      S       0.7426250149     3.7817037680     2.5665618085
   73      C      -0.9740999785     1.9081895038     2.1862348450
   74      C      -0.9610489997     4.2705883758     2.3841647354
   75      S      -2.0440050694     0.6111681270     2.1145435320
   76      C      -1.6775510720     3.1352318004     2.2297522133
   77      C      -1.4910654833     5.6105880698     2.4473814037
   78      C      -3.4538872603     1.7322352875     2.3281825486
   79      C      -3.0730289258     3.0542721668     2.4206293918
   80      N      -2.6439431243     5.8782788769     1.8298583058
   81      S      -0.5241636038     6.9105128118     2.9233188162
   82      C      -2.8542851493     7.1915878792     1.8344077134
   83      C      -1.8137602018     7.9511144306     2.4068046484
   84      C       6.6099386792    -5.6066908037     1.0711462367
   85      H       6.8793330324    -3.7361298678     3.2262481989
   86      H       5.3594495652    -1.9476004486     3.8051909966
   87      H       3.1198152933    -3.0050428315     0.2015114972
   88      H       1.2176822636    -2.3102143853     1.9892241049
   89      H      -4.4664657835     1.3532737402     2.3578115890
   90      H      -3.7962484171     3.8467206893     2.5759835249
   91      H      -3.8008311702     7.6184541358     1.5287186078
   92      H      -1.7459509838     9.0278620339     2.4905095395
   93      H       6.3662957342    -6.3826401397     1.8068239808
   94      C       8.1666239563    -5.3396764918     1.0368635132
   95      H       6.2636156206    -6.0674711813     0.1375575785
   96      H       8.3939042040    -5.1514059499     2.0933065510
   97      H       8.2972426360    -4.3987967717     0.4886143792
   98      C       9.0357180820    -6.5323638951     0.4510997737
   99      H       9.3373558195    -7.2431512844     1.2302274671
  100      C      10.3417578664    -6.0230378280    -0.2693140234
  101      H       8.3587309549    -7.0682915485    -0.2242038469
  102      H      10.9348164886    -5.4394046657     0.4462660228
  103      H      10.1022697323    -5.2827595858    -1.0433705831
  104      C      11.3073204197    -7.1102390274    -0.8277372570
  105      H      12.1764019919    -6.6341043101    -1.2993662975
  106      C      10.6545365068    -8.1317003438    -1.7945769243
  107      H      11.7722655237    -7.5968301488     0.0383084292
  108      H      11.2905889524    -8.9864255604    -2.0566152622
  109      H      10.2817491789    -7.6457647992    -2.7044462856
  110      H       9.7453693112    -8.5823594970    -1.3785548837
 ----------------------------------------------------------------

   10   -5663.5232333820      3.90E-06 Convergence criterion met
 Total energy in the final basis set = -5663.5232333820

                    Orbital Energies (a.u.)
 --------------------------------------------------------------

 Alpha MOs
 -- Occupied --
-88.989 -88.985 -88.935 -88.923 -88.915 -88.914 -88.901 -88.897
-14.388 -14.386 -14.379 -14.378 -14.349 -14.346 -14.344 -14.335
-14.325 -14.323 -10.268 -10.266 -10.262 -10.258 -10.255 -10.252
-10.252 -10.246 -10.237 -10.237 -10.237 -10.235 -10.234 -10.233
-10.232 -10.231 -10.229 -10.226 -10.225 -10.225 -10.223 -10.222
-10.222 -10.220 -10.217 -10.217 -10.217 -10.214 -10.214 -10.211
-10.210 -10.209 -10.200 -10.199 -10.199 -10.196 -10.191 -10.187
-10.186 -10.186 -10.185 -10.184 -10.182 -10.181 -10.181 -10.179
-10.176 -10.172 -10.171 -10.169  -8.045  -8.042  -7.997  -7.984
 -7.974  -7.972  -7.961  -7.956  -6.010  -6.007  -6.004  -6.003
 -6.001  -6.000  -5.960  -5.957  -5.955  -5.948  -5.944  -5.941
 -5.938  -5.937  -5.935  -5.933  -5.930  -5.929  -5.926  -5.922
 -5.921  -5.918  -5.917  -5.912  -1.053  -1.051  -0.984  -0.967
 -0.963  -0.954  -0.941  -0.927  -0.918  -0.909  -0.908  -0.902
 -0.836  -0.833  -0.831  -0.823  -0.820  -0.810  -0.806  -0.799
 -0.799  -0.796  -0.794  -0.791  -0.782  -0.779  -0.766  -0.765
 -0.747  -0.746  -0.738  -0.732  -0.714  -0.711  -0.707  -0.707
 -0.690  -0.689  -0.673  -0.672  -0.656  -0.649  -0.647  -0.644
 -0.634  -0.630  -0.625  -0.618  -0.612  -0.604  -0.600  -0.595
 -0.592  -0.586  -0.581  -0.580  -0.575  -0.574  -0.571  -0.564
 -0.552  -0.547  -0.541  -0.537  -0.527  -0.518  -0.513  -0.506
 -0.503  -0.499  -0.498  -0.492  -0.488  -0.483  -0.479  -0.476
 -0.472  -0.471  -0.467  -0.465  -0.462  -0.459  -0.449  -0.448
 -0.443  -0.437  -0.435  -0.434  -0.433  -0.430  -0.427  -0.427
 -0.425  -0.425  -0.423  -0.420  -0.419  -0.417  -0.414  -0.410
 -0.408  -0.407  -0.405  -0.403  -0.399  -0.394  -0.392  -0.391
 -0.390  -0.389  -0.388  -0.386  -0.384  -0.383  -0.382  -0.382
 -0.379  -0.375  -0.373  -0.372  -0.365  -0.361  -0.351  -0.348
 -0.348  -0.347  -0.346  -0.345  -0.344  -0.341  -0.339  -0.337
 -0.331  -0.329  -0.327  -0.326  -0.324  -0.321  -0.320  -0.317
 -0.315  -0.313  -0.312  -0.311  -0.311  -0.305  -0.301  -0.299
 -0.299  -0.295  -0.294  -0.289  -0.288  -0.281  -0.277  -0.276
 -0.270  -0.268  -0.266  -0.265  -0.252  -0.250  -0.248  -0.246
 -0.239  -0.237  -0.229  -0.224  -0.191  -0.187

          Ground-State Mulliken Net Atomic Charges

     Atom                 Charge (a.u.)
  ----------------------------------------
      1 C                     0.250850
      2 C                    -0.116316
      3 N                    -0.476900
      4 C                    -0.075227
      5 C                     0.060410
      6 C                     0.055343
      7 C                     0.004435
      8 C                     0.083131
      9 C                     0.230447
     10 N                    -0.513791
     11 N                    -0.563764
     12 C                     0.206018
     13 C                     0.279151
     14 S                     0.608217
     15 N                    -0.512533
     16 C                    -0.225130
     17 S                     0.282975
     18 C                    -0.095400
     19 C                    -0.223593
     20 S                     0.305447
     21 C                     0.156558
     22 C                     0.054547
     23 C                    -0.311543
     24 C                    -0.051952
     25 N                    -0.439353
     26 S                     0.267280
     27 C                     0.132219
     28 C                    -0.308879
     29 C                    -0.216068
     30 H                     0.095286
     31 H                     0.110266
     32 H                     0.088576
     33 H                     0.120002
     34 H                     0.130363
     35 H                     0.115120
     36 H                     0.115469
     37 H                     0.125908
     38 H                     0.119068
     39 C                    -0.171182
     40 H                     0.094146
     41 H                     0.112572
     42 H                     0.102569
     43 C                    -0.188274
     44 H                     0.092463
     45 C                    -0.182934
     46 H                     0.091166
     47 H                     0.088220
     48 H                     0.082870
     49 C                    -0.178032
     50 H                     0.090523
     51 C                    -0.310227
     52 H                     0.092377
     53 H                     0.100943
     54 H                     0.103121
     55 H                     0.099266
     56 C                     0.287344
     57 C                    -0.131960
     58 N                    -0.477914
     59 C                    -0.037369
     60 C                     0.067279
     61 C                     0.005514
     62 C                     0.032066
     63 C                     0.045608
     64 C                     0.228248
     65 N                    -0.526177
     66 N                    -0.564116
     67 C                     0.202549
     68 C                     0.339748
     69 S                     0.594368
     70 N                    -0.533824
     71 C                    -0.233462
     72 S                     0.288000
     73 C                    -0.059227
     74 C                    -0.231449
     75 S                     0.270804
     76 C                     0.131863
     77 C                     0.040367
     78 C                    -0.337072
     79 C                    -0.021938
     80 N                    -0.417470
     81 S                     0.293509
     82 C                     0.129653
     83 C                    -0.322591
     84 C                    -0.242058
     85 H                     0.086274
     86 H                     0.116938
     87 H                     0.107443
     88 H                     0.117597
     89 H                     0.125450
     90 H                     0.130680
     91 H                     0.117670
     92 H                     0.132849
     93 H                     0.108241
     94 C                    -0.188403
     95 H                     0.118014
     96 H                     0.095585
     97 H                     0.106116
     98 C                    -0.177814
     99 H                     0.096335
    100 C                    -0.181441
    101 H                     0.102221
    102 H                     0.091429
    103 H                     0.093364
    104 C                    -0.180642
    105 H                     0.093533
    106 C                    -0.319354
    107 H                     0.092038
    108 H                     0.100493
    109 H                     0.103819
    110 H                     0.105043
  ----------------------------------------
  Sum of atomic charges =     0.000000

                    Cartesian Multipole Moments
 -----------------------------------------------------------------
    Charge (ESU x 10^10)
                 0.0000
    Dipole Moment (Debye)
         X       1.4201      Y       1.6871      Z       0.6345
       Tot       2.2947
    Quadrupole Moments (Debye-Ang)
        XX    -402.3250     XY       0.6418     YY    -414.7610
        XZ      12.3542     YZ      14.7740     ZZ    -433.9611

 Total job time:  93.11s(wall), 1105.91s(cpu)
        *  Thank you very much for using Q-Chem.  Have a nice day.  *
