 Q-Chem 4.4, Q-Chem, Inc., Pleasanton, CA (2016)
 Q-Chem 4.4.2 for Intel X86 Linux

User input:
--------------------------------------------------------------
$comment
SP
$end

$rem
MEM_STATIC 5000
MEM_TOTAL 20000
JOBTYPE SP
EXCHANGE B3LYP
BASIS 6-31g(d,p)
$end

$molecule
0 1
C          -4.061000      1.689000      2.529000
C          -3.052000      2.240000      1.718000
N          -5.325000      2.206000      2.604000
C          -3.233000      3.490000      1.073000
C          -5.585000      3.309000      1.858000
C          -4.581000      4.068000      1.112000
C          -4.943000      5.432000      0.574000
C          -6.279000      5.853000      0.578000
C          -4.008000      6.513000      0.212000
N          -6.715000      7.029000      0.201000
N          -2.674000      6.386000      0.109000
C          -4.472000      7.760000     -0.133000
C          -5.819000      8.017000     -0.116000
S          -2.140000      7.821000     -0.323000
N          -3.487000      8.682000     -0.410000
C          -6.483000      9.243000     -0.717000
S          -8.078000      9.072000     -1.492000
C          -6.213000     10.540000     -0.442000
C          -8.319000     10.861000     -1.496000
S          -5.062000     11.193000      0.603000
C          -7.213000     11.389000     -0.854000
C          -9.535000     11.520000     -1.887000
C          -5.764000     12.743000      0.374000
C          -6.961000     12.702000     -0.309000
N         -10.570000     10.756000     -2.349000
S          -9.838000     13.267000     -1.798000
C         -11.637000     11.574000     -2.709000
C         -11.398000     12.929000     -2.616000
C          -3.734000      0.409000      3.312000
H          -2.022000      1.903000      1.652000
H          -2.358000      3.931000      0.605000
H          -6.603000      3.670000      1.990000
H          -7.093000      5.198000      0.886000
H          -5.338000     13.626000      0.832000
H          -7.569000     13.596000     -0.392000
H         -12.514000     11.137000     -3.168000
H         -11.993000     13.719000     -3.056000
H          -2.751000      0.549000      3.777000
C          -3.749000     -0.835000      2.416000
H          -4.466000      0.353000      4.127000
H          -2.830000     -0.901000      1.821000
H          -4.538000     -0.795000      1.654000
C          -3.780000     -2.177000      3.174000
H          -3.275000     -2.001000      4.132000
C          -3.134000     -3.375000      2.411000
H          -4.780000     -2.506000      3.483000
H          -3.268000     -3.374000      1.322000
H          -3.750000     -4.195000      2.801000
C          -1.748000     -3.646000      2.820000
H          -1.142000     -2.845000      2.379000
C          -1.224000     -4.938000      2.258000
H          -1.825000     -3.681000      3.913000
H          -0.249000     -5.203000      2.685000
H          -1.174000     -4.915000      1.163000
H          -1.900000     -5.738000      2.586000
C           3.628000      8.313000      2.806000
C           2.287000      8.209000      2.378000
N           4.258000      9.459000      2.861000
C           1.574000      9.332000      1.948000
C           3.606000     10.581000      2.454000
C           2.305000     10.562000      1.892000
C           1.611000     11.803000      1.541000
C           2.222000     12.835000      0.790000
C           0.262000     12.004000      1.910000
N           1.667000     14.056000      0.636000
N          -0.523000     11.123000      2.536000
C          -0.350000     13.276000      1.721000
C           0.445000     14.270000      1.059000
S          -1.934000     11.923000      2.724000
N          -1.580000     13.377000      2.232000
C          -0.019000     15.644000      0.852000
S          -1.628000     16.318000      1.410000
C           0.589000     16.656000      0.156000
C          -1.342000     17.923000      0.691000
S           1.980000     16.734000     -0.788000
C          -0.147000     17.861000      0.063000
C          -2.233000     19.057000      0.717000
C           1.466000     18.341000     -1.454000
C           0.272000     18.780000     -0.922000
N          -1.721000     20.283000      0.587000
S          -3.813000     18.913000      1.295000
C          -2.665000     21.186000      0.837000
C          -3.906000     20.645000      1.230000
C           4.478000      7.153000      3.287000
H           1.772000      7.253000      2.347000
H           0.581000      9.192000      1.531000
H           4.103000     11.530000      2.649000
H           3.220000     12.698000      0.379000
H           2.076000     18.864000     -2.178000
H          -0.184000     19.712000     -1.236000
H          -2.514000     22.239000      0.637000
H          -4.803000     21.179000      1.515000
H           4.754000      6.629000      2.364000
C           3.777000      6.165000      4.301000
H           5.457000      7.479000      3.660000
H           2.980000      5.728000      3.687000
H           3.309000      6.800000      5.063000
C           4.728000      5.050000      4.912000
H           4.750000      4.144000      4.294000
C           4.298000      4.630000      6.369000
H           5.733000      5.486000      4.874000
H           3.262000      4.269000      6.341000
H           4.230000      5.505000      7.028000
C           5.121000      3.494000      7.046000
H           4.725000      3.290000      8.049000
C           6.651000      3.739000      7.104000
H           4.869000      2.564000      6.522000
H           7.242000      2.874000      7.430000
H           6.897000      4.616000      7.715000
H           7.071000      4.007000      6.127000
$end

--------------------------------------------------------------

             Standard Nuclear Orientation (Angstroms)
    I     Atom           X                Y                Z
 ----------------------------------------------------------------
    1      C      -8.0698527908     2.2209656666     0.7306333657
    2      C      -7.4685874744     1.4577481307    -0.2869038632
    3      N      -7.4737221528     3.3144359788     1.2959305785
    4      C      -6.1145061733     1.6652638157    -0.6539012341
    5      C      -6.2398285378     3.6478745236     0.8409027951
    6      C      -5.4454411029     2.8408568409    -0.0855334213
    7      C      -3.9836312822     3.1690194833    -0.2763352254
    8      C      -3.4634618410     4.3654836157     0.2336160787
    9      C      -2.9349473680     2.2616649997    -0.7771344756
   10      N      -2.2083445543     4.7371205136     0.1915730911
   11      N      -3.1491368056     1.0591796211    -1.3378891449
   12      C      -1.6135056506     2.6399144230    -0.7701229587
   13      C      -1.2556490585     3.8645258135    -0.2671193785
   14      S      -1.7084909452     0.5030953457    -1.7204002998
   15      N      -0.7397544385     1.6799019506    -1.2305280762
   16      C       0.1061391506     4.5146606862    -0.4345425571
   17      S       0.2026894225     6.2809922139    -0.6458290440
   18      C       1.3088879529     4.0002324949    -0.0888650273
   19      C       1.9782762174     6.2690219912    -0.3206118131
   20      S       1.6738408473     2.5003759458     0.5897178467
   21      C       2.2947598984     4.9561801721    -0.0198320970
   22      C       2.7914582390     7.4464864631    -0.1859625750
   23      C       3.2914884114     3.0246196361     0.8266353668
   24      C       3.4673894214     4.3707217474     0.5857060395
   25      N       2.2061596604     8.6670810087    -0.3755398122
   26      S       4.5145515861     7.4687886369     0.2408757205
   27      C       3.1579133725     9.6735487335    -0.2398910358
   28      C       4.4519391595     9.2382817578    -0.0453790246
   29      C      -9.4893090266     1.8365714646     1.1731297975
   30      H      -7.8707946383     0.5569776483    -0.7404090289
   31      H      -5.6704207695     0.9335757986    -1.3221457999
   32      H      -5.8265946224     4.5131985913     1.3552188352
   33      H      -4.0944415247     5.1193919543     0.7026276516
   34      H       4.0433791773     2.3610285287     1.2331278247
   35      H       4.4081967412     4.8481496078     0.8361720553
   36      H       2.8802118118    10.7011070651    -0.4342739527
   37      H       5.3521513510     9.8308542743    -0.1463781476
   38      H      -9.5126378770     0.7473605081     1.2963745007
   39      C     -10.5518973298     2.3018452682     0.1706312261
   40      H      -9.6279021953     2.2722436641     2.1702088657
   41      H     -10.5866172038     1.6370696991    -0.7010395678
   42      H     -10.3155948192     3.2792204042    -0.2694414576
   43      C     -11.9989364290     2.2697434921     0.7012311898
   44      H     -12.0346971412     1.4677698280     1.4491111358
   45      C     -13.0929911197     2.0661299907    -0.3925123248
   46      H     -12.2952021152     3.1542936980     1.2787427277
   47      H     -12.8905408196     2.5377797006    -1.3622743715
   48      H     -13.9162038609     2.6302107597     0.0636561406
   49      C     -13.5423143285     0.6714341134    -0.5135497738
   50      H     -12.7280096152     0.1354872810    -1.0165277323
   51      C     -14.7539558614     0.5310607384    -1.3921305106
   52      H     -13.7618073697     0.4011277911     0.5259502488
   53      H     -15.1673905229    -0.4843563599    -1.3577954394
   54      H     -14.5437096990     0.8289533389    -2.4261085325
   55      H     -15.5418490786     1.1684844927    -0.9708524126
   56      C      -2.2388025289    -5.9712674625    -0.6697220182
   57      C      -2.1577494164    -4.5625805506    -0.6334925119
   58      N      -1.1747431310    -6.7335126257    -0.6706754126
   59      C      -0.9230153021    -3.9069934501    -0.6394272073
   60      C       0.0500624967    -6.1423592663    -0.6757626634
   61      C       0.2347553716    -4.7400227297    -0.7660221778
   62      C       1.5699125776    -4.1431655351    -0.6883386884
   63      C       2.6647557508    -4.6162322676    -1.4498321504
   64      C       1.8113532503    -3.0210191048     0.1355889726
   65      N       3.9345854929    -4.2097669145    -1.2379351403
   66      N       0.9005981624    -2.3651173160     0.8598679336
   67      C       3.1419519993    -2.5567548045     0.3410509612
   68      C       4.1690839213    -3.2257309962    -0.4044528079
   69      S       1.7664946568    -1.2074431258     1.6189981795
   70      N       3.2508081986    -1.5780434072     1.2435454646
   71      C       5.5909829122    -2.9083266894    -0.2512249856
   72      S       6.2844348978    -1.6654837578     0.9015919085
   73      C       6.6568138773    -3.3933749884    -0.9632337646
   74      C       7.9621442298    -1.9203422946     0.3583419442
   75      S       6.7864226143    -4.4096014366    -2.2983691065
   76      C       7.9148639322    -2.8342464291    -0.6360406816
   77      C       9.1421943648    -1.2440223294     0.8385356379
   78      C       8.5213456782    -3.9306162927    -2.5237935823
   79      C       8.9552820628    -3.0376125265    -1.5669108895
   80      N      10.3266610446    -1.8474320170     0.7158350541
   81      S       9.0271474245     0.0747368586     1.8868001109
   82      C      11.2451012727    -1.1616110147     1.3904920782
   83      C      10.7455449248    -0.0491485057     2.0976565722
   84      C      -3.5298225158    -6.7667060866    -0.6673160466
   85      H      -3.0488504499    -3.9413421544    -0.6223658260
   86      H      -0.9072835779    -2.8236462695    -0.7145896912
   87      H       0.9070339182    -6.7978707126    -0.5289984768
   88      H       2.5217807316    -5.4041214326    -2.1863664724
   89      H       9.1120888682    -4.3431910925    -3.3303972756
   90      H       9.9615589816    -2.6345579502    -1.5773880596
   91      H      12.3011874418    -1.3807569127     1.2995686010
   92      H      11.2919869731     0.6308260385     2.7379890695
   93      H      -3.9046604783    -6.6623870459    -1.6926428431
   94      C      -4.6202768349    -6.2986078887     0.3755331540
   95      H      -3.3542100079    -7.8478287237    -0.6026624266
   96      H      -4.8772943057    -5.2968977029     0.0098929984
   97      H      -4.0928458229    -6.1864033247     1.3305827147
   98      C      -5.8980479464    -7.2361813366     0.4714707200
   99      H      -6.6806318377    -6.9392084230    -0.2374817054
  100      C      -6.5305746316    -7.2392476816     1.9150944902
  101      H      -5.5446386021    -8.2258500532     0.1596652248
  102      H      -6.7963349090    -6.2095490287     2.1861907080
  103      H      -5.7818770356    -7.5019180597     2.6733729234
  104      C      -7.8301821831    -8.0748277442     2.1125284564
  105      H      -8.1740170369    -7.9944761617     3.1516445310
  106      C      -7.7233461499    -9.5622430142     1.6877098167
  107      H      -8.6306716434    -7.5473076057     1.5796878354
  108      H      -8.6768701187   -10.1048014040     1.6734117517
  109      H      -6.9896104866   -10.1046785748     2.2962832626
  110      H      -7.3231995839    -9.6819505530     0.6736556609
 ----------------------------------------------------------------

   10   -5663.5101625827      4.80E-06 Convergence criterion met
 Total energy in the final basis set = -5663.5101625827

                    Orbital Energies (a.u.)
 --------------------------------------------------------------

 Alpha MOs
 -- Occupied --
-89.000 -88.990 -88.936 -88.927 -88.919 -88.919 -88.912 -88.906
-14.393 -14.393 -14.389 -14.383 -14.349 -14.348 -14.346 -14.341
-14.340 -14.326 -10.272 -10.270 -10.265 -10.263 -10.262 -10.259
-10.257 -10.256 -10.241 -10.241 -10.239 -10.239 -10.239 -10.238
-10.238 -10.237 -10.236 -10.236 -10.235 -10.235 -10.229 -10.229
-10.228 -10.228 -10.227 -10.227 -10.222 -10.221 -10.220 -10.220
-10.215 -10.213 -10.209 -10.204 -10.203 -10.203 -10.200 -10.194
-10.190 -10.189 -10.188 -10.184 -10.184 -10.183 -10.183 -10.179
-10.174 -10.173 -10.173 -10.171  -8.056  -8.046  -7.998  -7.987
 -7.977  -7.977  -7.974  -7.966  -6.021  -6.015  -6.014  -6.011
 -6.005  -6.004  -5.962  -5.958  -5.955  -5.951  -5.948  -5.944
 -5.942  -5.941  -5.939  -5.938  -5.937  -5.935  -5.934  -5.933
 -5.931  -5.930  -5.927  -5.923  -1.060  -1.057  -0.985  -0.967
 -0.965  -0.948  -0.944  -0.933  -0.923  -0.922  -0.915  -0.913
 -0.849  -0.840  -0.837  -0.831  -0.821  -0.817  -0.814  -0.810
 -0.799  -0.797  -0.796  -0.794  -0.789  -0.782  -0.772  -0.769
 -0.749  -0.749  -0.744  -0.741  -0.725  -0.715  -0.714  -0.711
 -0.694  -0.692  -0.681  -0.675  -0.659  -0.656  -0.652  -0.651
 -0.638  -0.637  -0.629  -0.622  -0.615  -0.613  -0.602  -0.601
 -0.598  -0.593  -0.588  -0.584  -0.580  -0.577  -0.567  -0.566
 -0.556  -0.549  -0.545  -0.541  -0.531  -0.530  -0.516  -0.516
 -0.506  -0.505  -0.502  -0.500  -0.492  -0.485  -0.482  -0.481
 -0.480  -0.476  -0.475  -0.470  -0.469  -0.462  -0.453  -0.452
 -0.450  -0.443  -0.439  -0.439  -0.436  -0.435  -0.432  -0.430
 -0.430  -0.429  -0.427  -0.424  -0.422  -0.419  -0.417  -0.415
 -0.413  -0.411  -0.409  -0.406  -0.402  -0.400  -0.399  -0.399
 -0.398  -0.395  -0.394  -0.393  -0.392  -0.389  -0.389  -0.386
 -0.384  -0.377  -0.376  -0.374  -0.367  -0.365  -0.363  -0.355
 -0.354  -0.353  -0.352  -0.350  -0.349  -0.344  -0.343  -0.341
 -0.339  -0.338  -0.335  -0.334  -0.331  -0.329  -0.328  -0.324
 -0.319  -0.319  -0.315  -0.313  -0.308  -0.308  -0.307  -0.306
 -0.303  -0.301  -0.298  -0.290  -0.289  -0.285  -0.283  -0.281
 -0.276  -0.274  -0.274  -0.269  -0.261  -0.254  -0.253  -0.253
 -0.245  -0.242  -0.233  -0.230  -0.193  -0.192

          Ground-State Mulliken Net Atomic Charges

     Atom                 Charge (a.u.)
  ----------------------------------------
      1 C                     0.247121
      2 C                    -0.102174
      3 N                    -0.478558
      4 C                    -0.083185
      5 C                     0.080623
      6 C                     0.018273
      7 C                     0.070914
      8 C                     0.059021
      9 C                     0.220710
     10 N                    -0.498852
     11 N                    -0.540493
     12 C                     0.220036
     13 C                     0.209210
     14 S                     0.618476
     15 N                    -0.530081
     16 C                    -0.231855
     17 S                     0.348832
     18 C                    -0.101100
     19 C                    -0.214687
     20 S                     0.284853
     21 C                     0.129642
     22 C                     0.052963
     23 C                    -0.299110
     24 C                    -0.095798
     25 N                    -0.439319
     26 S                     0.262122
     27 C                     0.130159
     28 C                    -0.312826
     29 C                    -0.229120
     30 H                     0.091285
     31 H                     0.128865
     32 H                     0.107423
     33 H                     0.112510
     34 H                     0.136563
     35 H                     0.115465
     36 H                     0.117635
     37 H                     0.131566
     38 H                     0.104144
     39 C                    -0.168044
     40 H                     0.118886
     41 H                     0.094743
     42 H                     0.108052
     43 C                    -0.191046
     44 H                     0.090585
     45 C                    -0.174437
     46 H                     0.095740
     47 H                     0.087777
     48 H                     0.085185
     49 C                    -0.157851
     50 H                     0.089653
     51 C                    -0.312640
     52 H                     0.093421
     53 H                     0.098871
     54 H                     0.101583
     55 H                     0.098427
     56 C                     0.288138
     57 C                    -0.131962
     58 N                    -0.476834
     59 C                    -0.039931
     60 C                     0.067940
     61 C                     0.005817
     62 C                     0.030107
     63 C                     0.045879
     64 C                     0.228049
     65 N                    -0.527242
     66 N                    -0.564886
     67 C                     0.202104
     68 C                     0.340697
     69 S                     0.603580
     70 N                    -0.539952
     71 C                    -0.237458
     72 S                     0.282247
     73 C                    -0.072324
     74 C                    -0.221477
     75 S                     0.265897
     76 C                     0.111956
     77 C                     0.042986
     78 C                    -0.324869
     79 C                    -0.016209
     80 N                    -0.416202
     81 S                     0.295204
     82 C                     0.129721
     83 C                    -0.319555
     84 C                    -0.242343
     85 H                     0.085487
     86 H                     0.114739
     87 H                     0.107846
     88 H                     0.118054
     89 H                     0.123117
     90 H                     0.131400
     91 H                     0.116367
     92 H                     0.132792
     93 H                     0.108020
     94 C                    -0.187977
     95 H                     0.119152
     96 H                     0.094361
     97 H                     0.107075
     98 C                    -0.177841
     99 H                     0.095746
    100 C                    -0.181334
    101 H                     0.102601
    102 H                     0.091229
    103 H                     0.094332
    104 C                    -0.180905
    105 H                     0.094361
    106 C                    -0.319571
    107 H                     0.091587
    108 H                     0.100894
    109 H                     0.104488
    110 H                     0.104745
  ----------------------------------------
  Sum of atomic charges =     0.000000

                    Cartesian Multipole Moments
 -----------------------------------------------------------------
    Charge (ESU x 10^10)
                 0.0000
    Dipole Moment (Debye)
         X       1.6167      Y       0.5202      Z      -0.1564
       Tot       1.7056
    Quadrupole Moments (Debye-Ang)
        XX    -375.1914     XY      39.4589     YY    -472.3270
        XZ      15.4863     YZ       4.4319     ZZ    -445.7658

 Total job time:  87.08s(wall), 1015.11s(cpu)
        *  Thank you very much for using Q-Chem.  Have a nice day.  *
