 Q-Chem 4.4, Q-Chem, Inc., Pleasanton, CA (2016)
 Q-Chem 4.4.2 for Intel X86 Linux

User input:
--------------------------------------------------------------
$comment
SP
$end

$rem
MEM_STATIC 5000
MEM_TOTAL 20000
JOBTYPE SP
EXCHANGE B3LYP
BASIS 6-31g(d,p)
$end

$molecule
0 1
C          -2.314000     18.947000     -3.181000
C          -2.544000     20.271000     -2.738000
N          -1.255000     18.624000     -3.950000
C          -1.733000     21.282000     -3.262000
C          -0.450000     19.581000     -4.410000
C          -0.639000     20.975000     -4.136000
C           0.350000     22.019000     -4.482000
C          -0.091000     23.158000     -5.273000
C           1.687000     21.928000     -4.162000
N           0.806000     24.108000     -5.616000
N           2.341000     20.933000     -3.525000
C           2.612000     22.965000     -4.496000
C           2.068000     24.085000     -5.134000
S           3.988000     21.192000     -3.605000
N           3.941000     22.654000     -4.340000
C           2.726000     25.389000     -5.241000
S           2.408000     26.686000     -6.430000
C           3.707000     25.863000     -4.392000
C           3.671000     27.744000     -5.782000
S           4.183000     25.294000     -2.820000
C           4.166000     27.145000     -4.704000
C           3.838000     29.154000     -6.002000
C           4.937000     26.848000     -2.448000
C           4.794000     27.734000     -3.548000
N           2.793000     29.990000     -5.958000
S           5.416000     29.917000     -6.112000
C           3.226000     31.259000     -5.854000
C           4.587000     31.462000     -6.015000
C          -3.185000     17.845000     -2.456000
H          -3.279000     20.454000     -1.960000
H          -1.971000     22.323000     -3.060000
H           0.308000     19.244000     -5.115000
H          -1.131000     23.113000     -5.593000
H           5.407000     26.989000     -1.483000
H           5.281000     28.702000     -3.502000
H           2.490000     32.051000     -5.894000
H           5.114000     32.406000     -6.044000
H          -3.523000     18.119000     -1.449000
C          -2.564000     16.399000     -2.504000
H          -4.140000     17.933000     -2.989000
H          -1.743000     16.356000     -1.778000
H          -2.073000     16.125000     -3.446000
C          -3.652000     15.352000     -2.071000
H          -4.018000     15.589000     -1.064000
C          -3.227000     13.923000     -2.247000
H          -4.504000     15.467000     -2.752000
H          -2.806000     13.784000     -3.250000
H          -4.145000     13.325000     -2.183000
C          -2.261000     13.248000     -1.317000
H          -1.519000     14.016000     -1.066000
C          -1.679000     11.901000     -1.787000
H          -2.749000     13.077000     -0.350000
H          -1.355000     12.068000     -2.822000
H          -2.505000     11.193000     -1.648000
H          -0.865000     11.520000     -1.157000
C           3.628000      8.313000      2.806000
C           2.287000      8.209000      2.378000
N           4.258000      9.459000      2.861000
C           1.574000      9.332000      1.948000
C           3.606000     10.581000      2.454000
C           2.305000     10.562000      1.892000
C           1.611000     11.803000      1.541000
C           2.222000     12.835000      0.790000
C           0.262000     12.004000      1.910000
N           1.667000     14.056000      0.636000
N          -0.523000     11.123000      2.536000
C          -0.350000     13.276000      1.721000
C           0.445000     14.270000      1.059000
S          -1.934000     11.923000      2.724000
N          -1.580000     13.377000      2.232000
C          -0.019000     15.644000      0.852000
S          -1.628000     16.318000      1.410000
C           0.589000     16.656000      0.156000
C          -1.342000     17.923000      0.691000
S           1.980000     16.734000     -0.788000
C          -0.147000     17.861000      0.063000
C          -2.233000     19.057000      0.717000
C           1.466000     18.341000     -1.454000
C           0.272000     18.780000     -0.922000
N          -1.721000     20.283000      0.587000
S          -3.813000     18.913000      1.295000
C          -2.665000     21.186000      0.837000
C          -3.906000     20.645000      1.230000
C           4.478000      7.153000      3.287000
H           1.772000      7.253000      2.347000
H           0.581000      9.192000      1.531000
H           4.103000     11.530000      2.649000
H           3.220000     12.698000      0.379000
H           2.076000     18.864000     -2.178000
H          -0.184000     19.712000     -1.236000
H          -2.514000     22.239000      0.637000
H          -4.803000     21.179000      1.515000
H           4.754000      6.629000      2.364000
C           3.777000      6.165000      4.301000
H           5.457000      7.479000      3.660000
H           2.980000      5.728000      3.687000
H           3.309000      6.800000      5.063000
C           4.728000      5.050000      4.912000
H           4.750000      4.144000      4.294000
C           4.298000      4.630000      6.369000
H           5.733000      5.486000      4.874000
H           3.262000      4.269000      6.341000
H           4.230000      5.505000      7.028000
C           5.121000      3.494000      7.046000
H           4.725000      3.290000      8.049000
C           6.651000      3.739000      7.104000
H           4.869000      2.564000      6.522000
H           7.242000      2.874000      7.430000
H           6.897000      4.616000      7.715000
H           7.071000      4.007000      6.127000
$end

--------------------------------------------------------------

             Standard Nuclear Orientation (Angstroms)
    I     Atom           X                Y                Z
 ----------------------------------------------------------------
    1      C       1.6062834988     3.6145059694    -1.3528983064
    2      C       2.6129275067     3.8339142493    -0.3830257127
    3      N       1.6747437054     2.5998382382    -2.2377336556
    4      C       3.7794954599     3.0686825877    -0.4722317361
    5      C       2.7652661392     1.8360617114    -2.2914015084
    6      C       3.9077963323     2.0256114712    -1.4471689301
    7      C       5.0361636876     1.0723988926    -1.3700593223
    8      C       6.3848834156     1.5744888488    -1.5853353572
    9      C       4.8684596580    -0.2824941416    -1.1846133082
   10      N       7.4233554370     0.7117457197    -1.5405229267
   11      N       3.7227662806    -0.9860954939    -1.0587490075
   12      C       5.9830956007    -1.1726391039    -1.0964165875
   13      C       7.2466238531    -0.5772060789    -1.1760147538
   14      S       4.0516846424    -2.6219098557    -1.1036275646
   15      N       5.6843436725    -2.5124104996    -1.1517148035
   16      C       8.4984200471    -1.2112049605    -0.7566334156
   17      S      10.1619111468    -0.8059119807    -1.2719866555
   18      C       8.6082267187    -2.2356021411     0.1633616448
   19      C      10.8960841572    -2.0923554691    -0.3021979456
   20      S       7.4501964163    -2.8125843669     1.3242140600
   21      C       9.9187557370    -2.6588946686     0.3976395317
   22      C      12.2734065991    -2.2281482452     0.0837194199
   23      C       8.7313494087    -3.5681534469     2.2779322444
   24      C       9.9911410164    -3.3480321610     1.6615583930
   25      N      12.9748782009    -1.1773322391     0.5270932049
   26      S      13.0695197135    -3.7869841277     0.2272032180
   27      C      14.0981644219    -1.5999162138     1.1339843401
   28      C      14.3997703195    -2.9460899822     1.0063087059
   29      C       0.2706616210     4.4263683719    -1.1169668775
   30      H       2.4255979095     4.5229038851     0.4350200707
   31      H       4.6302474786     3.3070670481     0.1606370114
   32      H       2.7831362960     1.1177894913    -3.1092790514
   33      H       6.4401305264     2.6312451558    -1.8427044780
   34      H       8.4717049787    -4.0936764689     3.1881060318
   35      H      10.8677219248    -3.8247799661     2.0865600886
   36      H      14.8063012264    -0.8529998789     1.4674783504
   37      H      15.2875102570    -3.4585403719     1.3512991428
   38      H       0.0843831661     4.7064430107    -0.0728272633
   39      C      -0.9979798653     3.7913631641    -1.7997392885
   40      H       0.5390089096     5.4127898826    -1.5154895696
   41      H      -1.3113849357     2.9276145050    -1.2008390333
   42      H      -0.8333519175     3.3546601149    -2.7925681184
   43      C      -2.1691947679     4.8381053996    -1.7944153414
   44      H      -2.3900608445     5.1456643597    -0.7644640502
   45      C      -3.3759179582     4.4066576593    -2.5762810520
   46      H      -1.8104970900     5.7309824161    -2.3207200148
   47      H      -3.0658224832     4.0451870455    -3.5640820400
   48      H      -3.9788555675     5.3115816918    -2.7246142401
   49      C      -4.3428154189     3.3779844921    -2.0657697244
   50      H      -3.7242728603     2.6318612418    -1.5518687627
   51      C      -5.3460780997     2.8085842664    -3.0871806977
   52      H      -4.9214480729     3.8046228714    -1.2377371496
   53      H      -4.7485683340     2.5496842844    -3.9703810596
   54      H      -6.0768726587     3.6157861155    -3.2184266018
   55      H      -5.9260474611     1.9533844144    -2.7171458980
   56      C     -10.3323485984    -2.8101030238    -0.6994827168
   57      C     -10.2963599561    -1.4471443241    -1.0646257030
   58      N      -9.2928438788    -3.4278968421    -0.1984819824
   59      C      -9.1235611059    -0.6955342270    -0.9462064518
   60      C      -8.1283612067    -2.7385701276    -0.0626667135
   61      C      -7.9575988938    -1.4063943849    -0.5153851945
   62      C      -6.7102110035    -0.6770357740    -0.2766856604
   63      C      -5.4367164279    -1.2286990887    -0.5527746915
   64      C      -6.7321852055     0.6496715737     0.2088323600
   65      N      -4.2850027295    -0.6502034295    -0.1509285401
   66      N      -7.8226705678     1.3844284356     0.4438558238
   67      C      -5.5216234831     1.2878067302     0.6032595881
   68      C      -4.3131760736     0.5466518617     0.3826936806
   69      S      -7.2276861641     2.7914185994     1.0206029421
   70      N      -5.6894976398     2.4859288725     1.1694252878
   71      C      -2.9971157600     1.0394281385     0.7964300605
   72      S      -2.6788850713     2.6201610844     1.6650689857
   73      C      -1.7649424229     0.4871932893     0.5618889366
   74      C      -0.9110120245     2.3981153365     1.6751969822
   75      S      -1.2471735118    -0.8432811402    -0.3290959943
   76      C      -0.6599707589     1.2424679873     1.0212011968
   77      C       0.0739561588     3.3000341431     2.2200760000
   78      C       0.4709240971    -0.2700149105    -0.2305696723
   79      C       0.6021383005     0.8951350069     0.4950951972
   80      N       1.2592939167     2.8121697595     2.5930139882
   81      S      -0.3570884544     4.8403901197     2.7611157460
   82      C       1.9388332232     3.7505957632     3.2461816287
   83      C       1.2377392020     4.9587849881     3.4358048606
   84      C     -11.5550727045    -3.7019904182    -0.7940535157
   85      H     -11.1693760038    -0.9432039359    -1.4696060303
   86      H      -9.1120689664     0.3189714935    -1.3337423518
   87      H      -7.3311471159    -3.2345193264     0.4888032183
   88      H      -5.3519555824    -2.2017401939    -1.0320456030
   89      H       1.2713783520    -0.8286711560    -0.6963820650
   90      H       1.5624678132     1.3808515542     0.6254894563
   91      H       2.9833696395     3.6251038406     3.5007507792
   92      H       1.5696280907     5.8435770403     3.9630455930
   93      H     -11.6330619187    -3.9283722142    -1.8642637591
   94      C     -12.9022799320    -3.0758034001    -0.2567793729
   95      H     -11.3799146535    -4.6975447683    -0.3673953467
   96      H     -13.0703483822    -2.2487621343    -0.9574431587
   97      H     -12.6631225153    -2.6466919179     0.7238123189
   98      C     -14.1350116741    -4.0757739804    -0.2196540361
   99      H     -14.6967440377    -4.0718009397    -1.1618243851
  100      C     -15.1429039218    -3.7396793129     0.9445377829
  101      H     -13.6867262753    -5.0711256738    -0.1202548025
  102      H     -15.4966150514    -2.7084698452     0.8184565768
  103      H     -14.6281756035    -3.7005989608     1.9130714604
  104      C     -16.4270652104    -4.6161342460     1.0389334141
  105      H     -17.0473544129    -4.2839042210     1.8811361900
  106      C     -16.1730249695    -6.1436652803     1.1189427587
  107      H     -17.0600510304    -4.3446481089     0.1853502436
  108      H     -17.0726629318    -6.7640115494     1.0209425382
  109      H     -15.6248253254    -6.4150703935     2.0293176347
  110      H     -15.5047112149    -6.5006171497     0.3260398085
 ----------------------------------------------------------------

   10   -5663.4931913185      5.02E-06 Convergence criterion met
 Total energy in the final basis set = -5663.4931913185

                    Orbital Energies (a.u.)
 --------------------------------------------------------------

 Alpha MOs
 -- Occupied --
-88.997 -88.986 -88.935 -88.933 -88.923 -88.914 -88.908 -88.898
-14.393 -14.388 -14.383 -14.379 -14.355 -14.345 -14.344 -14.344
-14.330 -14.323 -10.272 -10.268 -10.267 -10.261 -10.259 -10.258
-10.255 -10.252 -10.252 -10.241 -10.237 -10.237 -10.237 -10.235
-10.234 -10.234 -10.233 -10.233 -10.232 -10.230 -10.229 -10.229
-10.227 -10.225 -10.225 -10.222 -10.218 -10.217 -10.215 -10.211
-10.208 -10.208 -10.207 -10.206 -10.199 -10.197 -10.196 -10.189
-10.186 -10.186 -10.182 -10.181 -10.181 -10.181 -10.172 -10.172
-10.172 -10.171 -10.165 -10.164  -8.052  -8.042  -7.997  -7.993
 -7.982  -7.972  -7.969  -7.958  -6.017  -6.011  -6.010  -6.007
 -6.001  -6.000  -5.961  -5.957  -5.957  -5.955  -5.954  -5.951
 -5.946  -5.943  -5.938  -5.937  -5.933  -5.933  -5.929  -5.929
 -5.925  -5.923  -5.919  -5.915  -1.053  -1.030  -0.984  -0.972
 -0.963  -0.959  -0.940  -0.937  -0.918  -0.918  -0.907  -0.899
 -0.842  -0.834  -0.833  -0.831  -0.820  -0.817  -0.808  -0.806
 -0.799  -0.798  -0.796  -0.793  -0.784  -0.778  -0.765  -0.765
 -0.747  -0.746  -0.739  -0.737  -0.723  -0.710  -0.707  -0.707
 -0.693  -0.689  -0.680  -0.671  -0.656  -0.653  -0.648  -0.648
 -0.638  -0.634  -0.627  -0.625  -0.611  -0.609  -0.601  -0.600
 -0.594  -0.593  -0.585  -0.580  -0.578  -0.570  -0.564  -0.552
 -0.551  -0.550  -0.543  -0.541  -0.526  -0.525  -0.522  -0.513
 -0.508  -0.502  -0.502  -0.497  -0.488  -0.484  -0.479  -0.478
 -0.473  -0.469  -0.466  -0.465  -0.459  -0.458  -0.455  -0.452
 -0.448  -0.445  -0.442  -0.439  -0.437  -0.436  -0.433  -0.431
 -0.427  -0.425  -0.421  -0.419  -0.419  -0.418  -0.415  -0.415
 -0.411  -0.410  -0.409  -0.406  -0.405  -0.401  -0.397  -0.394
 -0.394  -0.391  -0.389  -0.387  -0.386  -0.386  -0.383  -0.382
 -0.380  -0.377  -0.372  -0.369  -0.364  -0.364  -0.357  -0.352
 -0.350  -0.349  -0.348  -0.346  -0.342  -0.340  -0.338  -0.337
 -0.333  -0.329  -0.328  -0.327  -0.326  -0.324  -0.316  -0.315
 -0.313  -0.313  -0.311  -0.309  -0.305  -0.305  -0.301  -0.300
 -0.300  -0.295  -0.292  -0.289  -0.285  -0.285  -0.285  -0.281
 -0.279  -0.270  -0.265  -0.261  -0.251  -0.250  -0.249  -0.246
 -0.245  -0.237  -0.232  -0.226  -0.198  -0.188

          Ground-State Mulliken Net Atomic Charges

     Atom                 Charge (a.u.)
  ----------------------------------------
      1 C                     0.270469
      2 C                    -0.104030
      3 N                    -0.472127
      4 C                    -0.082675
      5 C                     0.097555
      6 C                    -0.000257
      7 C                    -0.008742
      8 C                     0.090196
      9 C                     0.317739
     10 N                    -0.503566
     11 N                    -0.602474
     12 C                     0.150061
     13 C                     0.278959
     14 S                     0.629403
     15 N                    -0.523528
     16 C                    -0.206104
     17 S                     0.332763
     18 C                    -0.117071
     19 C                    -0.198400
     20 S                     0.260841
     21 C                     0.132746
     22 C                    -0.001047
     23 C                    -0.299845
     24 C                    -0.080732
     25 N                    -0.382717
     26 S                     0.277737
     27 C                     0.118930
     28 C                    -0.306598
     29 C                    -0.244526
     30 H                     0.097682
     31 H                     0.094854
     32 H                     0.104853
     33 H                     0.128667
     34 H                     0.138356
     35 H                     0.110730
     36 H                     0.113639
     37 H                     0.135269
     38 H                     0.109845
     39 C                    -0.180677
     40 H                     0.109901
     41 H                     0.117456
     42 H                     0.117165
     43 C                    -0.180731
     44 H                     0.091346
     45 C                    -0.167325
     46 H                     0.089689
     47 H                     0.084753
     48 H                     0.078265
     49 C                    -0.193687
     50 H                     0.099226
     51 C                    -0.316467
     52 H                     0.087545
     53 H                     0.107622
     54 H                     0.103110
     55 H                     0.098485
     56 C                     0.288175
     57 C                    -0.132304
     58 N                    -0.477659
     59 C                    -0.038160
     60 C                     0.066819
     61 C                     0.006276
     62 C                     0.028396
     63 C                     0.047088
     64 C                     0.229353
     65 N                    -0.526878
     66 N                    -0.564738
     67 C                     0.216066
     68 C                     0.339302
     69 S                     0.594963
     70 N                    -0.540667
     71 C                    -0.236556
     72 S                     0.275796
     73 C                    -0.066637
     74 C                    -0.220434
     75 S                     0.253051
     76 C                     0.105033
     77 C                     0.036386
     78 C                    -0.325365
     79 C                    -0.010095
     80 N                    -0.410108
     81 S                     0.290124
     82 C                     0.124776
     83 C                    -0.321552
     84 C                    -0.242004
     85 H                     0.086595
     86 H                     0.117569
     87 H                     0.106659
     88 H                     0.117377
     89 H                     0.138892
     90 H                     0.136625
     91 H                     0.114752
     92 H                     0.131566
     93 H                     0.108221
     94 C                    -0.188895
     95 H                     0.118123
     96 H                     0.095587
     97 H                     0.106442
     98 C                    -0.176856
     99 H                     0.096052
    100 C                    -0.181891
    101 H                     0.102063
    102 H                     0.091442
    103 H                     0.093801
    104 C                    -0.180839
    105 H                     0.093696
    106 C                    -0.319243
    107 H                     0.091972
    108 H                     0.100374
    109 H                     0.104064
    110 H                     0.104872
  ----------------------------------------
  Sum of atomic charges =     0.000000

                    Cartesian Multipole Moments
 -----------------------------------------------------------------
    Charge (ESU x 10^10)
                 0.0000
    Dipole Moment (Debye)
         X       2.1281      Y       1.6712      Z       2.1423
       Tot       3.4513
    Quadrupole Moments (Debye-Ang)
        XX    -388.9874     XY     -31.1993     YY    -419.7775
        XZ      32.0288     YZ       7.6940     ZZ    -443.7600

 Total job time:  101.27s(wall), 1220.00s(cpu)
        *  Thank you very much for using Q-Chem.  Have a nice day.  *
