 Q-Chem 4.4, Q-Chem, Inc., Pleasanton, CA (2016)
 Q-Chem 4.4.2 for Intel X86 Linux

User input:
--------------------------------------------------------------
$comment
SP
$end

$rem
MEM_STATIC 5000
MEM_TOTAL 20000
JOBTYPE SP
EXCHANGE B3LYP
BASIS 6-31g(d,p)
$end

$molecule
0 1
C           2.497000     10.730000     -2.650000
C           3.576000     10.688000     -1.715000
N           1.790000      9.592000     -2.954000
C           3.907000      9.486000     -1.091000
C           2.103000      8.418000     -2.303000
C           3.197000      8.306000     -1.384000
C           3.570000      7.025000     -0.682000
C           4.881000      6.645000     -0.533000
C           2.518000      6.111000     -0.170000
N           5.224000      5.581000      0.198000
N           1.184000      6.291000     -0.260000
C           2.908000      4.940000      0.521000
C           4.332000      4.702000      0.722000
S           0.512000      4.992000      0.420000
N           1.835000      4.186000      0.999000
C           4.821000      3.479000      1.383000
S           4.064000      1.896000      1.345000
C           6.150000      3.377000      1.894000
C           5.444000      1.202000      2.172000
S           7.393000      4.557000      2.207000
C           6.416000      2.147000      2.315000
C           5.439000     -0.045000      2.870000
C           8.293000      3.275000      2.906000
C           7.653000      2.056000      2.981000
N           4.444000     -0.895000      2.467000
S           6.327000     -0.445000      4.246000
C           4.521000     -2.013000      3.290000
C           5.341000     -1.870000      4.337000
C           2.046000     11.990000     -3.414000
H           4.295000     11.494000     -1.604000
H           4.768000      9.399000     -0.435000
H           1.614000      7.500000     -2.626000
H           5.640000      7.268000     -1.004000
H           9.278000      3.591000      3.225000
H           8.098000      1.197000      3.470000
H           3.847000     -2.843000      3.127000
H           5.382000     -2.480000      5.230000
H           1.370000     11.707000     -4.230000
C           3.153000     12.746000     -4.173000
H           1.506000     12.652000     -2.725000
H           4.017000     13.031000     -3.559000
H           2.694000     13.707000     -4.437000
C           3.679000     12.095000     -5.417000
H           4.012000     11.066000     -5.238000
C           4.825000     12.930000     -6.101000
H           2.821000     12.061000     -6.099000
H           5.654000     13.001000     -5.386000
H           4.496000     13.945000     -6.355000
C           5.273000     12.201000     -7.458000
H           6.205000     12.702000     -7.749000
C           4.266000     12.385000     -8.641000
H           5.586000     11.165000     -7.281000
H           3.355000     11.786000     -8.523000
H           4.701000     12.120000     -9.612000
H           4.013000     13.452000     -8.629000
C           3.628000      8.313000      2.806000
C           2.287000      8.209000      2.378000
N           4.258000      9.459000      2.861000
C           1.574000      9.332000      1.948000
C           3.606000     10.581000      2.454000
C           2.305000     10.562000      1.892000
C           1.611000     11.803000      1.541000
C           2.222000     12.835000      0.790000
C           0.262000     12.004000      1.910000
N           1.667000     14.056000      0.636000
N          -0.523000     11.123000      2.536000
C          -0.350000     13.276000      1.721000
C           0.445000     14.270000      1.059000
S          -1.934000     11.923000      2.724000
N          -1.580000     13.377000      2.232000
C          -0.019000     15.644000      0.852000
S          -1.628000     16.318000      1.410000
C           0.589000     16.656000      0.156000
C          -1.342000     17.923000      0.691000
S           1.980000     16.734000     -0.788000
C          -0.147000     17.861000      0.063000
C          -2.233000     19.057000      0.717000
C           1.466000     18.341000     -1.454000
C           0.272000     18.780000     -0.922000
N          -1.721000     20.283000      0.587000
S          -3.813000     18.913000      1.295000
C          -2.665000     21.186000      0.837000
C          -3.906000     20.645000      1.230000
C           4.478000      7.153000      3.287000
H           1.772000      7.253000      2.347000
H           0.581000      9.192000      1.531000
H           4.103000     11.530000      2.649000
H           3.220000     12.698000      0.379000
H           2.076000     18.864000     -2.178000
H          -0.184000     19.712000     -1.236000
H          -2.514000     22.239000      0.637000
H          -4.803000     21.179000      1.515000
H           4.754000      6.629000      2.364000
C           3.777000      6.165000      4.301000
H           5.457000      7.479000      3.660000
H           2.980000      5.728000      3.687000
H           3.309000      6.800000      5.063000
C           4.728000      5.050000      4.912000
H           4.750000      4.144000      4.294000
C           4.298000      4.630000      6.369000
H           5.733000      5.486000      4.874000
H           3.262000      4.269000      6.341000
H           4.230000      5.505000      7.028000
C           5.121000      3.494000      7.046000
H           4.725000      3.290000      8.049000
C           6.651000      3.739000      7.104000
H           4.869000      2.564000      6.522000
H           7.242000      2.874000      7.430000
H           6.897000      4.616000      7.715000
H           7.071000      4.007000      6.127000
$end

--------------------------------------------------------------

             Standard Nuclear Orientation (Angstroms)
    I     Atom           X                Y                Z
 ----------------------------------------------------------------
    1      C      -1.9772962953     3.1593327624    -0.7034882950
    2      C      -1.3609204047     2.7290791819     0.5110867822
    3      N      -1.2581087662     3.2112077647    -1.8728416557
    4      C      -0.0215666225     2.3419464962     0.5102324880
    5      C       0.0546661911     2.7909153730    -1.8681281882
    6      C       0.7369810196     2.3844598901    -0.6751565140
    7      C       2.1791156951     1.9459303202    -0.6462879508
    8      C       3.0292471965     2.3439689685     0.3557917191
    9      C       2.7334784347     1.1025865741    -1.7351852273
   10      N       4.2688023062     1.8570818365     0.4585051584
   11      N       2.0689531449     0.6504552701    -2.8187162251
   12      C       4.0794118525     0.6758405361    -1.6504913438
   13      C       4.8515927877     1.0642777290    -0.4767476961
   14      S       3.1450229352    -0.1795075628    -3.6874051812
   15      N       4.4736879275    -0.1518930150    -2.7029800825
   16      C       6.2746535632     0.7065091794    -0.3401069476
   17      S       7.4343013571     0.5148569336    -1.6435134117
   18      C       6.9509242925     0.7667624697     0.9155974132
   19      C       8.7314382259     0.3322711582    -0.4798711221
   20      S       6.3892086833     0.9162615086     2.5580174605
   21      C       8.2514792979     0.5415429997     0.7787403048
   22      C      10.0050736748    -0.2533297118    -0.7576522667
   23      C       8.0222953784     0.6885286236     3.0305537867
   24      C       8.9155884222     0.4227425211     2.0143986383
   25      N      10.3380017622    -0.2374176533    -2.0857485340
   26      S      10.9668508475    -1.1473262150     0.2995491911
   27      C      11.5489702527    -0.9112526706    -2.1983703992
   28      C      11.9257287589    -1.5549533956    -1.0880729594
   29      C      -3.4409833877     3.6249318732    -0.8281260249
   30      H      -1.8122881499     2.8742062595     1.4878791296
   31      H       0.5008729366     2.0837394345     1.4265359423
   32      H       0.6486164888     2.9362260807    -2.7693949867
   33      H       2.6420459921     3.0473273156     1.0915996171
   34      H       8.1550189890     0.7701278061     4.1017997979
   35      H       9.9568058920     0.1888357892     2.2046112075
   36      H      12.0280210661    -0.9898040908    -3.1648511246
   37      H      12.6752626096    -2.3304208288    -0.9981882190
   38      H      -3.5917968942     4.1198720393    -1.7951888554
   39      C      -3.8812233349     4.7238622878     0.1575751127
   40      H      -4.1006053922     2.7493045692    -0.7757749443
   41      H      -3.7047953762     4.4884032261     1.2150008575
   42      H      -4.9751695351     4.7411093228     0.0746157799
   43      C      -3.3481594817     6.1027760312    -0.0923305025
   44      H      -2.2549619864     6.1169056199    -0.1728947060
   45      C      -3.8311460970     7.1446671630     0.9845092251
   46      H      -3.7645805137     6.3915495532    -1.0647745251
   47      H      -3.4522713992     6.8124755472     1.9589884161
   48      H      -4.9252160761     7.2015815161     1.0369843360
   49      C      -3.2779871771     8.6000538604     0.5979102464
   50      H      -3.4553833818     9.2120777398     1.4913660974
   51      C      -4.0474046958     9.2798288769    -0.5824696114
   52      H      -2.1860538394     8.6084446454     0.4968895516
   53      H      -3.8079440753     8.8393253935    -1.5577958605
   54      H      -3.8438304719    10.3546812808    -0.6569064659
   55      H      -5.1078912534     9.1202620974    -0.3532345700
   56      C       1.7281438155    -1.2908429351     1.1280782058
   57      C       1.2517415892    -1.4225979084    -0.1940271402
   58      N       0.9238031225    -1.1449706045     2.1503297956
   59      C      -0.1149146876    -1.3606589692    -0.4817982105
   60      C      -0.4152559280    -1.0800170632     1.9215528375
   61      C      -0.9814858826    -1.0768947408     0.6222530685
   62      C      -2.4328251855    -1.0853395071     0.4261385260
   63      C      -3.3021523894    -0.2021105006     1.1091632214
   64      C      -3.0296982064    -1.9655660294    -0.5040801935
   65      N      -4.6454301810    -0.3355650306     1.0897554097
   66      N      -2.3858912029    -2.8096514271    -1.3148171322
   67      C      -4.4470554706    -2.0917263212    -0.5626546470
   68      C      -5.1973487383    -1.2158150238     0.2906591354
   69      S      -3.5868656791    -3.5755870945    -2.1131077190
   70      N      -4.8813193355    -3.0507323638    -1.3848129688
   71      C      -6.6576405410    -1.2716993824     0.3928637808
   72      S      -7.7412150188    -2.4495741500    -0.4976407857
   73      C      -7.4987979360    -0.4392141546     1.0839835841
   74      C      -9.2433310903    -1.7501357362     0.1575043990
   75      S      -7.2562234106     0.9725227288     1.9673054799
   76      C      -8.8807344168    -0.6993547205     0.9260328041
   77      C     -10.5927997742    -2.1774158941    -0.1197661151
   78      C      -9.0389174640     1.3074861796     1.9657566739
   79      C      -9.7636477834     0.3279904705     1.3202064278
   80      N     -11.5498174573    -1.9119961561     0.7723042392
   81      S     -10.9171769916    -3.3248635511    -1.3153259401
   82      C     -12.6631682907    -2.5552122624     0.4320573256
   83      C     -12.5406507691    -3.3809712150    -0.7038663554
   84      C       3.1882883970    -1.3438233771     1.5338267409
   85      H       1.9295328961    -1.5537780090    -1.0327837947
   86      H      -0.4304434973    -1.3635156329    -1.5210149394
   87      H      -1.0602444845    -1.1061217774     2.7984469622
   88      H      -2.8989554072     0.5752038664     1.7548477949
   89      H      -9.4398007453     2.1887747185     2.4478646554
   90      H     -10.8401509560     0.3936293156     1.2107145960
   91      H     -13.6073441754    -2.3601392896     0.9240821564
   92      H     -13.2940394947    -4.0209143106    -1.1441710938
   93      H       3.5797731146    -0.3639531540     1.2350374143
   94      C       4.0378283295    -2.5059327279     0.8830389415
   95      H       3.3205843545    -1.3146035926     2.6226288275
   96      H       4.0240153141    -2.2370923508    -0.1803086273
   97      H       3.4434958610    -3.4189013797     1.0101222122
   98      C       5.5196553372    -2.6404028453     1.4371630312
   99      H       6.2282824346    -2.0232402906     0.8712990742
  100      C       6.0391185806    -4.1280111629     1.4007153672
  101      H       5.4786602772    -2.2287741829     2.4522720152
  102      H       5.9873639166    -4.4947310559     0.3676427779
  103      H       5.3503079433    -4.7995392485     1.9290333929
  104      C       7.5070160572    -4.3726093179     1.8607183461
  105      H       7.7509451097    -5.4400289507     1.7861868432
  106      C       7.8491068327    -3.8331520187     3.2736050095
  107      H       8.1572528959    -3.9487567321     1.0857854205
  108      H       8.9158618103    -3.8595788391     3.5287862020
  109      H       7.2624246560    -4.3367921103     4.0514974710
  110      H       7.5608181452    -2.7830408220     3.4036400331
 ----------------------------------------------------------------

   10   -5663.5194117839      3.64E-06 Convergence criterion met
 Total energy in the final basis set = -5663.5194117839

                    Orbital Energies (a.u.)
 --------------------------------------------------------------

 Alpha MOs
 -- Occupied --
-88.991 -88.986 -88.933 -88.933 -88.929 -88.915 -88.914 -88.904
-14.395 -14.389 -14.387 -14.379 -14.349 -14.346 -14.343 -14.342
-14.332 -14.322 -10.270 -10.267 -10.265 -10.264 -10.262 -10.259
-10.255 -10.252 -10.242 -10.238 -10.238 -10.237 -10.236 -10.235
-10.234 -10.233 -10.232 -10.229 -10.228 -10.227 -10.226 -10.225
-10.225 -10.224 -10.223 -10.223 -10.218 -10.217 -10.214 -10.209
-10.209 -10.206 -10.203 -10.201 -10.200 -10.199 -10.193 -10.192
-10.185 -10.182 -10.181 -10.181 -10.178 -10.178 -10.176 -10.175
-10.174 -10.174 -10.173 -10.169  -8.047  -8.042  -7.996  -7.995
 -7.987  -7.975  -7.974  -7.964  -6.012  -6.007  -6.006  -6.004
 -6.002  -6.000  -5.960  -5.959  -5.956  -5.955  -5.953  -5.952
 -5.952  -5.948  -5.944  -5.939  -5.939  -5.935  -5.935  -5.931
 -5.931  -5.929  -5.925  -5.921  -1.053  -1.035  -0.982  -0.966
 -0.964  -0.956  -0.939  -0.926  -0.921  -0.918  -0.910  -0.901
 -0.857  -0.837  -0.833  -0.827  -0.819  -0.815  -0.807  -0.807
 -0.802  -0.795  -0.795  -0.790  -0.776  -0.776  -0.766  -0.764
 -0.754  -0.746  -0.742  -0.736  -0.731  -0.712  -0.709  -0.706
 -0.694  -0.688  -0.674  -0.672  -0.655  -0.651  -0.647  -0.640
 -0.635  -0.633  -0.624  -0.623  -0.609  -0.608  -0.598  -0.598
 -0.596  -0.594  -0.583  -0.578  -0.574  -0.572  -0.564  -0.559
 -0.553  -0.550  -0.543  -0.542  -0.527  -0.527  -0.521  -0.513
 -0.504  -0.502  -0.502  -0.499  -0.488  -0.484  -0.479  -0.478
 -0.473  -0.471  -0.469  -0.463  -0.458  -0.453  -0.450  -0.447
 -0.444  -0.441  -0.440  -0.436  -0.434  -0.432  -0.431  -0.429
 -0.428  -0.427  -0.424  -0.421  -0.420  -0.418  -0.415  -0.413
 -0.412  -0.409  -0.404  -0.403  -0.400  -0.399  -0.398  -0.395
 -0.395  -0.391  -0.390  -0.388  -0.385  -0.384  -0.382  -0.381
 -0.381  -0.378  -0.371  -0.369  -0.363  -0.361  -0.360  -0.357
 -0.355  -0.349  -0.348  -0.348  -0.343  -0.341  -0.341  -0.339
 -0.334  -0.333  -0.331  -0.330  -0.328  -0.321  -0.321  -0.317
 -0.315  -0.313  -0.313  -0.308  -0.307  -0.305  -0.302  -0.300
 -0.299  -0.297  -0.296  -0.294  -0.288  -0.285  -0.284  -0.279
 -0.273  -0.270  -0.268  -0.261  -0.259  -0.252  -0.250  -0.248
 -0.246  -0.239  -0.236  -0.228  -0.193  -0.190

          Ground-State Mulliken Net Atomic Charges

     Atom                 Charge (a.u.)
  ----------------------------------------
      1 C                     0.264566
      2 C                    -0.122937
      3 N                    -0.488644
      4 C                    -0.077698
      5 C                     0.092635
      6 C                     0.027616
      7 C                     0.045942
      8 C                     0.055489
      9 C                     0.220171
     10 N                    -0.510878
     11 N                    -0.548400
     12 C                     0.194968
     13 C                     0.271421
     14 S                     0.612694
     15 N                    -0.558852
     16 C                    -0.231856
     17 S                     0.365242
     18 C                    -0.104333
     19 C                    -0.207020
     20 S                     0.292304
     21 C                     0.152375
     22 C                     0.040504
     23 C                    -0.313166
     24 C                    -0.084505
     25 N                    -0.442392
     26 S                     0.297784
     27 C                     0.130243
     28 C                    -0.311319
     29 C                    -0.233186
     30 H                     0.097828
     31 H                     0.109352
     32 H                     0.111165
     33 H                     0.119423
     34 H                     0.131429
     35 H                     0.117602
     36 H                     0.115436
     37 H                     0.130511
     38 H                     0.120159
     39 C                    -0.187414
     40 H                     0.122126
     41 H                     0.083799
     42 H                     0.095929
     43 C                    -0.161784
     44 H                     0.098856
     45 C                    -0.182660
     46 H                     0.094701
     47 H                     0.090457
     48 H                     0.091775
     49 C                    -0.185464
     50 H                     0.088674
     51 C                    -0.314860
     52 H                     0.093818
     53 H                     0.109186
     54 H                     0.103022
     55 H                     0.103059
     56 C                     0.286388
     57 C                    -0.132794
     58 N                    -0.482797
     59 C                    -0.035594
     60 C                     0.059863
     61 C                     0.013235
     62 C                     0.034186
     63 C                     0.051831
     64 C                     0.229732
     65 N                    -0.531764
     66 N                    -0.562322
     67 C                     0.201310
     68 C                     0.338241
     69 S                     0.597057
     70 N                    -0.535570
     71 C                    -0.237614
     72 S                     0.288061
     73 C                    -0.072939
     74 C                    -0.222426
     75 S                     0.259214
     76 C                     0.111965
     77 C                     0.042378
     78 C                    -0.325571
     79 C                    -0.016051
     80 N                    -0.416986
     81 S                     0.298547
     82 C                     0.129209
     83 C                    -0.320194
     84 C                    -0.253123
     85 H                     0.081629
     86 H                     0.124958
     87 H                     0.104366
     88 H                     0.108465
     89 H                     0.121628
     90 H                     0.131054
     91 H                     0.115193
     92 H                     0.131995
     93 H                     0.119057
     94 C                    -0.192427
     95 H                     0.115647
     96 H                     0.097345
     97 H                     0.102484
     98 C                    -0.181359
     99 H                     0.108044
    100 C                    -0.184469
    101 H                     0.105544
    102 H                     0.091938
    103 H                     0.090736
    104 C                    -0.181716
    105 H                     0.090889
    106 C                    -0.321301
    107 H                     0.094764
    108 H                     0.094901
    109 H                     0.101901
    110 H                     0.108369
  ----------------------------------------
  Sum of atomic charges =     0.000000

                    Cartesian Multipole Moments
 -----------------------------------------------------------------
    Charge (ESU x 10^10)
                 0.0000
    Dipole Moment (Debye)
         X       0.0831      Y      -1.3547      Z      -0.3143
       Tot       1.3932
    Quadrupole Moments (Debye-Ang)
        XX    -355.5995     XY      -6.7673     YY    -439.5757
        XZ      16.9546     YZ      18.2507     ZZ    -442.7773

 Total job time:  101.46s(wall), 1229.03s(cpu)
        *  Thank you very much for using Q-Chem.  Have a nice day.  *
