 Q-Chem 4.4, Q-Chem, Inc., Pleasanton, CA (2016)
 Q-Chem 4.4.2 for Intel X86 Linux

User input:
--------------------------------------------------------------
$comment
SP
$end

$rem
MEM_STATIC 5000
MEM_TOTAL 20000
JOBTYPE SP
EXCHANGE B3LYP
BASIS 6-31g(d,p)
$end

$molecule
0 1
C           0.031000    -19.042000     -5.245000
C           0.575000    -18.338000     -4.189000
N          -0.763000    -20.125000     -5.077000
C           0.009000    -18.539000     -2.975000
C          -1.100000    -20.452000     -3.815000
C          -0.777000    -19.666000     -2.713000
C          -1.194000    -19.918000     -1.386000
C          -2.564000    -19.943000     -1.027000
C          -0.325000    -20.308000     -0.370000
N          -3.001000    -20.436000      0.120000
N           1.015000    -20.258000     -0.528000
C          -0.771000    -20.728000      0.906000
C          -2.170000    -20.801000      1.109000
S           1.576000    -20.775000      0.894000
N           0.192000    -20.980000      1.735000
C          -2.960000    -21.181000      2.271000
S          -4.695000    -20.562000      2.407000
C          -2.568000    -21.983000      3.326000
C          -4.875000    -21.562000      3.860000
S          -1.132000    -22.877000      3.678000
C          -3.677000    -22.200000      4.210000
C          -6.068000    -21.675000      4.714000
C          -1.973000    -23.634000      5.015000
C          -3.259000    -23.174000      5.157000
N          -7.203000    -21.501000      4.115000
S          -6.093000    -21.508000      6.432000
C          -8.227000    -21.358000      5.043000
C          -7.828000    -21.403000      6.352000
C           0.372000    -18.786000     -6.736000
H           1.369000    -17.605000     -4.298000
H           0.250000    -17.951000     -2.094000
H          -1.693000    -21.362000     -3.733000
H          -3.306000    -19.736000     -1.796000
H          -1.365000    -24.327000      5.582000
H          -3.867000    -23.535000      5.978000
H          -9.228000    -21.252000      4.647000
H          -8.346000    -21.438000      7.301000
H           1.390000    -18.379000     -6.775000
C          -0.533000    -17.735000     -7.410000
H           0.322000    -19.725000     -7.302000
H          -0.344000    -16.751000     -6.962000
H          -1.593000    -17.980000     -7.269000
C          -0.420000    -17.642000     -8.976000
H           0.463000    -17.058000     -9.260000
C          -1.618000    -16.777000     -9.483000
H          -0.430000    -18.603000     -9.505000
H          -1.863000    -15.944000     -8.813000
H          -2.493000    -17.438000     -9.480000
C          -1.509000    -16.201000    -10.920000
H          -2.317000    -15.510000    -11.188000
C          -1.311000    -17.195000    -12.006000
H          -0.668000    -15.502000    -10.829000
H          -1.212000    -16.739000    -12.999000
H          -2.170000    -17.873000    -11.929000
H          -0.440000    -17.846000    -11.868000
C          -4.885000    -17.677000     -2.559000
C          -6.168000    -18.155000     -2.546000
N          -4.313000    -17.283000     -1.360000
C          -6.952000    -18.169000     -1.364000
C          -5.064000    -17.201000     -0.246000
C          -6.373000    -17.717000     -0.179000
C          -7.205000    -17.883000      1.129000
C          -7.025000    -17.031000      2.206000
C          -8.110000    -18.913000      1.316000
N          -7.652000    -17.153000      3.378000
N          -8.325000    -19.956000      0.526000
C          -8.825000    -19.044000      2.517000
C          -8.528000    -18.143000      3.576000
S          -9.553000    -20.816000      1.173000
N          -9.733000    -20.049000      2.561000
C          -9.270000    -18.247000      4.815000
S         -10.948000    -18.600000      5.137000
C          -8.649000    -17.896000      6.016000
C         -10.734000    -18.572000      6.925000
S          -6.994000    -17.619000      6.422000
C          -9.465000    -18.110000      7.165000
C         -11.639000    -19.119000      7.908000
C          -7.417000    -17.478000      8.139000
C          -8.714000    -17.917000      8.380000
N         -12.597000    -19.817000      7.357000
S         -11.617000    -19.023000      9.682000
C         -13.426000    -20.322000      8.360000
C         -13.097000    -19.972000      9.667000
C          -3.893000    -17.699000     -3.762000
H          -6.693000    -18.408000     -3.462000
H          -7.975000    -18.528000     -1.431000
H          -4.449000    -16.889000      0.597000
H          -6.254000    -16.264000      2.167000
H          -6.678000    -17.273000      8.903000
H          -9.104000    -17.987000      9.389000
H         -14.310000    -20.843000      8.015000
H         -13.594000    -20.242000     10.589000
H          -3.775000    -16.663000     -4.102000
C          -4.218000    -18.642000     -4.891000
H          -2.855000    -17.878000     -3.456000
H          -3.340000    -18.756000     -5.539000
H          -5.042000    -18.340000     -5.548000
C          -4.518000    -20.099000     -4.404000
H          -3.673000    -20.573000     -3.889000
C          -4.837000    -21.017000     -5.613000
H          -5.243000    -20.276000     -3.600000
H          -3.986000    -20.889000     -6.294000
H          -5.711000    -20.516000     -6.045000
C          -5.124000    -22.470000     -5.159000
H          -4.362000    -22.738000     -4.416000
C          -5.398000    -23.549000     -6.184000
H          -5.974000    -22.440000     -4.467000
H          -5.426000    -24.611000     -5.910000
H          -4.621000    -23.502000     -6.957000
H          -6.348000    -23.237000     -6.635000
$end

--------------------------------------------------------------

             Standard Nuclear Orientation (Angstroms)
    I     Atom           X                Y                Z
 ----------------------------------------------------------------
    1      C      -8.1032176286    -0.7961203341    -0.6446123166
    2      C      -7.5371926053    -1.4579980374    -1.7161633322
    3      N      -7.4901587607    -0.6795422689     0.5562696006
    4      C      -6.2029338811    -1.6815287621    -1.6502795551
    5      C      -6.2342104767    -1.1548190059     0.6555063429
    6      C      -5.5134215541    -1.6339402278    -0.4341886529
    7      C      -4.1626040860    -2.0487543955    -0.3949028542
    8      C      -3.1199406078    -1.1601412522    -0.0348673658
    9      C      -3.7622569964    -3.3734231161    -0.5514020189
   10      N      -1.9000732811    -1.5663719849     0.2758210584
   11      N      -4.6207319139    -4.3261210830    -0.9738371027
   12      C      -2.4319793633    -3.8065363699    -0.3363059286
   13      C      -1.5028966579    -2.8384479663     0.1146366060
   14      S      -3.7076820481    -5.6560105162    -1.0165926636
   15      N      -2.2450897299    -5.0602511032    -0.6034868266
   16      C      -0.0842730029    -2.9314759273     0.4270413499
   17      S       0.9424445851    -1.3973669736     0.3619052406
   18      C       0.6228305552    -4.0628103819     0.7875686163
   19      C       2.3009175499    -2.3511890446     0.9851095898
   20      S       0.1787726411    -5.7067689730     1.0798847458
   21      C       1.9735377822    -3.7077994925     1.1161766737
   22      C       3.6676355725    -1.8752380129     1.2513547063
   23      C       1.7870388579    -5.9920524422     1.7123340464
   24      C       2.5826381996    -4.8744395093     1.6529790140
   25      N       3.7700930576    -0.6287914126     1.5877701285
   26      S       5.1188227169    -2.6223641492     0.6893080815
   27      C       5.0975847351    -0.2208409139     1.5483843870
   28      C       5.9843702923    -1.1846446458     1.1491341622
   29      C      -9.5510253623    -0.2408375004    -0.6243209196
   30      H      -8.0867449003    -1.7400125828    -2.6095087699
   31      H      -5.6157894450    -2.0668712738    -2.4789885268
   32      H      -5.8088736298    -1.0862578256     1.6559367159
   33      H      -3.3739500379    -0.1260484163     0.1907544774
   34      H       1.9629014347    -7.0134889185     2.0240099660
   35      H       3.6155407553    -4.9373419978     1.9741979227
   36      H       5.3010399257     0.7958291243     1.8566716214
   37      H       7.0633266023    -1.2524958566     1.1117243466
   38      H     -10.1497465992    -0.8595468654    -1.3041926738
   39      C      -9.6706730455     1.2048597851    -1.1473369716
   40      H      -9.9625528176    -0.2947870287     0.3917064432
   41      H      -9.4352019175     1.2247614006    -2.2191757065
   42      H      -8.9699548741     1.8703925930    -0.6281393926
   43      C     -11.0519274247     1.9111711453    -0.8884265577
   44      H     -11.7907461996     1.5859841563    -1.6299123903
   45      C     -10.8655560016     3.4325798315    -1.1901868969
   46      H     -11.4530766986     1.7993938545     0.1264858017
   47      H     -10.2030717524     3.6255990080    -2.0426376093
   48      H     -10.3642348206     3.8574786919    -0.3122956553
   49      C     -12.1553893934     4.2684215858    -1.4054178966
   50      H     -11.9717948519     5.3008080096    -1.7257931708
   51      C     -13.1358259422     4.2506913973    -0.2895927247
   52      H     -12.5608331179     3.8394702245    -2.3305011987
   53      H     -14.0422210003     4.8324138608    -0.4989559831
   54      H     -12.5802583254     4.6205831404     0.5810499813
   55      H     -13.4643232619     3.2475955237     0.0059985120
   56      C      -3.2444781148     2.2844317299    -1.0289641321
   57      C      -2.5216827863     3.0953739267    -0.1954884776
   58      N      -2.5610381948     1.4101649270    -1.8587764200
   59      C      -1.1040264147     3.1310848405    -0.2263290781
   60      C      -1.2221848177     1.4905189764    -1.9716296933
   61      C      -0.4384408958     2.2807996482    -1.1082480136
   62      C       1.1171045149     2.2336207845    -1.0149922899
   63      C       1.8914800035     1.9043358236    -2.1150591139
   64      C       1.8039758038     2.4485980235     0.1669072909
   65      N       3.2202333777     1.7797794188    -2.0927617464
   66      N       1.2973707828     2.5915986795     1.3839020177
   67      C       3.2049908237     2.3753523047     0.2176909369
   68      C       3.8991019197     1.9823739547    -0.9592834905
   69      S       2.5386435764     2.9030826590     2.3980088081
   70      N       3.7722690466     2.6717058275     1.4121761848
   71      C       5.3455719734     1.9224154546    -0.9341764821
   72      S       6.5364942015     2.9417458083    -0.1682477147
   73      C       6.0059395399     0.9920149703    -1.7400999376
   74      C       7.9229823348     1.9193093283    -0.6934127369
   75      S       5.4424866269    -0.3915903890    -2.6054016333
   76      C       7.4210801331     0.9905444426    -1.5691381316
   77      C       9.2598606748     1.9376702961    -0.1484887249
   78      C       7.1088032663    -0.8368999733    -3.0201150664
   79      C       8.0292891228    -0.1101662420    -2.2734057041
   80      N       9.3417281913     2.6813537673     0.9233329041
   81      S      10.7355657251     1.0988754718    -0.6733638027
   82      C      10.6527085822     2.6469704811     1.4012693061
   83      C      11.5599226113     1.8933822512     0.6609602590
   84      C      -4.7906879056     2.0820197078    -1.0243105307
   85      H      -2.9981887841     3.8509404413     0.4215619871
   86      H      -0.5936260729     3.8238112927     0.4366343851
   87      H      -0.8579977843     0.7229368342    -2.6531012332
   88      H       1.4118468307     1.6197181071    -3.0495085641
   89      H       7.3438607696    -1.7051151131    -3.6224376056
   90      H       9.0909523661    -0.3209414300    -2.3327856493
   91      H      10.8607647661     3.3021889318     2.2375248927
   92      H      12.6141755760     1.7302764601     0.8396784372
   93      H      -5.1814104561     2.5594384787    -1.9310779792
   94      C      -5.5268580804     2.5143886516     0.2169088578
   95      H      -5.0868873534     1.0514306735    -1.2551202567
   96      H      -6.5412598731     2.0964479588     0.2069800981
   97      H      -5.6461999769     3.5955689225     0.3534216169
   98      C      -4.8975387713     1.9435971880     1.5315085354
   99      H      -4.9020835653     0.8474902467     1.5810556656
  100      C      -5.7051983641     2.4197887027     2.7672648316
  101      H      -3.8230532660     2.0524501741     1.7238673833
  102      H      -6.7423765989     2.1335927497     2.5511648875
  103      H      -5.6162869945     3.5089555007     2.6817577887
  104      C      -5.1108016030     1.8563680995     4.0821578745
  105      H      -4.8870277121     0.7953599479     3.9127354793
  106      C      -5.7816780740     2.1452746064     5.4074502161
  107      H      -4.0711929864     2.1982385419     4.1499997851
  108      H      -5.4940125859     1.6192118714     6.3262595357
  109      H      -6.8530193234     1.9298753371     5.3110236526
  110      H      -5.6601878170     3.2292185601     5.5238573580
 ----------------------------------------------------------------

    9   -5663.5025709571      6.82E-06 Convergence criterion met
 Total energy in the final basis set = -5663.5025709571

                    Orbital Energies (a.u.)
 --------------------------------------------------------------

 Alpha MOs
 -- Occupied --
-88.985 -88.981 -88.933 -88.924 -88.922 -88.919 -88.908 -88.908
-14.381 -14.380 -14.377 -14.371 -14.344 -14.343 -14.334 -14.334
-14.327 -14.326 -10.271 -10.258 -10.256 -10.252 -10.250 -10.246
-10.246 -10.246 -10.239 -10.237 -10.235 -10.235 -10.235 -10.233
-10.233 -10.231 -10.229 -10.228 -10.226 -10.226 -10.226 -10.225
-10.224 -10.224 -10.221 -10.221 -10.219 -10.217 -10.209 -10.208
-10.206 -10.205 -10.204 -10.201 -10.201 -10.199 -10.194 -10.193
-10.186 -10.185 -10.184 -10.182 -10.181 -10.176 -10.174 -10.173
-10.172 -10.169 -10.169 -10.167  -8.041  -8.037  -7.993  -7.982
 -7.980  -7.979  -7.969  -7.968  -6.005  -6.002  -6.000  -5.998
 -5.997  -5.995  -5.958  -5.954  -5.950  -5.946  -5.944  -5.943
 -5.942  -5.941  -5.940  -5.938  -5.938  -5.935  -5.933  -5.933
 -5.929  -5.929  -5.925  -5.924  -1.046  -1.042  -0.969  -0.969
 -0.960  -0.956  -0.940  -0.928  -0.915  -0.911  -0.904  -0.901
 -0.842  -0.842  -0.833  -0.825  -0.809  -0.806  -0.804  -0.803
 -0.802  -0.801  -0.795  -0.793  -0.784  -0.779  -0.767  -0.765
 -0.746  -0.746  -0.740  -0.739  -0.723  -0.721  -0.711  -0.710
 -0.697  -0.689  -0.673  -0.668  -0.652  -0.649  -0.644  -0.643
 -0.633  -0.632  -0.625  -0.620  -0.611  -0.610  -0.601  -0.596
 -0.594  -0.592  -0.580  -0.577  -0.574  -0.573  -0.571  -0.561
 -0.547  -0.541  -0.539  -0.534  -0.525  -0.520  -0.517  -0.513
 -0.507  -0.503  -0.501  -0.498  -0.493  -0.482  -0.475  -0.472
 -0.471  -0.469  -0.467  -0.467  -0.462  -0.459  -0.446  -0.444
 -0.443  -0.441  -0.439  -0.438  -0.437  -0.435  -0.433  -0.432
 -0.429  -0.427  -0.423  -0.421  -0.416  -0.413  -0.412  -0.410
 -0.409  -0.405  -0.404  -0.403  -0.401  -0.396  -0.395  -0.392
 -0.391  -0.390  -0.388  -0.386  -0.383  -0.382  -0.380  -0.377
 -0.376  -0.374  -0.371  -0.368  -0.365  -0.359  -0.355  -0.354
 -0.351  -0.350  -0.346  -0.345  -0.344  -0.342  -0.341  -0.339
 -0.337  -0.331  -0.329  -0.328  -0.327  -0.322  -0.317  -0.314
 -0.311  -0.309  -0.309  -0.305  -0.302  -0.302  -0.300  -0.295
 -0.292  -0.291  -0.291  -0.290  -0.283  -0.281  -0.280  -0.278
 -0.268  -0.267  -0.264  -0.258  -0.252  -0.251  -0.251  -0.248
 -0.242  -0.240  -0.235  -0.233  -0.194  -0.189

          Ground-State Mulliken Net Atomic Charges

     Atom                 Charge (a.u.)
  ----------------------------------------
      1 C                     0.248712
      2 C                    -0.101649
      3 N                    -0.473977
      4 C                    -0.052085
      5 C                     0.075652
      6 C                     0.034393
      7 C                    -0.037130
      8 C                     0.105167
      9 C                     0.223512
     10 N                    -0.521732
     11 N                    -0.536397
     12 C                     0.260104
     13 C                     0.304064
     14 S                     0.584967
     15 N                    -0.578963
     16 C                    -0.236322
     17 S                     0.351345
     18 C                    -0.116039
     19 C                    -0.201894
     20 S                     0.287107
     21 C                     0.128155
     22 C                     0.045606
     23 C                    -0.303742
     24 C                    -0.086195
     25 N                    -0.436531
     26 S                     0.270962
     27 C                     0.110098
     28 C                    -0.308775
     29 C                    -0.219977
     30 H                     0.095534
     31 H                     0.102683
     32 H                     0.108127
     33 H                     0.113663
     34 H                     0.135476
     35 H                     0.103688
     36 H                     0.142521
     37 H                     0.144539
     38 H                     0.093624
     39 C                    -0.184100
     40 H                     0.117197
     41 H                     0.094634
     42 H                     0.110995
     43 C                    -0.175524
     44 H                     0.092713
     45 C                    -0.186830
     46 H                     0.101227
     47 H                     0.090351
     48 H                     0.088634
     49 C                    -0.179230
     50 H                     0.091184
     51 C                    -0.310533
     52 H                     0.085215
     53 H                     0.101333
     54 H                     0.100937
     55 H                     0.103516
     56 C                     0.250438
     57 C                    -0.118388
     58 N                    -0.479863
     59 C                    -0.064389
     60 C                     0.068301
     61 C                     0.049518
     62 C                     0.058735
     63 C                     0.044165
     64 C                     0.248600
     65 N                    -0.508061
     66 N                    -0.559756
     67 C                     0.204077
     68 C                     0.275872
     69 S                     0.616393
     70 N                    -0.560371
     71 C                    -0.203807
     72 S                     0.344867
     73 C                    -0.107009
     74 C                    -0.238981
     75 S                     0.278204
     76 C                     0.140171
     77 C                     0.066579
     78 C                    -0.299649
     79 C                    -0.091603
     80 N                    -0.424083
     81 S                     0.269518
     82 C                     0.114862
     83 C                    -0.316613
     84 C                    -0.231518
     85 H                     0.093160
     86 H                     0.117307
     87 H                     0.108476
     88 H                     0.112355
     89 H                     0.131212
     90 H                     0.109912
     91 H                     0.115106
     92 H                     0.139717
     93 H                     0.112716
     94 C                    -0.205218
     95 H                     0.129848
     96 H                     0.122128
     97 H                     0.092059
     98 C                    -0.196683
     99 H                     0.086721
    100 C                    -0.172924
    101 H                     0.101478
    102 H                     0.103758
    103 H                     0.084927
    104 C                    -0.186910
    105 H                     0.088499
    106 C                    -0.316365
    107 H                     0.092804
    108 H                     0.104433
    109 H                     0.102737
    110 H                     0.102530
  ----------------------------------------
  Sum of atomic charges =     0.000000

                    Cartesian Multipole Moments
 -----------------------------------------------------------------
    Charge (ESU x 10^10)
                 0.0000
    Dipole Moment (Debye)
         X       2.9919      Y      -1.4741      Z      -0.4801
       Tot       3.3697
    Quadrupole Moments (Debye-Ang)
        XX    -383.5818     XY     -13.8390     YY    -425.6799
        XZ      16.8201     YZ       7.5029     ZZ    -445.4108

 Total job time:  96.02s(wall), 1165.48s(cpu)
        *  Thank you very much for using Q-Chem.  Have a nice day.  *
