 Q-Chem 4.4, Q-Chem, Inc., Pleasanton, CA (2016)
 Q-Chem 4.4.2 for Intel X86 Linux

User input:
--------------------------------------------------------------
$comment
SP
$end

$rem
MEM_STATIC 5000
MEM_TOTAL 20000
JOBTYPE SP
EXCHANGE B3LYP
BASIS 6-31g(d,p)
$end

$molecule
0 1
C          13.337000     -0.656000     -7.454000
C          12.165000     -0.266000     -8.087000
N          14.334000      0.218000     -7.062000
C          12.173000      1.039000     -8.600000
C          14.256000      1.457000     -7.475000
C          13.244000      1.924000     -8.344000
C          13.172000      3.288000     -8.929000
C          12.070000      4.053000     -8.798000
C          14.341000      3.929000     -9.497000
N          12.014000      5.397000     -9.102000
N          15.496000      3.311000     -9.776000
C          14.265000      5.298000     -9.767000
C          13.061000      6.055000     -9.615000
S          16.437000      4.491000    -10.280000
N          15.439000      5.751000    -10.280000
C          12.941000      7.518000     -9.862000
S          14.301000      8.620000    -10.325000
C          11.843000      8.258000     -9.572000
C          13.232000     10.026000    -10.200000
S          10.281000      7.788000     -9.022000
C          11.982000      9.657000     -9.762000
C          13.608000     11.443000    -10.070000
C           9.882000      9.512000     -8.893000
C          10.913000     10.398000     -9.220000
N          12.726000     12.390000    -10.428000
S          15.231000     11.946000     -9.860000
C          13.402000     13.580000    -10.604000
C          14.751000     13.454000    -10.437000
C          13.453000     -1.978000     -6.784000
H          11.303000     -0.919000     -8.179000
H          11.308000      1.436000     -9.122000
H          15.056000      2.134000     -7.179000
H          11.128000      3.639000     -8.442000
H           8.906000      9.843000     -8.565000
H          10.785000     11.469000     -9.115000
H          12.909000     14.520000    -10.813000
H          15.415000     14.248000    -10.750000
H          14.483000     -2.302000     -6.591000
C          12.852000     -3.187000     -7.628000
H          12.891000     -1.960000     -5.841000
H          13.064000     -3.007000     -8.689000
H          11.767000     -3.324000     -7.552000
C          13.670000     -4.501000     -7.280000
H          13.283000     -5.224000     -8.009000
C          13.427000     -5.224000     -5.899000
H          14.734000     -4.450000     -7.543000
H          12.359000     -5.244000     -5.649000
H          13.833000     -4.579000     -5.111000
C          13.996000     -6.594000     -5.654000
H          13.758000     -6.778000     -4.599000
C          15.552000     -6.779000     -5.740000
H          13.513000     -7.271000     -6.371000
H          15.762000     -7.706000     -5.192000
H          16.078000     -5.943000     -5.263000
H          15.800000     -6.757000     -6.808000
C           7.374000      5.002000     -7.804000
C           6.144000      4.322000     -8.147000
N           7.562000      6.335000     -8.170000
C           5.243000      4.905000     -9.014000
C           6.610000      6.986000     -8.980000
C           5.426000      6.267000     -9.438000
C           4.450000      6.951000    -10.367000
C           4.450000      8.381000    -10.355000
C           3.606000      6.381000    -11.322000
N           3.687000      9.129000    -11.187000
N           3.554000      5.055000    -11.603000
C           2.815000      7.153000    -12.133000
C           2.815000      8.568000    -12.007000
S           2.523000      4.855000    -12.847000
N           2.148000      6.432000    -13.065000
C           1.937000      9.335000    -12.858000
S           0.341000      8.937000    -13.561000
C           2.082000     10.647000    -13.213000
C          -0.126000     10.594000    -13.900000
S           3.340000     11.647000    -12.742000
C           0.993000     11.322000    -13.689000
C          -1.462000     11.048000    -14.465000
C           2.634000     13.010000    -13.520000
C           1.344000     12.661000    -13.990000
N          -1.443000     12.095000    -15.288000
S          -3.063000     10.357000    -14.174000
C          -2.743000     12.475000    -15.531000
C          -3.752000     11.725000    -14.991000
C           8.406000      4.267000     -6.998000
H           5.975000      3.345000     -7.705000
H           4.418000      4.303000     -9.384000
H           6.977000      7.959000     -9.305000
H           5.087000      8.905000     -9.644000
H           3.140000     13.963000    -13.599000
H           0.663000     13.266000    -14.578000
H          -2.890000     13.275000    -16.245000
H          -4.818000     11.892000    -15.074000
H           8.704000      3.395000     -7.594000
C           8.210000      3.899000     -5.476000
H           9.255000      4.961000     -6.960000
H           9.066000      3.406000     -4.998000
H           7.437000      3.126000     -5.573000
C           7.675000      5.057000     -4.542000
H           7.909000      4.603000     -3.572000
C           6.210000      5.588000     -4.667000
H           8.290000      5.955000     -4.678000
H           5.754000      5.827000     -5.636000
H           6.163000      6.544000     -4.132000
C           5.193000      4.711000     -3.962000
H           5.294000      3.699000     -4.372000
C           3.761000      5.325000     -4.054000
H           5.564000      4.645000     -2.932000
H           3.425000      5.272000     -5.096000
H           3.755000      6.364000     -3.700000
H           3.009000      4.749000     -3.501000
$end

--------------------------------------------------------------

             Standard Nuclear Orientation (Angstroms)
    I     Atom           X                Y                Z
 ----------------------------------------------------------------
    1      C       8.5924328460     2.6368802147     0.7438266213
    2      C       7.2702165626     2.9613178757     1.0137475429
    3      N       9.0080943227     1.4037935045     0.2766310500
    4      C       6.3942097131     1.8690052379     1.0893987232
    5      C       8.1343755349     0.4300154929     0.2645536308
    6      C       6.8168698839     0.5621979857     0.7586190600
    7      C       5.8235240010    -0.5372845131     0.8695568431
    8      C       4.5966570038    -0.4357440362     0.3206698758
    9      C       6.1890219504    -1.8346759044     1.4017718624
   10      N       3.7175386353    -1.4886623287     0.1778344341
   11      N       7.3281808554    -2.1043452527     2.0524526072
   12      C       5.2917683871    -2.8897803670     1.2159557812
   13      C       3.9974652812    -2.7163884527     0.6324459575
   14      S       7.2428391285    -3.6708425775     2.3183471751
   15      N       5.7820910514    -4.0363358010     1.7560005215
   16      C       3.0221508107    -3.8141025530     0.3883897394
   17      S       3.3158450344    -5.5712083811     0.7119570614
   18      C       1.8635322059    -3.6724939439    -0.3007067201
   19      C       1.7606892357    -5.9882688850    -0.0247742180
   20      S       1.0954419154    -2.2692808552    -0.9365324300
   21      C       1.1414199447    -4.8711764756    -0.5338077080
   22      C       1.3149144135    -7.2998175735    -0.5220566785
   23      C      -0.1165062821    -3.3436831617    -1.6610041345
   24      C       0.0861412370    -4.7114956449    -1.4538592725
   25      N      -0.0004778547    -7.5456283456    -0.6325883261
   26      S       2.3578137805    -8.6555612423    -0.5966087735
   27      C      -0.1894428088    -8.9095834772    -0.7218667960
   28      C       0.9735437474    -9.6152824610    -0.6077737887
   29      C       9.6241460496     3.6891272058     0.5479079255
   30      H       6.9343929319     3.9836712896     1.1549317705
   31      H       5.3407006344     2.0157699308     1.3059552890
   32      H       8.4752435369    -0.5432563832    -0.0854404552
   33      H       4.2129576203     0.5153548354    -0.0449552320
   34      H      -0.9443316578    -2.9539861136    -2.2376863329
   35      H      -0.5663171758    -5.4488859813    -1.9066324070
   36      H      -1.1529442913    -9.3669929540    -0.9028956995
   37      H       0.9483289548   -10.6844603068    -0.4480116266
   38      H      10.6583244318     3.3366205460     0.6445470927
   39      C       9.5513228503     4.8734889550     1.6096056361
   40      H       9.4861917487     4.1571321527    -0.4356351496
   41      H       9.2726559042     4.4494244982     2.5820145365
   42      H       8.8147856496     5.6566412191     1.3952333356
   43      C      11.0155599253     5.4419453303     1.8325207267
   44      H      10.8781767316     6.1345310615     2.6723956359
   45      C      11.6718703871     6.3529845271     0.7242774504
   46      H      11.7226029996     4.7112319012     2.2448482370
   47      H      10.9405249844     7.0602030496     0.3137901017
   48      H      11.8857951496     5.7178549059    -0.1432774817
   49      C      12.9415862760     7.1027161240     1.0182333896
   50      H      13.2004664231     7.5449665871     0.0482227725
   51      C      14.2146478766     6.2789993498     1.4226611791
   52      H      12.7088443146     7.8202535789     1.8161545513
   53      H      15.0625644867     6.9492673567     1.2342169667
   54      H      14.3156211592     5.3767783300     0.8071105088
   55      H      14.0481758290     5.9544503333     2.4568598995
   56      C       0.7777966908     1.8538263331    -1.7079322126
   57      C       0.0919258308     3.0864480303    -1.3867252467
   58      N       0.0727290179     0.6507069068    -1.7475834758
   59      C      -1.2030357009     3.0607823102    -0.9115464359
   60      C      -1.2804192351     0.6118493660    -1.3555568227
   61      C      -1.9466388213     1.8297903557    -0.9068339587
   62      C      -3.3748996591     1.7627446448    -0.4179077356
   63      C      -4.1558075726     0.6546687356    -0.8733137195
   64      C      -4.0216268909     2.5841481862     0.5074576571
   65      N      -5.4236276372     0.4213568086    -0.4584705824
   66      N      -3.4249120805     3.6043027847     1.1731580630
   67      C      -5.3174059154     2.3524448061     0.8904149174
   68      C      -6.0531965982     1.2725870801     0.3330816573
   69      S      -4.5123429617     4.2112730688     2.2217657841
   70      N      -5.7373910391     3.1857732379     1.8715011626
   71      C      -7.4262330040     1.0923325788     0.7400869926
   72      S      -8.6654575111     2.2783312354     1.2475895123
   73      C      -8.1493609091    -0.0665036946     0.6893078196
   74      C     -10.0444732173     1.2296018171     0.9698463051
   75      S      -7.5761103141    -1.5460457700     0.1538229904
   76      C      -9.5132124557     0.0086449209     0.7381303995
   77      C     -11.5062218444     1.6148904029     1.1282150416
   78      C      -9.1200379166    -2.2837823696     0.3369111332
   79      C     -10.0749022132    -1.2896992154     0.6637656232
   80      N     -12.3324601111     0.6709843662     1.5757312094
   81      S     -12.2668878597     3.1758912485     0.7965125041
   82      C     -13.6216641423     1.1384359121     1.4621925897
   83      C     -13.8130745630     2.4181716706     1.0174236165
   84      C       2.2374139841     1.9082050596    -2.0564222573
   85      H       0.6408542997     4.0126687915    -1.5254574980
   86      H      -1.6282769441     3.9804269348    -0.5199437681
   87      H      -1.6366790762    -0.4157504493    -1.2910545330
   88      H      -3.7223372668    -0.0394952970    -1.5917187514
   89      H      -9.2785867410    -3.3453823439     0.2014350663
   90      H     -11.1220907705    -1.4268657765     0.9089420088
   91      H     -14.4050324012     0.5039364614     1.8560829526
   92      H     -14.7532483310     2.9306111104     0.8605379689
   93      H       2.7528305454     2.3154405584    -1.1772698150
   94      C       2.7807473447     2.5353920138    -3.3987148424
   95      H       2.5232443614     0.8541565194    -2.1620805286
   96      H       3.8657681226     2.4622573110    -3.5458550025
   97      H       2.5777633283     3.5955381861    -3.2003349482
   98      C       2.0350553150     2.1007683182    -4.7233244604
   99      H       2.7784262654     2.4505778043    -5.4491377652
  100      C       0.5739798476     2.5694343245    -5.0223589952
  101      H       1.9722649137     1.0066810346    -4.7697505461
  102      H      -0.2221912491     2.5228546386    -4.2687278402
  103      H       0.1861966713     1.9341184194    -5.8275719539
  104      C       0.4994876610     3.9766361355    -5.5833197580
  105      H       1.0000711285     4.6404543910    -4.8683326842
  106      C      -0.9710250393     4.3654350910    -5.9333365723
  107      H       1.1549347105     3.9499783145    -6.4622825136
  108      H      -1.5380691354     4.4612270813    -5.0001946283
  109      H      -1.4313196484     3.6142255140    -6.5880777764
  110      H      -1.0556267129     5.3543201893    -6.4002817718
 ----------------------------------------------------------------

    9   -5663.4781745701      9.04E-06 Convergence criterion met
 Total energy in the final basis set = -5663.4781745701

                    Orbital Energies (a.u.)
 --------------------------------------------------------------

 Alpha MOs
 -- Occupied --
-88.991 -88.983 -88.934 -88.924 -88.921 -88.920 -88.899 -88.898
-14.382 -14.381 -14.378 -14.378 -14.351 -14.349 -14.343 -14.341
-14.337 -14.326 -10.283 -10.262 -10.262 -10.262 -10.252 -10.251
-10.250 -10.249 -10.246 -10.243 -10.242 -10.241 -10.237 -10.236
-10.235 -10.232 -10.232 -10.231 -10.230 -10.227 -10.226 -10.222
-10.222 -10.220 -10.217 -10.216 -10.216 -10.215 -10.214 -10.212
-10.210 -10.209 -10.203 -10.199 -10.199 -10.198 -10.194 -10.191
-10.189 -10.188 -10.188 -10.185 -10.182 -10.181 -10.178 -10.175
-10.175 -10.174 -10.174 -10.173  -8.047  -8.040  -7.995  -7.986
 -7.980  -7.979  -7.962  -7.958  -6.012  -6.006  -6.005  -6.004
 -5.999  -5.998  -5.959  -5.955  -5.952  -5.950  -5.947  -5.944
 -5.944  -5.943  -5.940  -5.939  -5.937  -5.935  -5.926  -5.922
 -5.922  -5.918  -5.918  -5.914  -1.048  -1.037  -0.972  -0.964
 -0.963  -0.950  -0.939  -0.925  -0.914  -0.908  -0.903  -0.897
 -0.849  -0.833  -0.832  -0.831  -0.814  -0.811  -0.809  -0.804
 -0.802  -0.800  -0.795  -0.793  -0.785  -0.783  -0.767  -0.765
 -0.750  -0.743  -0.738  -0.736  -0.720  -0.714  -0.709  -0.704
 -0.692  -0.689  -0.676  -0.667  -0.659  -0.658  -0.649  -0.643
 -0.639  -0.632  -0.624  -0.623  -0.613  -0.611  -0.600  -0.594
 -0.590  -0.586  -0.583  -0.582  -0.581  -0.571  -0.559  -0.555
 -0.551  -0.544  -0.540  -0.538  -0.527  -0.520  -0.516  -0.506
 -0.504  -0.500  -0.498  -0.495  -0.485  -0.485  -0.474  -0.474
 -0.472  -0.471  -0.470  -0.469  -0.466  -0.462  -0.452  -0.448
 -0.447  -0.442  -0.441  -0.440  -0.435  -0.435  -0.433  -0.430
 -0.429  -0.427  -0.423  -0.421  -0.419  -0.417  -0.415  -0.414
 -0.410  -0.405  -0.405  -0.400  -0.398  -0.398  -0.397  -0.396
 -0.394  -0.389  -0.388  -0.387  -0.385  -0.385  -0.382  -0.381
 -0.379  -0.377  -0.376  -0.374  -0.371  -0.365  -0.357  -0.354
 -0.350  -0.349  -0.348  -0.346  -0.345  -0.343  -0.337  -0.337
 -0.335  -0.333  -0.331  -0.329  -0.325  -0.324  -0.323  -0.316
 -0.313  -0.308  -0.304  -0.303  -0.302  -0.302  -0.301  -0.299
 -0.297  -0.292  -0.290  -0.289  -0.286  -0.284  -0.283  -0.280
 -0.269  -0.268  -0.268  -0.266  -0.253  -0.252  -0.250  -0.243
 -0.242  -0.238  -0.229  -0.228  -0.193  -0.189

          Ground-State Mulliken Net Atomic Charges

     Atom                 Charge (a.u.)
  ----------------------------------------
      1 C                     0.244274
      2 C                    -0.096305
      3 N                    -0.472727
      4 C                    -0.095051
      5 C                     0.113376
      6 C                     0.038215
      7 C                     0.027294
      8 C                     0.059409
      9 C                     0.210698
     10 N                    -0.554867
     11 N                    -0.530791
     12 C                     0.168306
     13 C                     0.348846
     14 S                     0.600814
     15 N                    -0.546934
     16 C                    -0.228383
     17 S                     0.313249
     18 C                    -0.112790
     19 C                    -0.217590
     20 S                     0.338653
     21 C                     0.132141
     22 C                     0.024523
     23 C                    -0.322964
     24 C                    -0.047542
     25 N                    -0.421050
     26 S                     0.286171
     27 C                     0.115051
     28 C                    -0.305327
     29 C                    -0.218802
     30 H                     0.098193
     31 H                     0.093067
     32 H                     0.100934
     33 H                     0.110014
     34 H                     0.116210
     35 H                     0.127182
     36 H                     0.115053
     37 H                     0.126631
     38 H                     0.122437
     39 C                    -0.199005
     40 H                     0.122334
     41 H                     0.102199
     42 H                     0.092817
     43 C                    -0.199005
     44 H                     0.083302
     45 C                    -0.171977
     46 H                     0.099273
     47 H                     0.085912
     48 H                     0.087410
     49 C                    -0.177348
     50 H                     0.093354
     51 C                    -0.316524
     52 H                     0.092228
     53 H                     0.106492
     54 H                     0.103440
     55 H                     0.106749
     56 C                     0.286469
     57 C                    -0.116077
     58 N                    -0.486849
     59 C                    -0.067173
     60 C                     0.059735
     61 C                     0.026883
     62 C                     0.045940
     63 C                     0.056181
     64 C                     0.235582
     65 N                    -0.537468
     66 N                    -0.573013
     67 C                     0.209511
     68 C                     0.319459
     69 S                     0.607714
     70 N                    -0.566866
     71 C                    -0.191447
     72 S                     0.299163
     73 C                    -0.131604
     74 C                    -0.247627
     75 S                     0.294005
     76 C                     0.175620
     77 C                     0.033981
     78 C                    -0.316228
     79 C                    -0.066874
     80 N                    -0.401860
     81 S                     0.287651
     82 C                     0.116000
     83 C                    -0.302005
     84 C                    -0.262834
     85 H                     0.092264
     86 H                     0.124083
     87 H                     0.120346
     88 H                     0.115436
     89 H                     0.132759
     90 H                     0.118809
     91 H                     0.112770
     92 H                     0.143277
     93 H                     0.104482
     94 C                    -0.187311
     95 H                     0.141611
     96 H                     0.105729
     97 H                     0.090581
     98 C                    -0.183251
     99 H                     0.093979
    100 C                    -0.172934
    101 H                     0.106037
    102 H                     0.104985
    103 H                     0.089677
    104 C                    -0.172930
    105 H                     0.086865
    106 C                    -0.325179
    107 H                     0.089251
    108 H                     0.104855
    109 H                     0.106521
    110 H                     0.100051
  ----------------------------------------
  Sum of atomic charges =     0.000000

                    Cartesian Multipole Moments
 -----------------------------------------------------------------
    Charge (ESU x 10^10)
                 0.0000
    Dipole Moment (Debye)
         X      -2.9618      Y       2.6668      Z      -0.6367
       Tot       4.0360
    Quadrupole Moments (Debye-Ang)
        XX    -402.9577     XY      -5.4215     YY    -392.0209
        XZ       1.4691     YZ       6.9882     ZZ    -450.0980

 Total job time:  81.86s(wall), 969.52s(cpu)
        *  Thank you very much for using Q-Chem.  Have a nice day.  *
