 Q-Chem 4.4, Q-Chem, Inc., Pleasanton, CA (2016)
 Q-Chem 4.4.2 for Intel X86 Linux

User input:
--------------------------------------------------------------
$comment
SP
$end

$rem
MEM_STATIC 5000
MEM_TOTAL 20000
JOBTYPE SP
EXCHANGE B3LYP
BASIS 6-31g(d,p)
$end

$molecule
0 1
C         -20.806000     -0.023000    -13.332000
C         -19.998000     -0.711000    -14.222000
N         -20.402000      0.289000    -12.046000
C         -18.648000     -0.903000    -13.903000
C         -19.120000      0.048000    -11.739000
C         -18.183000     -0.508000    -12.616000
C         -16.772000     -0.758000    -12.184000
C         -15.988000     -1.642000    -12.921000
C         -16.097000     -0.048000    -11.128000
N         -14.697000     -1.900000    -12.631000
N         -16.636000      0.927000    -10.370000
C         -14.861000     -0.503000    -10.739000
C         -14.139000     -1.413000    -11.527000
S         -15.498000      1.194000     -9.204000
N         -14.423000      0.106000     -9.604000
C         -12.680000     -1.759000    -11.227000
S         -11.844000     -1.300000     -9.757000
C         -11.800000     -2.246000    -12.124000
C         -10.341000     -1.946000    -10.401000
S         -12.011000     -2.690000    -13.799000
C         -10.509000     -2.445000    -11.616000
C          -9.116000     -2.033000     -9.644000
C         -10.344000     -3.238000    -13.903000
C          -9.736000     -3.077000    -12.684000
N          -8.183000     -2.823000    -10.096000
S          -8.754000     -0.982000     -8.255000
C          -7.030000     -2.628000     -9.387000
C          -7.191000     -1.737000     -8.367000
C         -22.243000      0.322000    -13.789000
H         -20.462000     -1.010000    -15.157000
H         -17.948000     -1.328000    -14.616000
H         -18.883000      0.498000    -10.776000
H         -16.318000     -2.156000    -13.822000
H          -9.987000     -3.674000    -14.826000
H          -8.745000     -3.448000    -12.451000
H          -6.180000     -3.261000     -9.607000
H          -6.417000     -1.486000     -7.653000
H         -22.210000      0.723000    -14.810000
C         -23.040000      1.327000    -12.830000
H         -22.749000     -0.651000    -13.794000
H         -22.455000      2.139000    -12.382000
H         -23.378000      0.655000    -12.032000
C         -24.310000      1.821000    -13.492000
H         -24.138000      2.605000    -14.239000
C         -25.170000      2.412000    -12.386000
H         -24.815000      1.008000    -14.030000
H         -24.698000      3.255000    -11.866000
H         -25.420000      1.749000    -11.549000
C         -26.487000      2.970000    -13.007000
H         -26.274000      3.629000    -13.857000
C         -27.317000      3.722000    -12.001000
H         -27.008000      2.120000    -13.467000
H         -26.823000      4.561000    -11.496000
H         -27.608000      3.178000    -11.093000
H         -28.243000      4.046000    -12.491000
C         -13.833000     -4.735000    -10.399000
C         -14.141000     -4.117000     -9.239000
N         -14.760000     -4.943000    -11.332000
C         -15.422000     -3.565000     -9.003000
C         -16.045000     -4.438000    -11.156000
C         -16.443000     -3.788000     -9.974000
C         -17.841000     -3.316000     -9.759000
C         -18.075000     -2.064000     -9.238000
C         -19.029000     -4.057000    -10.105000
N         -19.286000     -1.539000     -9.019000
N         -19.021000     -5.356000    -10.508000
C         -20.283000     -3.524000     -9.958000
C         -20.440000     -2.155000     -9.370000
S         -20.538000     -5.754000    -10.832000
N         -21.244000     -4.379000    -10.255000
C         -21.732000     -1.617000     -9.104000
S         -23.345000     -2.502000     -9.075000
C         -21.894000     -0.296000     -8.890000
C         -24.137000     -0.935000     -8.766000
S         -20.789000      1.081000     -8.660000
C         -23.233000      0.064000     -8.728000
C         -25.559000     -0.775000     -8.786000
C         -22.169000      2.156000     -8.418000
C         -23.385000      1.460000     -8.363000
N         -26.016000      0.360000     -9.232000
S         -26.623000     -2.105000     -8.615000
C         -27.342000      0.311000     -9.364000
C         -27.871000     -0.949000     -9.078000
C         -12.452000     -5.289000    -10.806000
H         -13.433000     -3.961000     -8.431000
H         -15.618000     -3.072000     -8.055000
H         -16.829000     -4.857000    -11.785000
H         -17.279000     -1.369000     -8.976000
H         -22.079000      3.234000     -8.404000
H         -24.281000      1.977000     -8.041000
H         -27.989000      1.149000     -9.586000
H         -28.897000     -1.288000     -9.011000
H         -12.345000     -5.072000    -11.876000
C         -12.242000     -6.749000    -10.436000
H         -11.714000     -4.704000    -10.244000
H         -13.165000     -7.206000    -10.815000
H         -12.189000     -6.843000     -9.344000
C         -10.931000     -7.364000    -10.993000
H         -10.127000     -6.618000    -10.978000
C         -11.279000     -7.823000    -12.476000
H         -10.537000     -8.234000    -10.453000
H         -12.191000     -7.351000    -12.861000
H         -11.344000     -8.916000    -12.548000
C         -10.235000     -7.230000    -13.351000
H         -10.343000     -6.161000    -13.131000
C         -10.526000     -7.500000    -14.868000
H          -9.212000     -7.576000    -13.156000
H          -9.896000     -6.785000    -15.411000
H         -11.577000     -7.365000    -15.150000
H         -10.185000     -8.489000    -15.200000
$end

--------------------------------------------------------------

             Standard Nuclear Orientation (Angstroms)
    I     Atom           X                Y                Z
 ----------------------------------------------------------------
    1      C      -3.6018626458     0.4801883501    -2.8795089776
    2      C      -2.6003272311    -0.0908800318    -3.6470477169
    3      N      -3.3572745293     1.0640489336    -1.6492084159
    4      C      -1.2642454682     0.1228644957    -3.2860438392
    5      C      -2.0736600589     1.2115618786    -1.2936415131
    6      C      -0.9821022560     0.8020592074    -2.0663271707
    7      C       0.4219795908     0.9921842956    -1.5841948047
    8      C       1.4428063207     0.2491206261    -2.1716045174
    9      C       0.8378334881     1.9946342885    -0.6370831176
   10      N       2.7403300742     0.3803611226    -1.8302058632
   11      N       0.0291007614     2.8915048731    -0.0393502917
   12      C       2.1277283228     1.9372568832    -0.1691930141
   13      C       3.0979673754     1.1460229953    -0.8039473881
   14      S       0.9998220644     3.6071330683     1.0882424708
   15      N       2.3366876965     2.7924671434     0.8680636518
   16      C       4.5797012071     1.2384688545    -0.4374564398
   17      S       5.1942420620     2.1012991254     0.9583732279
   18      C       5.5995706896     0.8771834665    -1.2408972324
   19      C       6.8433522009     1.7862609964     0.4365995922
   20      S       5.5948941326     0.1630502539    -2.8337794893
   21      C       6.8708846941     1.0953593209    -0.6927129582
   22      C       8.0095882374     2.1291142888     1.2135089352
   23      C       7.3497235332     0.0601781510    -2.8341041676
   24      C       7.8333349804     0.5436670375    -1.6450270193
   25      N       9.1356493422     1.5547047583     0.8958092663
   26      S       8.0189774650     3.4222717148     2.4352379206
   27      C      10.1625462619     2.1413650715     1.5824149707
   28      C       9.7268854683     3.0934292433     2.4564718828
   29      C      -5.0541199742     0.3705026364    -3.4008156977
   30      H      -2.9240136428    -0.6287400636    -4.5329685333
   31      H      -0.4433711374    -0.2003725235    -3.9190344888
   32      H      -2.0092143656     1.8383186634    -0.4053506344
   33      H       1.3018433439    -0.4543371536    -2.9902458255
   34      H       7.8530155425    -0.3925546402    -3.6774333875
   35      H       8.8731456886     0.4806823167    -1.3469706218
   36      H      11.1564503010     1.7277895578     1.4697248846
   37      H      10.3733432164     3.6353525182     3.1349146174
   38      H      -5.0731252398     0.6188596729    -4.4695947124
   39      C      -6.1297999703     1.2568850381    -2.6120484419
   40      H      -5.2928852174    -0.6915692385    -3.2674571909
   41      H      -5.7960421398     2.2479606666    -2.2824307707
   42      H      -6.3243932449     0.6388044393    -1.7273214609
   43      C      -7.4486258000     1.3043346409    -3.3561095726
   44      H      -7.4455660605     1.9932122308    -4.2091554706
   45      C      -8.4864766156     1.7994917859    -2.3612215958
   46      H      -7.7003298806     0.3205578892    -3.7735617957
   47      H      -8.2734000393     2.8007823451    -1.9664449645
   48      H      -8.6004179104     1.2184476496    -1.4381597924
   49      C      -9.8691589373     1.9015516264    -3.0748513222
   50      H      -9.7892455919     2.4672941015    -4.0106393907
   51      C     -10.9142338159     2.5442779948    -2.2024057288
   52      H     -10.1307901349     0.8892038738    -3.4098769097
   53      H     -10.6781335286     3.5453859702    -1.8215888754
   54      H     -11.1018633644     2.0761488739    -1.2273512284
   55      H     -11.8661857025     2.5432824534    -2.7467756530
   56      C       4.1874603505    -1.7886450055     0.8092583589
   57      C       3.6727624443    -1.1160460390     1.8604884458
   58      N       3.3934348867    -2.3601599310    -0.0940556800
   59      C       2.2827823694    -0.8900836329     1.9956083274
   60      C       2.0146922478    -2.1885485776    -0.0113255216
   61      C       1.4038004641    -1.5057913055     1.0557647914
   62      C      -0.0775407018    -1.3897204020     1.1805401715
   63      C      -0.6508184020    -0.1819335080     1.5065838755
   64      C      -1.0167324026    -2.4560642978     0.9336178251
   65      N      -1.9654455491     0.0341272902     1.6297918126
   66      N      -0.6555561183    -3.7511734798     0.7283913689
   67      C      -2.3712542637    -2.2536878693     0.9839001163
   68      C      -2.9036042586    -0.9046579764     1.3597668894
   69      S      -2.0013525303    -4.5727090974     0.4480696849
   70      N      -3.0646050784    -3.3627872788     0.8052436087
   71      C      -4.3021393720    -0.6907289141     1.5264938897
   72      S      -5.6337252800    -1.9529227409     1.6664249919
   73      C      -4.8079916426     0.5586797870     1.5396231699
   74      C      -6.8155731301    -0.6196716817     1.7289651553
   75      S      -4.1060355625     2.1945196183     1.5762251900
   76      C      -6.2009796633     0.5757448735     1.6293904092
   77      C      -8.2281572764    -0.8408222340     1.6674634247
   78      C      -5.7259358362     2.8949936089     1.6382597907
   79      C      -6.7240828125     1.9205803553     1.7808025037
   80      N      -8.9375180097     0.0613444406     1.0519208663
   81      S      -8.9229787919    -2.3648114602     2.0208992747
   82      C     -10.1981710829    -0.3500755064     0.9119621000
   83      C     -10.4003730249    -1.6514331433     1.3754485351
   84      C       5.6831750100    -2.0144076505     0.5066118891
   85      H       4.2750832088    -0.6688945282     2.6451726007
   86      H       1.9190145104    -0.3373806121     2.8572122478
   87      H       1.3973207248    -2.8816109402    -0.5808647775
   88      H      -0.0739432926     0.7263747841     1.6723432033
   89      H      -5.9160872110     3.9500314280     1.4929406421
   90      H      -7.7378429234     2.2256699263     2.0110193384
   91      H     -11.0261951802     0.2502655660     0.5596785621
   92      H     -11.3072381385    -2.2336049600     1.4791675861
   93      H       5.7852532470    -1.9293462454    -0.5823245603
   94      C       6.2412870986    -3.3021098348     1.0922175424
   95      H       6.2170033279    -1.1842076231     0.9846372457
   96      H       5.4867711482    -4.0326711812     0.7737763396
   97      H       6.2610032591    -3.2248472514     2.1866355458
   98      C       7.6926981107    -3.6254484464     0.6494385726
   99      H       8.2767847408    -2.7009966576     0.5634810327
  100      C       7.5498620188    -4.3627290151    -0.7530910042
  101      H       8.2685426844    -4.2777729288     1.3177287765
  102      H       6.5681484006    -4.2039862365    -1.2154675846
  103      H       7.7709392443    -5.4337052067    -0.6625766003
  104      C       8.4500893741    -3.6466291677    -1.6933046594
  105      H       8.0606480932    -2.6229656958    -1.6360894069
  106      C       8.3155575312    -4.1932910316    -3.1568387348
  107      H       9.5163127877    -3.6827157550    -1.4361366395
  108      H       8.7680144088    -3.4221500195    -3.7921326143
  109      H       7.2808149835    -4.3782419451    -3.4690101934
  110      H       8.9150933210    -5.0954455037    -3.3337572048
 ----------------------------------------------------------------

    9   -5663.5026347715      9.10E-06 Convergence criterion met
 Total energy in the final basis set = -5663.5026347715

                    Orbital Energies (a.u.)
 --------------------------------------------------------------

 Alpha MOs
 -- Occupied --
-88.991 -88.982 -88.931 -88.927 -88.925 -88.920 -88.905 -88.898
-14.386 -14.381 -14.374 -14.373 -14.344 -14.343 -14.341 -14.339
-14.323 -14.318 -10.265 -10.265 -10.262 -10.259 -10.253 -10.250
-10.248 -10.246 -10.236 -10.235 -10.235 -10.234 -10.233 -10.233
-10.230 -10.229 -10.226 -10.225 -10.225 -10.225 -10.224 -10.220
-10.220 -10.218 -10.217 -10.217 -10.213 -10.211 -10.211 -10.210
-10.210 -10.207 -10.203 -10.199 -10.196 -10.194 -10.193 -10.188
-10.186 -10.170 -10.170 -10.169 -10.169 -10.168 -10.168 -10.168
-10.163 -10.163 -10.162 -10.161  -8.047  -8.038  -7.993  -7.988
 -7.983  -7.979  -7.964  -7.958  -6.012  -6.006  -6.005  -6.003
 -5.998  -5.995  -5.957  -5.954  -5.952  -5.950  -5.949  -5.948
 -5.945  -5.944  -5.943  -5.940  -5.939  -5.936  -5.929  -5.925
 -5.923  -5.920  -5.919  -5.915  -1.046  -1.037  -0.989  -0.974
 -0.958  -0.949  -0.926  -0.924  -0.915  -0.908  -0.904  -0.895
 -0.843  -0.835  -0.828  -0.826  -0.815  -0.810  -0.807  -0.805
 -0.799  -0.798  -0.792  -0.791  -0.782  -0.774  -0.763  -0.762
 -0.745  -0.745  -0.735  -0.732  -0.726  -0.724  -0.703  -0.701
 -0.687  -0.686  -0.673  -0.669  -0.652  -0.643  -0.643  -0.639
 -0.630  -0.629  -0.619  -0.618  -0.609  -0.608  -0.599  -0.591
 -0.590  -0.587  -0.583  -0.579  -0.573  -0.569  -0.563  -0.561
 -0.553  -0.547  -0.540  -0.536  -0.521  -0.519  -0.511  -0.508
 -0.503  -0.501  -0.497  -0.492  -0.480  -0.479  -0.474  -0.471
 -0.468  -0.467  -0.466  -0.462  -0.457  -0.455  -0.451  -0.446
 -0.442  -0.441  -0.439  -0.436  -0.435  -0.432  -0.428  -0.427
 -0.423  -0.419  -0.418  -0.417  -0.416  -0.415  -0.412  -0.409
 -0.405  -0.403  -0.402  -0.400  -0.399  -0.397  -0.396  -0.395
 -0.392  -0.390  -0.389  -0.388  -0.384  -0.383  -0.380  -0.378
 -0.377  -0.371  -0.369  -0.360  -0.359  -0.358  -0.353  -0.351
 -0.347  -0.346  -0.344  -0.342  -0.340  -0.339  -0.337  -0.335
 -0.333  -0.330  -0.328  -0.325  -0.324  -0.319  -0.315  -0.314
 -0.310  -0.308  -0.305  -0.304  -0.302  -0.299  -0.298  -0.297
 -0.292  -0.291  -0.288  -0.285  -0.284  -0.281  -0.274  -0.270
 -0.268  -0.267  -0.262  -0.258  -0.250  -0.248  -0.246  -0.244
 -0.241  -0.236  -0.228  -0.224  -0.193  -0.189

          Ground-State Mulliken Net Atomic Charges

     Atom                 Charge (a.u.)
  ----------------------------------------
      1 C                     0.269962
      2 C                    -0.117434
      3 N                    -0.496875
      4 C                    -0.078645
      5 C                     0.065080
      6 C                     0.041637
      7 C                     0.053188
      8 C                     0.042657
      9 C                     0.236245
     10 N                    -0.521842
     11 N                    -0.566494
     12 C                     0.198886
     13 C                     0.325639
     14 S                     0.614189
     15 N                    -0.553059
     16 C                    -0.216262
     17 S                     0.301467
     18 C                    -0.129328
     19 C                    -0.277467
     20 S                     0.272220
     21 C                     0.221148
     22 C                     0.080054
     23 C                    -0.303537
     24 C                    -0.069142
     25 N                    -0.433821
     26 S                     0.261883
     27 C                     0.124841
     28 C                    -0.305980
     29 C                    -0.258985
     30 H                     0.088316
     31 H                     0.099075
     32 H                     0.150892
     33 H                     0.113157
     34 H                     0.141450
     35 H                     0.115055
     36 H                     0.116187
     37 H                     0.122573
     38 H                     0.105630
     39 C                    -0.166519
     40 H                     0.119807
     41 H                     0.111958
     42 H                     0.116044
     43 C                    -0.174846
     44 H                     0.088388
     45 C                    -0.187784
     46 H                     0.085703
     47 H                     0.086566
     48 H                     0.118418
     49 C                    -0.172256
     50 H                     0.089405
     51 C                    -0.323174
     52 H                     0.088315
     53 H                     0.101005
     54 H                     0.093239
     55 H                     0.094536
     56 C                     0.276720
     57 C                    -0.111576
     58 N                    -0.476171
     59 C                    -0.093030
     60 C                     0.057625
     61 C                     0.033064
     62 C                     0.050811
     63 C                     0.051777
     64 C                     0.196960
     65 N                    -0.538824
     66 N                    -0.539911
     67 C                     0.216248
     68 C                     0.322699
     69 S                     0.590766
     70 N                    -0.588546
     71 C                    -0.212327
     72 S                     0.314330
     73 C                    -0.078321
     74 C                    -0.237666
     75 S                     0.297330
     76 C                     0.167216
     77 C                     0.060774
     78 C                    -0.314063
     79 C                    -0.050360
     80 N                    -0.420967
     81 S                     0.272979
     82 C                     0.136904
     83 C                    -0.315131
     84 C                    -0.217603
     85 H                     0.090938
     86 H                     0.100768
     87 H                     0.116507
     88 H                     0.100108
     89 H                     0.131464
     90 H                     0.112159
     91 H                     0.122725
     92 H                     0.130030
     93 H                     0.134926
     94 C                    -0.179790
     95 H                     0.095750
     96 H                     0.113624
     97 H                     0.078867
     98 C                    -0.192151
     99 H                     0.102207
    100 C                    -0.164921
    101 H                     0.087135
    102 H                     0.107673
    103 H                     0.085645
    104 C                    -0.181255
    105 H                     0.106656
    106 C                    -0.328180
    107 H                     0.085791
    108 H                     0.088108
    109 H                     0.102825
    110 H                     0.099319
  ----------------------------------------
  Sum of atomic charges =     0.000000

                    Cartesian Multipole Moments
 -----------------------------------------------------------------
    Charge (ESU x 10^10)
                 0.0000
    Dipole Moment (Debye)
         X      -2.0160      Y       0.9358      Z       0.8251
       Tot       2.3708
    Quadrupole Moments (Debye-Ang)
        XX    -382.7041     XY      23.2435     YY    -435.7251
        XZ      10.4918     YZ      10.7321     ZZ    -433.9365

 Total job time:  105.40s(wall), 1276.45s(cpu)
        *  Thank you very much for using Q-Chem.  Have a nice day.  *
