 Q-Chem 4.4, Q-Chem, Inc., Pleasanton, CA (2016)
 Q-Chem 4.4.2 for Intel X86 Linux

User input:
--------------------------------------------------------------
$comment
SP
$end

$rem
MEM_STATIC 5000
MEM_TOTAL 20000
JOBTYPE SP
EXCHANGE B3LYP
BASIS 6-31g(d,p)
$end

$molecule
0 1
C          -2.314000     18.947000     -3.181000
C          -2.544000     20.271000     -2.738000
N          -1.255000     18.624000     -3.950000
C          -1.733000     21.282000     -3.262000
C          -0.450000     19.581000     -4.410000
C          -0.639000     20.975000     -4.136000
C           0.350000     22.019000     -4.482000
C          -0.091000     23.158000     -5.273000
C           1.687000     21.928000     -4.162000
N           0.806000     24.108000     -5.616000
N           2.341000     20.933000     -3.525000
C           2.612000     22.965000     -4.496000
C           2.068000     24.085000     -5.134000
S           3.988000     21.192000     -3.605000
N           3.941000     22.654000     -4.340000
C           2.726000     25.389000     -5.241000
S           2.408000     26.686000     -6.430000
C           3.707000     25.863000     -4.392000
C           3.671000     27.744000     -5.782000
S           4.183000     25.294000     -2.820000
C           4.166000     27.145000     -4.704000
C           3.838000     29.154000     -6.002000
C           4.937000     26.848000     -2.448000
C           4.794000     27.734000     -3.548000
N           2.793000     29.990000     -5.958000
S           5.416000     29.917000     -6.112000
C           3.226000     31.259000     -5.854000
C           4.587000     31.462000     -6.015000
C          -3.185000     17.845000     -2.456000
H          -3.279000     20.454000     -1.960000
H          -1.971000     22.323000     -3.060000
H           0.308000     19.244000     -5.115000
H          -1.131000     23.113000     -5.593000
H           5.407000     26.989000     -1.483000
H           5.281000     28.702000     -3.502000
H           2.490000     32.051000     -5.894000
H           5.114000     32.406000     -6.044000
H          -3.523000     18.119000     -1.449000
C          -2.564000     16.399000     -2.504000
H          -4.140000     17.933000     -2.989000
H          -1.743000     16.356000     -1.778000
H          -2.073000     16.125000     -3.446000
C          -3.652000     15.352000     -2.071000
H          -4.018000     15.589000     -1.064000
C          -3.227000     13.923000     -2.247000
H          -4.504000     15.467000     -2.752000
H          -2.806000     13.784000     -3.250000
H          -4.145000     13.325000     -2.183000
C          -2.261000     13.248000     -1.317000
H          -1.519000     14.016000     -1.066000
C          -1.679000     11.901000     -1.787000
H          -2.749000     13.077000     -0.350000
H          -1.355000     12.068000     -2.822000
H          -2.505000     11.193000     -1.648000
H          -0.865000     11.520000     -1.157000
C           2.931000     19.712000     -7.968000
C           2.718000     19.394000     -9.304000
N           2.043000     20.441000     -7.323000
C           1.566000     19.805000     -9.998000
C           0.964000     20.976000     -7.962000
C           0.589000     20.617000     -9.283000
C          -0.692000     21.038000    -10.022000
C          -0.690000     21.214000    -11.375000
C          -1.983000     21.231000     -9.422000
N          -1.729000     21.482000    -12.126000
N          -2.272000     21.205000     -8.140000
C          -3.105000     21.661000    -10.212000
C          -2.874000     21.791000    -11.611000
S          -3.848000     21.363000     -7.882000
N          -4.260000     21.716000     -9.414000
C          -3.791000     22.349000    -12.601000
S          -3.571000     21.962000    -14.309000
C          -4.802000     23.260000    -12.431000
C          -5.017000     22.909000    -14.699000
S          -5.416000     23.983000    -10.983000
C          -5.447000     23.602000    -13.618000
C          -5.518000     23.074000    -16.032000
C          -6.674000     24.658000    -11.989000
C          -6.552000     24.399000    -13.372000
N          -6.497000     23.904000    -16.319000
S          -4.679000     22.360000    -17.438000
C          -6.685000     24.007000    -17.667000
C          -5.768000     23.290000    -18.419000
C           4.137000     19.232000     -7.176000
H           3.392000     18.716000     -9.817000
H           1.557000     19.317000    -10.968000
H           0.286000     21.571000     -7.350000
H           0.225000     21.048000    -11.941000
H          -7.442000     25.196000    -11.449000
H          -7.300000     24.599000    -14.130000
H          -7.497000     24.596000    -18.073000
H          -5.644000     23.216000    -19.491000
H           4.784000     18.692000     -7.878000
C           3.829000     18.275000     -6.035000
H           4.756000     20.081000     -6.860000
H           3.122000     17.535000     -6.429000
H           3.162000     18.810000     -5.348000
C           5.124000     17.664000     -5.385000
H           5.637000     17.021000     -6.111000
C           4.615000     16.737000     -4.252000
H           5.665000     18.532000     -4.989000
H           3.911000     15.942000     -4.528000
H           4.124000     17.347000     -3.484000
C           5.842000     16.091000     -3.662000
H           6.380000     15.384000     -4.306000
C           5.666000     15.514000     -2.257000
H           6.658000     16.821000     -3.600000
H           4.944000     16.117000     -1.692000
H           6.614000     15.404000     -1.715000
H           5.296000     14.484000     -2.328000
$end

--------------------------------------------------------------

             Standard Nuclear Orientation (Angstroms)
    I     Atom           X                Y                Z
 ----------------------------------------------------------------
    1      C      -2.5175800854     4.2323205443     2.8865792522
    2      C      -2.5637388973     3.1574551768     3.8056324639
    3      N      -2.5595468247     4.0357964001     1.5536171171
    4      C      -2.4811891207     1.8595491473     3.2927548244
    5      C      -2.5320165416     2.7975287381     1.0622829326
    6      C      -2.4571484819     1.6223427516     1.8792074522
    7      C      -2.6166272979     0.2486968191     1.3543871408
    8      C      -1.5743609870    -0.7270904628     1.6354620732
    9      C      -3.6634270928    -0.1329907753     0.5439707234
   10      N      -1.6951725202    -1.9793724140     1.1435754112
   11      N      -4.6869779468     0.6114967519     0.0732351595
   12      C      -3.7962223772    -1.4746115254     0.0696615674
   13      C      -2.8193088511    -2.3754691583     0.5072406890
   14      S      -5.5468107236    -0.2571751169    -1.0635087784
   15      N      -4.7359301888    -1.6712788984    -0.9129722266
   16      C      -2.9435023601    -3.8338747033     0.4576600595
   17      S      -1.6325093497    -5.0496018088     0.4766055542
   18      C      -4.1327445436    -4.5355847947     0.4238373372
   19      C      -2.7471576276    -6.4183289514     0.3402889168
   20      S      -5.7465105674    -4.0011656659     0.7867097874
   21      C      -3.9795672325    -5.9237195207     0.3896658014
   22      C      -2.4809291475    -7.8026507627     0.6180739404
   23      C      -6.2777828149    -5.6669435582     1.0411696326
   24      C      -5.1945037773    -6.5604812973     0.8325028280
   25      N      -1.7973751151    -8.1707294415     1.7090042640
   26      S      -3.2097431605    -9.1116837929    -0.2982315002
   27      C      -1.9645924477    -9.4864390705     1.9317429805
   28      C      -2.6004354838   -10.2057061700     0.9328388445
   29      C      -2.7385612445     5.6608917987     3.5261271381
   30      H      -2.7360767103     3.3614211144     4.8581036390
   31      H      -2.3668203968     1.0181635477     3.9710755949
   32      H      -2.4520476938     2.7351720378    -0.0216334043
   33      H      -0.7184032833    -0.3325475283     2.1810784973
   34      H      -7.3068986195    -5.8560757679     1.3189387234
   35      H      -5.3864956865    -7.6272710544     0.8700224372
   36      H      -1.3992678850    -9.9408885298     2.7345155682
   37      H      -2.7587029088   -11.2746842679     0.8887565522
   38      H      -3.3135944102     5.6594894767     4.4603133571
   39      C      -3.2530354887     6.7484343486     2.5105344766
   40      H      -1.7435237986     5.8753185261     3.9357362931
   41      H      -4.3190015629     6.5667426862     2.3270393309
   42      H      -2.8191858375     6.7000551046     1.5040778561
   43      C      -3.1061576888     8.1727703760     3.1563949825
   44      H      -3.6698020529     8.2158978260     4.0969368762
   45      C      -3.4016231108     9.3030274761     2.2136006930
   46      H      -2.0487192121     8.3055317504     3.4154090464
   47      H      -2.8602032793     9.1496702918     1.2723689787
   48      H      -2.9980692072    10.2060614526     2.6890982053
   49      C      -4.7994134257     9.6717529513     1.8087491653
   50      H      -5.3307837995     8.7173937542     1.7075906327
   51      C      -4.9394586717    10.6316953046     0.6116982026
   52      H      -5.3140464300    10.1306062279     2.6614393444
   53      H      -4.2753644261    10.2300789641    -0.1640421844
   54      H      -4.6641965659    11.6101632877     1.0236353083
   55      H      -5.9691171866    10.7512687840     0.2509177628
   56      C      -1.6270236275     0.9686810377    -3.4035865140
   57      C      -0.4732164460     1.1781947879    -4.1493894213
   58      N      -1.5312508601     0.7128548856    -2.1146371136
   59      C       0.8084464465     1.1507505349    -3.5712475329
   60      C      -0.3197630628     0.5507353506    -1.5106490563
   61      C       0.9108382307     0.8608143747    -2.1462735172
   62      C       2.3049968269     0.8673561842    -1.4977351504
   63      C       3.4128130908     0.5401686795    -2.2238759510
   64      C       2.6003360824     1.2501386069    -0.1448928310
   65      N       4.6555086164     0.5944538569    -1.8138674755
   66      N       1.7363693738     1.5391954705     0.8025926074
   67      C       3.9440916944     1.1822399560     0.3626449790
   68      C       4.9494721908     0.8053181525    -0.5725566096
   69      S       2.4673274263     2.0199256992     2.1479188773
   70      N       3.9831297905     1.6645557232     1.6816224343
   71      C       6.3513883660     0.5182220624    -0.2817648065
   72      S       7.5425926358     0.5824645189    -1.5826638397
   73      C       6.9239955858     0.0838140827     0.8862902774
   74      C       8.8224344188     0.2108275381    -0.4148813407
   75      S       6.2152075795    -0.1720019512     2.4446890450
   76      C       8.2970876788    -0.1315514235     0.7853259120
   77      C      10.2054288541     0.0858726889    -0.7710100780
   78      C       7.8438887717    -0.4398649165     3.0155410453
   79      C       8.8482996875    -0.4165848239     2.0229329910
   80      N      11.1153798741    -0.3419160393     0.0767492894
   81      S      10.7507863215     0.2536884984    -2.4636341021
   82      C      12.3200657719    -0.5298174259    -0.5368319656
   83      C      12.2948663193    -0.3089819711    -1.9047057498
   84      C      -3.0278884161     1.0510499542    -3.9891573513
   85      H      -0.5436257670     1.4839857189    -5.1879766512
   86      H       1.5273396948     1.4840009501    -4.3137175043
   87      H      -0.3374646503     0.3347180519    -0.4423437720
   88      H       3.3125562422     0.2785408205    -3.2758438344
   89      H       7.9287748477    -0.5783803968     4.0853428100
   90      H       9.9182735264    -0.4104659463     2.1937736876
   91      H      13.1963888550    -0.8138207792     0.0310597049
   92      H      13.0730842828    -0.4184153620    -2.6479668979
   93      H      -2.9126428195     1.2172968401    -5.0671617230
   94      C      -3.8910494294     2.1848548117    -3.4580889846
   95      H      -3.5291089965     0.0766302258    -3.9334606479
   96      H      -3.2615898781     3.0828846109    -3.4552336167
   97      H      -3.9832840792     2.0289135365    -2.3763043073
   98      C      -5.2471216989     2.3366308002    -4.2396758635
   99      H      -5.0482978529     2.6450545504    -5.2736187384
  100      C      -5.9829301711     3.5177208732    -3.5572455510
  101      H      -5.7646301314     1.3839301171    -4.0739428528
  102      H      -5.4571894139     4.4794921821    -3.5081578165
  103      H      -6.2326299438     3.2364150808    -2.5269436172
  104      C      -7.2559291862     3.7199654058    -4.3379603879
  105      H      -7.1459316520     4.0877106562    -5.3659161133
  106      C      -8.3573700130     4.4872717675    -3.6058408263
  107      H      -7.6837401927     2.7495595494    -4.6170485756
  108      H      -8.3106957019     4.2747769789    -2.5303012066
  109      H      -9.3584717115     4.2967799356    -4.0133653669
  110      H      -8.2216146929     5.5638142121    -3.7654273480
 ----------------------------------------------------------------

   10   -5663.4802306118      3.19E-06 Convergence criterion met
 Total energy in the final basis set = -5663.4802306118

                    Orbital Energies (a.u.)
 --------------------------------------------------------------

 Alpha MOs
 -- Occupied --
-88.994 -88.988 -88.929 -88.919 -88.919 -88.918 -88.909 -88.903
-14.385 -14.382 -14.372 -14.371 -14.347 -14.342 -14.341 -14.339
-14.329 -14.326 -10.267 -10.264 -10.262 -10.261 -10.259 -10.257
-10.251 -10.249 -10.243 -10.236 -10.233 -10.232 -10.231 -10.231
-10.231 -10.229 -10.229 -10.228 -10.228 -10.228 -10.227 -10.226
-10.225 -10.225 -10.225 -10.224 -10.223 -10.223 -10.220 -10.217
-10.212 -10.210 -10.202 -10.202 -10.198 -10.196 -10.196 -10.192
-10.192 -10.186 -10.182 -10.177 -10.176 -10.176 -10.175 -10.172
-10.170 -10.168 -10.168 -10.167  -8.049  -8.042  -7.989  -7.980
 -7.978  -7.976  -7.970  -7.964  -6.015  -6.009  -6.007  -6.007
 -6.001  -6.000  -5.953  -5.950  -5.947  -5.944  -5.942  -5.941
 -5.941  -5.939  -5.937  -5.937  -5.934  -5.934  -5.933  -5.931
 -5.928  -5.926  -5.924  -5.920  -1.037  -1.019  -0.981  -0.968
 -0.967  -0.951  -0.940  -0.933  -0.917  -0.912  -0.893  -0.888
 -0.847  -0.837  -0.829  -0.823  -0.812  -0.810  -0.808  -0.803
 -0.802  -0.801  -0.795  -0.792  -0.785  -0.781  -0.770  -0.762
 -0.749  -0.745  -0.744  -0.735  -0.721  -0.718  -0.712  -0.707
 -0.696  -0.689  -0.677  -0.673  -0.654  -0.649  -0.641  -0.641
 -0.636  -0.633  -0.624  -0.623  -0.608  -0.607  -0.597  -0.594
 -0.589  -0.589  -0.584  -0.581  -0.581  -0.576  -0.573  -0.555
 -0.550  -0.542  -0.542  -0.537  -0.527  -0.517  -0.517  -0.512
 -0.509  -0.503  -0.502  -0.496  -0.485  -0.478  -0.477  -0.475
 -0.471  -0.469  -0.464  -0.462  -0.460  -0.456  -0.449  -0.448
 -0.446  -0.441  -0.439  -0.437  -0.435  -0.432  -0.431  -0.429
 -0.428  -0.427  -0.420  -0.418  -0.417  -0.416  -0.413  -0.413
 -0.411  -0.409  -0.406  -0.406  -0.405  -0.400  -0.399  -0.396
 -0.395  -0.392  -0.390  -0.387  -0.384  -0.383  -0.381  -0.379
 -0.375  -0.373  -0.372  -0.370  -0.366  -0.363  -0.362  -0.355
 -0.352  -0.350  -0.350  -0.344  -0.341  -0.340  -0.337  -0.336
 -0.335  -0.334  -0.332  -0.329  -0.325  -0.323  -0.320  -0.316
 -0.308  -0.306  -0.305  -0.301  -0.300  -0.297  -0.295  -0.294
 -0.291  -0.289  -0.288  -0.285  -0.284  -0.281  -0.281  -0.280
 -0.277  -0.272  -0.266  -0.256  -0.252  -0.247  -0.246  -0.243
 -0.242  -0.240  -0.234  -0.226  -0.192  -0.188

          Ground-State Mulliken Net Atomic Charges

     Atom                 Charge (a.u.)
  ----------------------------------------
      1 C                     0.268494
      2 C                    -0.109561
      3 N                    -0.483992
      4 C                    -0.076512
      5 C                     0.101374
      6 C                    -0.002297
      7 C                    -0.004082
      8 C                     0.071846
      9 C                     0.319593
     10 N                    -0.502544
     11 N                    -0.587400
     12 C                     0.165182
     13 C                     0.277941
     14 S                     0.620645
     15 N                    -0.527543
     16 C                    -0.205101
     17 S                     0.329483
     18 C                    -0.117297
     19 C                    -0.199760
     20 S                     0.257817
     21 C                     0.133524
     22 C                    -0.000774
     23 C                    -0.300634
     24 C                    -0.081219
     25 N                    -0.382786
     26 S                     0.274663
     27 C                     0.118929
     28 C                    -0.307520
     29 C                    -0.242064
     30 H                     0.091460
     31 H                     0.095025
     32 H                     0.124572
     33 H                     0.126043
     34 H                     0.135829
     35 H                     0.109033
     36 H                     0.112289
     37 H                     0.133536
     38 H                     0.108187
     39 C                    -0.174261
     40 H                     0.111566
     41 H                     0.103135
     42 H                     0.120301
     43 C                    -0.180876
     44 H                     0.085759
     45 C                    -0.164626
     46 H                     0.093405
     47 H                     0.085367
     48 H                     0.081008
     49 C                    -0.182637
     50 H                     0.087622
     51 C                    -0.311560
     52 H                     0.083739
     53 H                     0.104326
     54 H                     0.105905
     55 H                     0.104058
     56 C                     0.293894
     57 C                    -0.132961
     58 N                    -0.503768
     59 C                    -0.074574
     60 C                     0.079791
     61 C                     0.017015
     62 C                     0.079503
     63 C                     0.042556
     64 C                     0.212990
     65 N                    -0.498212
     66 N                    -0.555593
     67 C                     0.195040
     68 C                     0.295417
     69 S                     0.622915
     70 N                    -0.552927
     71 C                    -0.220444
     72 S                     0.305359
     73 C                    -0.109044
     74 C                    -0.219393
     75 S                     0.292556
     76 C                     0.160867
     77 C                     0.069990
     78 C                    -0.311246
     79 C                    -0.063963
     80 N                    -0.450494
     81 S                     0.252570
     82 C                     0.131426
     83 C                    -0.313797
     84 C                    -0.222157
     85 H                     0.085614
     86 H                     0.109565
     87 H                     0.123023
     88 H                     0.104736
     89 H                     0.127569
     90 H                     0.131010
     91 H                     0.114249
     92 H                     0.132260
     93 H                     0.086839
     94 C                    -0.200138
     95 H                     0.113596
     96 H                     0.091272
     97 H                     0.127942
     98 C                    -0.177620
     99 H                     0.102176
    100 C                    -0.166279
    101 H                     0.101739
    102 H                     0.101304
    103 H                     0.099125
    104 C                    -0.180940
    105 H                     0.088191
    106 C                    -0.322511
    107 H                     0.086600
    108 H                     0.101962
    109 H                     0.098075
    110 H                     0.100710
  ----------------------------------------
  Sum of atomic charges =     0.000000

                    Cartesian Multipole Moments
 -----------------------------------------------------------------
    Charge (ESU x 10^10)
                 0.0000
    Dipole Moment (Debye)
         X      -0.7873      Y      -0.9285      Z       0.0135
       Tot       1.2174
    Quadrupole Moments (Debye-Ang)
        XX    -410.6247     XY      12.4333     YY    -418.1089
        XZ      -3.7124     YZ       0.7348     ZZ    -414.9409

 Total job time:  94.14s(wall), 1117.14s(cpu)
        *  Thank you very much for using Q-Chem.  Have a nice day.  *
