 Q-Chem 4.4, Q-Chem, Inc., Pleasanton, CA (2016)
 Q-Chem 4.4.2 for Intel X86 Linux

User input:
--------------------------------------------------------------
$comment
SP
$end

$rem
MEM_STATIC 5000
MEM_TOTAL 20000
JOBTYPE SP
EXCHANGE B3LYP
BASIS 6-31g(d,p)
$end

$molecule
0 1
C         -13.296000     12.157000     -7.563000
C         -13.507000     12.886000     -6.374000
N         -12.703000     12.722000     -8.687000
C         -13.044000     14.228000     -6.284000
C         -12.342000     14.013000     -8.618000
C         -12.492000     14.837000     -7.441000
C         -12.180000     16.316000     -7.513000
C         -11.117000     16.845000     -8.233000
C         -12.968000     17.288000     -6.823000
N         -10.838000     18.153000     -8.195000
N         -13.938000     16.940000     -5.929000
C         -12.644000     18.662000     -6.851000
C         -11.545000     19.054000     -7.673000
S         -14.462000     18.366000     -5.326000
N         -13.434000     19.403000     -6.010000
C         -10.934000     20.372000     -7.731000
S         -11.504000     21.705000     -6.869000
C          -9.759000     20.714000     -8.451000
C         -10.135000     22.776000     -7.391000
S          -8.747000     19.834000     -9.596000
C          -9.363000     22.060000     -8.318000
C          -9.944000     24.188000     -7.003000
C          -7.677000     21.308000     -9.686000
C          -8.140000     22.376000     -8.944000
N         -10.542000     24.585000     -5.924000
S          -8.910000     25.385000     -7.832000
C         -10.231000     25.935000     -5.619000
C          -9.471000     26.587000     -6.603000
C         -13.696000     10.616000     -7.611000
H         -13.955000     12.372000     -5.529000
H         -13.132000     14.693000     -5.307000
H         -11.952000     14.349000     -9.577000
H         -10.439000     16.227000     -8.819000
H          -6.821000     21.371000    -10.344000
H          -7.582000     23.304000     -8.993000
H         -10.734000     26.441000     -4.805000
H          -9.188000     27.617000     -6.777000
H         -14.665000     10.375000     -7.156000
C         -12.579000      9.824000     -6.881000
H         -13.704000     10.274000     -8.653000
H         -12.471000     10.053000     -5.813000
H         -11.580000     10.076000     -7.256000
C         -12.857000      8.326000     -6.966000
H         -13.795000      8.093000     -6.447000
C         -11.739000      7.510000     -6.320000
H         -13.047000      8.042000     -8.008000
H         -11.768000      7.684000     -5.237000
H         -10.759000      7.756000     -6.747000
C         -11.985000      6.056000     -6.507000
H         -13.024000      5.844000     -6.226000
C         -11.071000      5.212000     -5.596000
H         -11.851000      5.819000     -7.570000
H          -9.986000      5.305000     -5.731000
H         -11.239000      4.141000     -5.761000
H         -11.269000      5.493000     -4.554000
C           2.931000     19.712000     -7.968000
C           2.718000     19.394000     -9.304000
N           2.043000     20.441000     -7.323000
C           1.566000     19.805000     -9.998000
C           0.964000     20.976000     -7.962000
C           0.589000     20.617000     -9.283000
C          -0.692000     21.038000    -10.022000
C          -0.690000     21.214000    -11.375000
C          -1.983000     21.231000     -9.422000
N          -1.729000     21.482000    -12.126000
N          -2.272000     21.205000     -8.140000
C          -3.105000     21.661000    -10.212000
C          -2.874000     21.791000    -11.611000
S          -3.848000     21.363000     -7.882000
N          -4.260000     21.716000     -9.414000
C          -3.791000     22.349000    -12.601000
S          -3.571000     21.962000    -14.309000
C          -4.802000     23.260000    -12.431000
C          -5.017000     22.909000    -14.699000
S          -5.416000     23.983000    -10.983000
C          -5.447000     23.602000    -13.618000
C          -5.518000     23.074000    -16.032000
C          -6.674000     24.658000    -11.989000
C          -6.552000     24.399000    -13.372000
N          -6.497000     23.904000    -16.319000
S          -4.679000     22.360000    -17.438000
C          -6.685000     24.007000    -17.667000
C          -5.768000     23.290000    -18.419000
C           4.137000     19.232000     -7.176000
H           3.392000     18.716000     -9.817000
H           1.557000     19.317000    -10.968000
H           0.286000     21.571000     -7.350000
H           0.225000     21.048000    -11.941000
H          -7.442000     25.196000    -11.449000
H          -7.300000     24.599000    -14.130000
H          -7.497000     24.596000    -18.073000
H          -5.644000     23.216000    -19.491000
H           4.784000     18.692000     -7.878000
C           3.829000     18.275000     -6.035000
H           4.756000     20.081000     -6.860000
H           3.122000     17.535000     -6.429000
H           3.162000     18.810000     -5.348000
C           5.124000     17.664000     -5.385000
H           5.637000     17.021000     -6.111000
C           4.615000     16.737000     -4.252000
H           5.665000     18.532000     -4.989000
H           3.911000     15.942000     -4.528000
H           4.124000     17.347000     -3.484000
C           5.842000     16.091000     -3.662000
H           6.380000     15.384000     -4.306000
C           5.666000     15.514000     -2.257000
H           6.658000     16.821000     -3.600000
H           4.944000     16.117000     -1.692000
H           6.614000     15.404000     -1.715000
H           5.296000     14.484000     -2.328000
$end

--------------------------------------------------------------

             Standard Nuclear Orientation (Angstroms)
    I     Atom           X                Y                Z
 ----------------------------------------------------------------
    1      C      -9.6214209825     1.9157766130     1.7852496102
    2      C      -9.6816246559     1.8007182512     0.3806784688
    3      N      -8.5891789535     1.3604686307     2.5338212089
    4      C      -8.6233656623     1.1527294708    -0.3147576843
    5      C      -7.6369238757     0.6821995645     1.8743332706
    6      C      -7.5948297119     0.5290825457     0.4385100712
    7      C      -6.5542243787    -0.3705293533    -0.1922101295
    8      C      -5.2423010522    -0.4615656354     0.2536369077
    9      C      -6.8540102665    -1.1970676035    -1.3186163362
   10      N      -4.3420510421    -1.2112198097    -0.3926738057
   11      N      -8.0339201126    -1.1059164342    -1.9973977586
   12      C      -5.8677206798    -1.9967763731    -1.9361394005
   13      C      -4.5744695024    -2.0154100535    -1.3325640712
   14      S      -7.8609641394    -2.1426392806    -3.2491776798
   15      N      -6.3224867026    -2.5958542098    -3.0827673306
   16      C      -3.3735901479    -2.6279816679    -1.8770397759
   17      S      -3.3443614031    -3.5122214188    -3.3130407311
   18      C      -2.0661687620    -2.5244357423    -1.3330576429
   19      C      -1.5426717219    -3.7280185700    -3.2809178088
   20      S      -1.4326778202    -1.8352638577     0.1613654364
   21      C      -1.0707047683    -3.1940560221    -2.0725717524
   22      C      -0.7388722287    -4.4480481921    -4.2890014948
   23      C       0.2351943427    -2.3147651219    -0.3989532102
   24      C       0.2419908000    -3.0044125090    -1.5947363384
   25      N      -1.2663589366    -4.5935132940    -5.4637575023
   26      S       0.9197352184    -5.0738050655    -4.0730022544
   27      C      -0.3771993722    -5.2387331333    -6.3611607717
   28      C       0.8069584794    -5.7009928734    -5.7653033094
   29      C     -10.7401902285     2.7576427327     2.5445926227
   30      H     -10.5057371627     2.2798935366    -0.1390855372
   31      H      -8.6718416045     1.2005001822    -1.3982086717
   32      H      -6.9276946988     0.2464885992     2.5756370061
   33      H      -4.8728516093     0.0989784959     1.1105507810
   34      H       1.1207679772    -2.1661135022     0.2038162597
   35      H       1.1948577785    -3.3677177503    -1.9621636415
   36      H      -0.7108707349    -5.5231385442    -7.3508162592
   37      H       1.6134203982    -6.3445748462    -6.0919321778
   38      H     -11.7662949936     2.5829484144     2.1972341533
   39      C     -10.3907513144     4.2591058238     2.3675219265
   40      H     -10.6927570806     2.5411084014     3.6186759434
   41      H     -10.4199921927     4.6226278492     1.3322800669
   42      H      -9.3519374378     4.4776374861     2.6418203812
   43      C     -11.3782717362     5.1228641494     3.1467766804
   44      H     -12.3888443567     4.9877232551     2.7418397503
   45      C     -11.0217994489     6.6052749101     3.0546797471
   46      H     -11.4510330125     4.7635242015     4.1802662055
   47      H     -11.1960118807     6.9373991965     2.0234913613
   48      H      -9.9902372700     6.7947812779     3.3759456923
   49      C     -11.9374286377     7.4115554120     3.9038769802
   50      H     -12.9676509272     7.1015326986     3.6895082527
   51      C     -11.8227640260     8.9147549631     3.5800002500
   52      H     -11.7136332667     7.1913487174     4.9553134469
   53      H     -10.8486961748     9.3979569538     3.7276710242
   54      H     -12.4802533400     9.5041871867     4.2302059527
   55      H     -12.0719208884     9.0589642872     2.5212020970
   56      C       7.7847665892     5.4975550527    -0.3949055281
   57      C       7.7406715591     5.0214343734     0.9099905318
   58      N       7.2863872050     4.7668151513    -1.3714541372
   59      C       7.1567538762     3.7847133409     1.2374385847
   60      C       6.8148359821     3.5074462819    -1.1469179599
   61      C       6.6123878549     2.9760572733     0.1535386820
   62      C       5.9371371497     1.6404821106     0.5065237665
   63      C       6.3305247116     0.9289806847     1.6022431408
   64      C       4.8380354258     1.0425098499    -0.1994043997
   65      N       5.7784071306    -0.1684198789     2.0563622657
   66      N       4.3012354786     1.4566541650    -1.3254822402
   67      C       4.3100602638    -0.2325691063     0.2046994035
   68      C       4.8788874966    -0.8034197294     1.3785934129
   69      S       3.0246136967     0.5750309049    -1.7357032210
   70      N       3.2077138768    -0.5709530361    -0.5979105636
   71      C       4.6309707375    -2.1409746593     1.9094767242
   72      S       4.9912209765    -2.4878010583     3.6022153970
   73      C       4.2309019625    -3.2755377835     1.2509530023
   74      C       4.3750127659    -4.1348933344     3.3849609951
   75      S       3.7773226275    -3.4993541608    -0.4045230670
   76      C       4.1393002686    -4.3941616386     2.0769359322
   77      C       4.3429392188    -5.1115745073     4.4338557344
   78      C       3.3120793169    -5.1173069502     0.0602375524
   79      C       3.5856204038    -5.4679067730     1.4007259104
   80      N       4.0287725106    -6.3698780155     4.2154946554
   81      S       4.9776360482    -4.7498560062     6.0638473481
   82      C       4.2263136516    -7.1341086493     5.3290412579
   83      C       4.7786224899    -6.4421348065     6.3951599886
   84      C       8.3557245463     6.8557965055    -0.7707873808
   85      H       8.0594912280     5.6538030930     1.7319350684
   86      H       7.1116569943     3.7018953700     2.3192114143
   87      H       6.4276849384     2.9744307638    -2.0154002723
   88      H       7.1256238854     1.3121741277     2.2395163076
   89      H       2.8370465488    -5.6918357835    -0.7240637219
   90      H       3.2400644784    -6.3574639831     1.9138994408
   91      H       3.9514794853    -8.1807147972     5.3425598435
   92      H       5.0806910832    -6.7868025235     7.3749531962
   93      H       8.7657889329     7.2935220807     0.1475026168
   94      C       7.3517349123     7.8545115396    -1.3250139548
   95      H       9.2369323970     6.7411184739    -1.4143242274
   96      H       6.4717162494     7.8091234882    -0.6721800726
   97      H       6.9258950934     7.4025892322    -2.2291763720
   98      C       7.9597760101     9.2932012283    -1.5075077985
   99      H       8.2111140069     9.7180946892    -0.5277176381
  100      C       6.8071599586    10.1547381212    -2.0831200116
  101      H       8.7686687252     9.1562483632    -2.2354209034
  102      H       5.8748910109    10.2011414461    -1.5064586373
  103      H       6.5475461163     9.7837027605    -3.0820886868
  104      C       7.3542284837    11.5539378004    -2.2010237282
  105      H       7.5748082803    12.0736287923    -1.2601226567
  106      C       6.5976680762    12.4734167665    -3.1602446520
  107      H       8.3927877041    11.5230002469    -2.5517909064
  108      H       6.1887734324    11.8896801843    -3.9946155365
  109      H       7.2030004798    13.3175365228    -3.5146491076
  110      H       5.7737799164    12.9617201029    -2.6258205209
 ----------------------------------------------------------------

    9   -5663.5237796120      5.66E-06 Convergence criterion met
 Total energy in the final basis set = -5663.5237796120

                    Orbital Energies (a.u.)
 --------------------------------------------------------------

 Alpha MOs
 -- Occupied --
-88.997 -88.987 -88.924 -88.923 -88.922 -88.920 -88.915 -88.908
-14.389 -14.388 -14.382 -14.374 -14.346 -14.342 -14.342 -14.338
-14.332 -14.326 -10.271 -10.267 -10.265 -10.264 -10.260 -10.257
-10.257 -10.256 -10.240 -10.238 -10.238 -10.237 -10.237 -10.235
-10.234 -10.234 -10.233 -10.231 -10.230 -10.230 -10.230 -10.230
-10.229 -10.229 -10.229 -10.228 -10.226 -10.225 -10.221 -10.221
-10.218 -10.213 -10.208 -10.202 -10.199 -10.197 -10.197 -10.197
-10.192 -10.186 -10.181 -10.179 -10.176 -10.176 -10.175 -10.174
-10.172 -10.171 -10.170 -10.168  -8.052  -8.043  -7.984  -7.983
 -7.982  -7.979  -7.976  -7.966  -6.017  -6.011  -6.010  -6.008
 -6.002  -6.001  -5.948  -5.947  -5.946  -5.945  -5.944  -5.943
 -5.943  -5.941  -5.940  -5.940  -5.939  -5.938  -5.937  -5.936
 -5.932  -5.931  -5.927  -5.923  -1.040  -1.036  -0.984  -0.979
 -0.969  -0.959  -0.939  -0.925  -0.922  -0.906  -0.899  -0.896
 -0.851  -0.839  -0.831  -0.828  -0.815  -0.812  -0.808  -0.804
 -0.800  -0.797  -0.793  -0.791  -0.785  -0.783  -0.772  -0.769
 -0.752  -0.748  -0.746  -0.736  -0.725  -0.720  -0.713  -0.707
 -0.698  -0.689  -0.680  -0.671  -0.656  -0.651  -0.645  -0.643
 -0.638  -0.629  -0.625  -0.622  -0.608  -0.605  -0.598  -0.597
 -0.592  -0.589  -0.584  -0.582  -0.581  -0.577  -0.572  -0.571
 -0.554  -0.545  -0.544  -0.538  -0.530  -0.523  -0.515  -0.511
 -0.510  -0.505  -0.502  -0.497  -0.486  -0.485  -0.480  -0.478
 -0.477  -0.475  -0.472  -0.468  -0.464  -0.462  -0.449  -0.448
 -0.442  -0.440  -0.439  -0.438  -0.435  -0.432  -0.431  -0.429
 -0.427  -0.425  -0.422  -0.422  -0.420  -0.419  -0.417  -0.415
 -0.413  -0.409  -0.407  -0.405  -0.403  -0.400  -0.398  -0.397
 -0.395  -0.392  -0.392  -0.389  -0.387  -0.386  -0.386  -0.385
 -0.378  -0.373  -0.373  -0.368  -0.367  -0.366  -0.361  -0.356
 -0.355  -0.353  -0.351  -0.348  -0.347  -0.345  -0.342  -0.341
 -0.340  -0.336  -0.335  -0.330  -0.328  -0.327  -0.325  -0.321
 -0.320  -0.314  -0.310  -0.306  -0.302  -0.302  -0.300  -0.298
 -0.297  -0.294  -0.291  -0.285  -0.285  -0.283  -0.281  -0.280
 -0.279  -0.269  -0.268  -0.262  -0.257  -0.252  -0.251  -0.246
 -0.244  -0.239  -0.237  -0.233  -0.193  -0.192

          Ground-State Mulliken Net Atomic Charges

     Atom                 Charge (a.u.)
  ----------------------------------------
      1 C                     0.245757
      2 C                    -0.113510
      3 N                    -0.476294
      4 C                    -0.054483
      5 C                     0.076777
      6 C                     0.019602
      7 C                     0.028960
      8 C                     0.049163
      9 C                     0.211614
     10 N                    -0.508868
     11 N                    -0.547301
     12 C                     0.177041
     13 C                     0.359264
     14 S                     0.607731
     15 N                    -0.547996
     16 C                    -0.230789
     17 S                     0.349747
     18 C                    -0.108891
     19 C                    -0.230004
     20 S                     0.261036
     21 C                     0.124746
     22 C                     0.069797
     23 C                    -0.303486
     24 C                    -0.074892
     25 N                    -0.424934
     26 S                     0.234108
     27 C                     0.110078
     28 C                    -0.305866
     29 C                    -0.225283
     30 H                     0.091588
     31 H                     0.119177
     32 H                     0.106749
     33 H                     0.117621
     34 H                     0.153428
     35 H                     0.114823
     36 H                     0.120887
     37 H                     0.141371
     38 H                     0.103632
     39 C                    -0.177125
     40 H                     0.120053
     41 H                     0.090705
     42 H                     0.106566
     43 C                    -0.178273
     44 H                     0.087692
     45 C                    -0.159555
     46 H                     0.090631
     47 H                     0.086913
     48 H                     0.093493
     49 C                    -0.170863
     50 H                     0.090966
     51 C                    -0.321913
     52 H                     0.092629
     53 H                     0.100644
     54 H                     0.097031
     55 H                     0.099915
     56 C                     0.288223
     57 C                    -0.131503
     58 N                    -0.483461
     59 C                    -0.075887
     60 C                     0.070312
     61 C                     0.015676
     62 C                     0.080540
     63 C                     0.041430
     64 C                     0.208960
     65 N                    -0.497832
     66 N                    -0.549664
     67 C                     0.201620
     68 C                     0.294885
     69 S                     0.634645
     70 N                    -0.570763
     71 C                    -0.225353
     72 S                     0.307938
     73 C                    -0.113002
     74 C                    -0.217633
     75 S                     0.283126
     76 C                     0.159461
     77 C                     0.070300
     78 C                    -0.317666
     79 C                    -0.060636
     80 N                    -0.450563
     81 S                     0.254789
     82 C                     0.131450
     83 C                    -0.313238
     84 C                    -0.217324
     85 H                     0.084549
     86 H                     0.108566
     87 H                     0.122324
     88 H                     0.105000
     89 H                     0.134250
     90 H                     0.134068
     91 H                     0.115745
     92 H                     0.133557
     93 H                     0.085316
     94 C                    -0.185523
     95 H                     0.111832
     96 H                     0.089065
     97 H                     0.116793
     98 C                    -0.176247
     99 H                     0.100461
    100 C                    -0.164265
    101 H                     0.107065
    102 H                     0.097822
    103 H                     0.096652
    104 C                    -0.181150
    105 H                     0.087790
    106 C                    -0.322167
    107 H                     0.088707
    108 H                     0.100930
    109 H                     0.098699
    110 H                     0.099717
  ----------------------------------------
  Sum of atomic charges =     0.000000

                    Cartesian Multipole Moments
 -----------------------------------------------------------------
    Charge (ESU x 10^10)
                 0.0000
    Dipole Moment (Debye)
         X       0.9389      Y       0.3056      Z       0.4024
       Tot       1.0662
    Quadrupole Moments (Debye-Ang)
        XX    -420.2256     XY     -10.7935     YY    -417.2006
        XZ      21.6501     YZ       6.1761     ZZ    -427.6928

 Total job time:  79.02s(wall), 922.14s(cpu)
        *  Thank you very much for using Q-Chem.  Have a nice day.  *
