 Q-Chem 4.4, Q-Chem, Inc., Pleasanton, CA (2016)
 Q-Chem 4.4.2 for Intel X86 Linux

User input:
--------------------------------------------------------------
$comment
SP
$end

$rem
MEM_STATIC 5000
MEM_TOTAL 20000
JOBTYPE SP
EXCHANGE B3LYP
BASIS 6-31g(d,p)
$end

$molecule
0 1
C          27.222000    -16.000000     -1.494000
C          25.888000    -16.279000     -1.855000
N          27.798000    -14.871000     -1.854000
C          25.170000    -15.307000     -2.548000
C          27.078000    -14.012000     -2.678000
C          25.790000    -14.168000     -3.044000
C          25.054000    -13.122000     -3.685000
C          24.562000    -12.067000     -2.861000
C          24.677000    -13.058000     -5.050000
N          23.896000    -11.010000     -3.409000
N          25.070000    -13.938000     -5.958000
C          24.010000    -11.941000     -5.559000
C          23.548000    -10.927000     -4.684000
S          24.368000    -13.445000     -7.357000
N          23.724000    -12.004000     -6.904000
C          22.623000     -9.853000     -5.047000
S          22.274000     -9.361000     -6.706000
C          22.082000     -8.932000     -4.201000
C          21.471000     -7.943000     -6.165000
S          22.354000     -8.784000     -2.426000
C          21.402000     -7.896000     -4.784000
C          20.715000     -7.050000     -7.034000
C          21.366000     -7.279000     -2.511000
C          21.038000     -6.902000     -3.800000
N          19.664000     -6.485000     -6.533000
S          21.010000     -6.891000     -8.740000
C          19.131000     -5.565000     -7.499000
C          19.661000     -5.682000     -8.766000
C          28.010000    -17.056000     -0.704000
H          25.385000    -17.175000     -1.504000
H          24.118000    -15.505000     -2.733000
H          27.572000    -13.087000     -2.972000
H          24.739000    -12.047000     -1.787000
H          21.163000     -6.703000     -1.617000
H          20.498000     -5.987000     -4.014000
H          18.422000     -4.817000     -7.170000
H          19.425000     -5.166000     -9.687000
H          27.396000    -17.949000     -0.537000
C          28.558000    -16.617000      0.692000
H          28.874000    -17.274000     -1.344000
H          29.438000    -16.010000      0.451000
H          28.883000    -17.486000      1.277000
C          27.600000    -15.795000      1.629000
H          28.358000    -15.503000      2.367000
C          26.419000    -16.609000      2.279000
H          27.211000    -14.861000      1.205000
H          26.806000    -17.485000      2.815000
H          25.749000    -16.934000      1.474000
C          25.632000    -15.745000      3.259000
H          26.174000    -15.591000      4.200000
C          24.223000    -16.403000      3.662000
H          25.372000    -14.725000      2.951000
H          24.397000    -17.461000      3.894000
H          23.498000    -16.498000      2.844000
H          23.780000    -15.882000      4.520000
C           8.660000    -18.819000     -1.402000
C           9.906000    -18.711000     -0.692000
N           8.535000    -18.523000     -2.678000
C          11.028000    -18.185000     -1.359000
C           9.604000    -17.976000     -3.286000
C          10.885000    -17.745000     -2.713000
C          11.997000    -17.181000     -3.598000
C          13.315000    -17.533000     -3.328000
C          11.831000    -16.374000     -4.728000
N          14.428000    -17.187000     -4.031000
N          10.680000    -15.788000     -5.061000
C          12.981000    -15.938000     -5.470000
C          14.234000    -16.447000     -5.122000
S          11.133000    -14.723000     -6.259000
N          12.705000    -15.057000     -6.416000
C          15.493000    -15.982000     -5.763000
S          15.676000    -14.389000     -6.440000
C          16.718000    -16.605000     -5.602000
C          17.393000    -14.643000     -6.627000
S          17.240000    -18.104000     -4.790000
C          17.769000    -15.844000     -6.128000
C          18.355000    -13.733000     -7.187000
C          18.863000    -17.718000     -5.423000
C          19.012000    -16.487000     -5.971000
N          17.976000    -12.828000     -8.071000
S          20.028000    -13.581000     -6.717000
C          19.009000    -12.090000     -8.657000
C          20.225000    -12.434000     -8.087000
C           7.418000    -19.350000     -0.662000
H          10.000000    -19.052000      0.335000
H          11.958000    -17.990000     -0.833000
H           9.382000    -17.714000     -4.319000
H          13.542000    -18.341000     -2.634000
H          19.613000    -18.486000     -5.288000
H          19.872000    -16.122000     -6.520000
H          18.754000    -11.299000     -9.351000
H          21.148000    -11.941000     -8.363000
H           7.129000    -18.506000     -0.023000
C           7.587000    -20.649000      0.048000
H           6.577000    -19.544000     -1.338000
H           8.161000    -20.297000      0.914000
H           8.167000    -21.423000     -0.470000
C           6.346000    -21.360000      0.564000
H           5.847000    -21.789000     -0.313000
C           5.340000    -20.534000      1.357000
H           6.665000    -22.218000      1.168000
H           4.506000    -21.192000      1.629000
H           4.839000    -19.747000      0.781000
C           6.019000    -19.945000      2.636000
H           6.451000    -20.696000      3.310000
C           5.020000    -19.156000      3.560000
H           6.799000    -19.204000      2.420000
H           4.252000    -19.856000      3.910000
H           4.454000    -18.346000      3.083000
H           5.474000    -18.704000      4.451000
$end

--------------------------------------------------------------

             Standard Nuclear Orientation (Angstroms)
    I     Atom           X                Y                Z
 ----------------------------------------------------------------
    1      C       6.7415221033     6.1984280140     1.1216120683
    2      C       5.4788940964     5.6036424695     1.3209075080
    3      N       7.7739904069     5.4788778844     0.7313892947
    4      C       5.3303973198     4.2482504924     1.0355685942
    5      C       7.5969270731     4.1039268174     0.6155655538
    6      C       6.4266412989     3.4474133636     0.7446286841
    7      C       6.2844325892     2.0743230569     0.3690056115
    8      C       6.1497937223     1.7858409698    -1.0212157597
    9      C       6.1720390308     0.9601428123     1.2381546612
   10      N       6.0614380259     0.4964965246    -1.4581289918
   11      N       6.3012084880     1.0441409289     2.5532868096
   12      C       6.1014981823    -0.3403692042     0.7328315135
   13      C       5.9696562146    -0.5570134915    -0.6610651643
   14      S       6.0758932998    -0.4868707780     3.0994463277
   15      N       6.0163723506    -1.3264505505     1.6894856679
   16      C       5.6275716467    -1.8328501720    -1.2904211152
   17      S       5.7582704658    -3.4013704496    -0.4911664890
   18      C       5.3908957452    -2.0424100868    -2.6158294145
   19      C       5.5331213649    -4.2292582929    -1.9784874366
   20      S       5.4346744151    -0.8226749897    -3.9412888522
   21      C       5.2865213304    -3.3479650437    -3.0161008675
   22      C       5.3441156460    -5.6699799340    -2.0913767228
   23      C       5.1705797441    -2.2020719582    -5.0708516031
   24      C       5.2187643341    -3.4397787822    -4.4568531803
   25      N       4.5535717712    -6.0926464120    -3.0247686183
   26      S       5.9262763546    -6.8112107600    -0.9160371501
   27      C       4.5908231579    -7.5285650440    -3.0446436405
   28      C       5.2074867781    -8.1082931555    -1.9567469100
   29      C       6.9045453856     7.6992629855     1.4063888192
   30      H       4.6085408879     6.2010387590     1.5751297842
   31      H       4.3289650039     3.8332017391     1.1062852764
   32      H       8.4625922277     3.5236932627     0.2992589585
   33      H       6.1591158625     2.5719166505    -1.7743446477
   34      H       5.0907275437    -2.0323523533    -6.1371723249
   35      H       5.1368088580    -4.3648255880    -5.0155952558
   36      H       4.2084351628    -8.0475495525    -3.9134707241
   37      H       5.3410009437    -9.1464103188    -1.6834710003
   38      H       5.9625174476     8.1263719104     1.7703878991
   39      C       7.3715602888     8.5892285531     0.2098524141
   40      H       7.6885642028     7.7388234196     2.1727891496
   41      H       8.4475748128     8.3937218386     0.1398533526
   42      H       7.2238404964     9.6532964975     0.4310972391
   43      C       6.7053377141     8.3394456051    -1.1919938542
   44      H       7.3986486820     8.9563006282    -1.7778963906
   45      C       5.2133880564     8.8231357225    -1.3333695568
   46      H       6.7981557872     7.3192319269    -1.5844245565
   47      H       5.1259065025     9.8825891823    -1.0607042965
   48      H       4.5957961428     8.2157809588    -0.6608738920
   49      C       4.7120422376     8.6435007564    -2.7625821544
   50      H       5.1245163743     9.3991725966    -3.4421306490
   51      C       3.1146619654     8.7732786906    -2.8729812193
   52      H       4.9390699402     7.6992107370    -3.2721297787
   53      H       2.8058478995     9.6558548175    -2.2992589407
   54      H       2.5432092730     7.9927407342    -2.3553169274
   55      H       2.8014235338     8.8586253492    -3.9210516525
   56      C     -11.1479389114     0.7347185911    -0.4964524994
   57      C     -10.0857848071     1.6381010327    -0.8486013639
   58      N     -10.9517733698    -0.3642965824     0.2000399476
   59      C      -8.7619283288     1.2985494073    -0.5131051364
   60      C      -9.6758107467    -0.6976090066     0.4692168642
   61      C      -8.5117671166     0.0501224171     0.1397458558
   62      C      -7.1492893309    -0.4649359421     0.6047557158
   63      C      -6.1449579051     0.4535625192     0.8904250415
   64      C      -6.8032294312    -1.7981671522     0.8465036965
   65      N      -4.8973003793     0.1977981774     1.3706638361
   66      N      -7.5523727999    -2.8392510615     0.4804237777
   67      C      -5.4797833264    -2.1217807127     1.3013934317
   68      C      -4.6095406648    -1.0783355498     1.6240292975
   69      S      -6.5332991399    -4.1361771374     0.7130385432
   70      N      -5.2297971503    -3.4191635008     1.3408625695
   71      C      -3.1909379491    -1.3086596094     2.0070490915
   72      S      -2.2766753704    -2.6855482214     1.4613672361
   73      C      -2.3648429486    -0.3323615850     2.5353333120
   74      C      -0.8054690922    -1.9817289890     2.0840746916
   75      S      -2.6253945447     1.3541763707     3.0516002873
   76      C      -1.0299290293    -0.7499265067     2.5989129005
   77      C       0.5150138456    -2.5497719140     2.0558603951
   78      C      -0.9121792905     1.3210204422     3.5492027161
   79      C      -0.1951794582     0.2431292818     3.1468000736
   80      N       0.6728315915    -3.8603416373     2.0155793905
   81      S       2.0152648277    -1.6692510259     1.9260029497
   82      C       1.9909923491    -4.3114151593     2.1343813049
   83      C       2.8624462535    -3.2342064032     2.1800035380
   84      C     -12.5927292698     1.0798917350    -0.9033447713
   85      H     -10.2915260989     2.5838637083    -1.3416018531
   86      H      -7.9219253286     1.8991315814    -0.8497013511
   87      H      -9.6167399477    -1.6485734614     0.9957092634
   88      H      -6.3721823642     1.5153387189     0.9742662427
   89      H      -0.5694040044     2.1834907718     4.1052593983
   90      H       0.8095414169    -0.0190620175     3.4566672804
   91      H       2.1860538298    -5.3736128457     2.0567340657
   92      H       3.9358841087    -3.3658395045     2.2194737522
   93      H     -12.6032061909     0.8763964188    -1.9816109214
   94      C     -13.0747851562     2.4346356623    -0.5130205294
   95      H     -13.3300124873     0.4117462482    -0.4430317630
   96      H     -12.5416832026     3.0290060651    -1.2652586110
   97      H     -12.7913797224     2.7908873087     0.4852610564
   98      C     -14.5590482756     2.7398882362    -0.6380879458
   99      H     -15.0543424468     2.2152566806     0.1875126930
  100      C     -15.2456646158     2.3710481526    -1.9479261014
  101      H     -14.7104904128     3.8076732693    -0.4389864583
  102      H     -16.3055936029     2.6372958817    -1.8575563662
  103      H     -15.2913032516     1.2950079170    -2.1533537684
  104      C     -14.5821924696     3.1398092654    -3.1364605194
  105      H     -14.5984985381     4.2329797534    -3.0384125901
  106      C     -15.2969001029     2.8856172038    -4.5144581227
  107      H     -13.5453353121     2.8388788341    -3.3326877100
  108      H     -16.3259802848     3.2567652541    -4.4398450952
  109      H     -15.4063272458     1.8370252788    -4.8185398145
  110      H     -14.8348414542     3.3878330410    -5.3738660922
 ----------------------------------------------------------------

    9   -5663.5256418991      8.21E-06 Convergence criterion met
 Total energy in the final basis set = -5663.5256418991

                    Orbital Energies (a.u.)
 --------------------------------------------------------------

 Alpha MOs
 -- Occupied --
-88.992 -88.987 -88.928 -88.927 -88.924 -88.922 -88.911 -88.908
-14.398 -14.392 -14.388 -14.385 -14.351 -14.349 -14.347 -14.331
-14.330 -14.326 -10.271 -10.266 -10.263 -10.260 -10.259 -10.259
-10.257 -10.256 -10.248 -10.240 -10.240 -10.239 -10.239 -10.236
-10.233 -10.232 -10.231 -10.230 -10.228 -10.228 -10.227 -10.227
-10.226 -10.225 -10.224 -10.224 -10.222 -10.222 -10.222 -10.217
-10.209 -10.208 -10.204 -10.204 -10.200 -10.199 -10.198 -10.197
-10.187 -10.185 -10.183 -10.183 -10.182 -10.182 -10.182 -10.179
-10.179 -10.177 -10.174 -10.172  -8.048  -8.043  -7.988  -7.988
 -7.985  -7.981  -7.970  -7.966  -6.013  -6.008  -6.007  -6.006
 -6.002  -6.000  -5.952  -5.952  -5.949  -5.949  -5.948  -5.946
 -5.945  -5.945  -5.945  -5.942  -5.941  -5.938  -5.935  -5.931
 -5.930  -5.927  -5.926  -5.922  -1.045  -1.044  -0.969  -0.962
 -0.962  -0.955  -0.942  -0.941  -0.920  -0.918  -0.912  -0.912
 -0.846  -0.845  -0.841  -0.831  -0.814  -0.810  -0.807  -0.802
 -0.798  -0.797  -0.796  -0.787  -0.780  -0.779  -0.768  -0.768
 -0.750  -0.746  -0.741  -0.738  -0.730  -0.725  -0.712  -0.708
 -0.698  -0.695  -0.676  -0.676  -0.658  -0.658  -0.650  -0.649
 -0.641  -0.636  -0.633  -0.624  -0.615  -0.612  -0.600  -0.598
 -0.594  -0.593  -0.591  -0.583  -0.579  -0.576  -0.560  -0.554
 -0.553  -0.546  -0.545  -0.539  -0.526  -0.522  -0.514  -0.512
 -0.509  -0.506  -0.502  -0.497  -0.495  -0.486  -0.480  -0.477
 -0.476  -0.475  -0.472  -0.465  -0.463  -0.460  -0.455  -0.451
 -0.448  -0.447  -0.441  -0.437  -0.436  -0.433  -0.432  -0.430
 -0.429  -0.425  -0.425  -0.423  -0.421  -0.416  -0.415  -0.415
 -0.414  -0.409  -0.407  -0.403  -0.399  -0.398  -0.398  -0.396
 -0.395  -0.393  -0.391  -0.391  -0.388  -0.387  -0.386  -0.386
 -0.379  -0.378  -0.377  -0.374  -0.366  -0.364  -0.360  -0.360
 -0.356  -0.356  -0.353  -0.350  -0.349  -0.348  -0.345  -0.340
 -0.339  -0.339  -0.335  -0.334  -0.331  -0.331  -0.324  -0.324
 -0.322  -0.318  -0.312  -0.308  -0.304  -0.302  -0.299  -0.298
 -0.298  -0.293  -0.291  -0.290  -0.285  -0.284  -0.280  -0.279
 -0.270  -0.268  -0.263  -0.260  -0.256  -0.254  -0.253  -0.251
 -0.250  -0.243  -0.242  -0.233  -0.202  -0.196

          Ground-State Mulliken Net Atomic Charges

     Atom                 Charge (a.u.)
  ----------------------------------------
      1 C                     0.303871
      2 C                    -0.121552
      3 N                    -0.496289
      4 C                    -0.060420
      5 C                     0.053990
      6 C                     0.068678
      7 C                    -0.056047
      8 C                     0.085871
      9 C                     0.259669
     10 N                    -0.542133
     11 N                    -0.534870
     12 C                     0.173049
     13 C                     0.349308
     14 S                     0.603486
     15 N                    -0.564375
     16 C                    -0.222636
     17 S                     0.329009
     18 C                    -0.117804
     19 C                    -0.249046
     20 S                     0.277137
     21 C                     0.189278
     22 C                     0.080300
     23 C                    -0.302382
     24 C                    -0.062568
     25 N                    -0.424016
     26 S                     0.242420
     27 C                     0.106924
     28 C                    -0.298105
     29 C                    -0.232138
     30 H                     0.090201
     31 H                     0.096843
     32 H                     0.100678
     33 H                     0.128744
     34 H                     0.125095
     35 H                     0.115910
     36 H                     0.121069
     37 H                     0.139334
     38 H                     0.093653
     39 C                    -0.184784
     40 H                     0.120117
     41 H                     0.110150
     42 H                     0.092992
     43 C                    -0.183838
     44 H                     0.093288
     45 C                    -0.167696
     46 H                     0.103270
     47 H                     0.093505
     48 H                     0.092705
     49 C                    -0.176202
     50 H                     0.097172
     51 C                    -0.331333
     52 H                     0.096434
     53 H                     0.097978
     54 H                     0.100900
     55 H                     0.100992
     56 C                     0.267109
     57 C                    -0.117377
     58 N                    -0.472791
     59 C                    -0.090825
     60 C                     0.066851
     61 C                     0.050760
     62 C                     0.079378
     63 C                     0.023998
     64 C                     0.204763
     65 N                    -0.501106
     66 N                    -0.549375
     67 C                     0.219868
     68 C                     0.288497
     69 S                     0.597281
     70 N                    -0.546588
     71 C                    -0.238994
     72 S                     0.358950
     73 C                    -0.098281
     74 C                    -0.198240
     75 S                     0.269002
     76 C                     0.142096
     77 C                     0.037283
     78 C                    -0.312560
     79 C                    -0.065626
     80 N                    -0.434791
     81 S                     0.249005
     82 C                     0.121604
     83 C                    -0.312757
     84 C                    -0.229424
     85 H                     0.095389
     86 H                     0.103429
     87 H                     0.116056
     88 H                     0.111144
     89 H                     0.125192
     90 H                     0.118054
     91 H                     0.125676
     92 H                     0.141324
     93 H                     0.115821
     94 C                    -0.170213
     95 H                     0.111683
     96 H                     0.089082
     97 H                     0.099588
     98 C                    -0.186727
     99 H                     0.088779
    100 C                    -0.171022
    101 H                     0.094443
    102 H                     0.092546
    103 H                     0.099126
    104 C                    -0.174206
    105 H                     0.098024
    106 C                    -0.332164
    107 H                     0.097689
    108 H                     0.099828
    109 H                     0.100536
    110 H                     0.097428
  ----------------------------------------
  Sum of atomic charges =     0.000000

                    Cartesian Multipole Moments
 -----------------------------------------------------------------
    Charge (ESU x 10^10)
                 0.0000
    Dipole Moment (Debye)
         X       0.6407      Y       0.1748      Z      -0.7365
       Tot       0.9917
    Quadrupole Moments (Debye-Ang)
        XX    -457.0621     XY     -38.7717     YY    -400.8369
        XZ      11.8036     YZ       8.5703     ZZ    -437.7962

 Total job time:  81.73s(wall), 959.57s(cpu)
        *  Thank you very much for using Q-Chem.  Have a nice day.  *
