 Q-Chem 4.4, Q-Chem, Inc., Pleasanton, CA (2016)
 Q-Chem 4.4.2 for Intel X86 Linux

User input:
--------------------------------------------------------------
$comment
SP
$end

$rem
MEM_STATIC 5000
MEM_TOTAL 20000
JOBTYPE SP
EXCHANGE B3LYP
BASIS 6-31g(d,p)
$end

$molecule
0 1
C          10.731000    -16.110000     -9.583000
C          11.285000    -17.075000     -8.832000
N           9.403000    -15.812000     -9.464000
C          10.567000    -17.860000     -7.862000
C           8.674000    -16.475000     -8.544000
C           9.188000    -17.516000     -7.737000
C           8.357000    -18.457000     -6.922000
C           8.674000    -19.784000     -6.629000
C           7.155000    -18.013000     -6.240000
N           8.001000    -20.588000     -5.728000
N           6.661000    -16.810000     -6.325000
C           6.381000    -18.842000     -5.432000
C           6.850000    -20.158000     -5.181000
S           5.170000    -16.840000     -5.702000
N           5.221000    -18.317000     -4.938000
C           6.243000    -21.158000     -4.344000
S           7.265000    -22.441000     -3.565000
C           4.901000    -21.474000     -4.194000
C           5.837000    -23.204000     -2.842000
S           3.468000    -20.681000     -4.766000
C           4.703000    -22.610000     -3.361000
C           5.880000    -24.118000     -1.803000
C           2.592000    -21.835000     -3.731000
C           3.346000    -22.703000     -2.956000
N           4.909000    -25.084000     -1.731000
S           7.381000    -24.515000     -0.971000
C           5.273000    -25.989000     -0.712000
C           6.539000    -25.793000     -0.217000
C          11.400000    -15.347000    -10.685000
H          12.326000    -17.299000     -9.049000
H          11.154000    -18.601000     -7.327000
H           7.627000    -16.175000     -8.566000
H           9.603000    -20.162000     -7.052000
H           1.513000    -21.826000     -3.806000
H           3.001000    -23.372000     -2.176000
H           4.587000    -26.781000     -0.442000
H           7.079000    -26.436000      0.465000
H          11.675000    -16.048000    -11.482000
C          12.674000    -14.499000    -10.337000
H          10.704000    -14.700000    -11.232000
H          12.559000    -13.831000     -9.474000
H          12.786000    -13.881000    -11.236000
C          14.044000    -15.228000    -10.077000
H          14.020000    -15.759000     -9.118000
C          15.301000    -14.327000    -10.192000
H          14.211000    -15.994000    -10.845000
H          16.212000    -14.879000     -9.929000
H          15.171000    -13.523000     -9.458000
C          15.559000    -13.590000    -11.559000
H          15.888000    -14.339000    -12.290000
C          16.626000    -12.541000    -11.437000
H          14.589000    -13.167000    -11.847000
H          17.584000    -13.061000    -11.312000
H          16.585000    -11.962000    -10.506000
H          16.700000    -11.774000    -12.217000
C           8.660000    -18.819000     -1.402000
C           9.906000    -18.711000     -0.692000
N           8.535000    -18.523000     -2.678000
C          11.028000    -18.185000     -1.359000
C           9.604000    -17.976000     -3.286000
C          10.885000    -17.745000     -2.713000
C          11.997000    -17.181000     -3.598000
C          13.315000    -17.533000     -3.328000
C          11.831000    -16.374000     -4.728000
N          14.428000    -17.187000     -4.031000
N          10.680000    -15.788000     -5.061000
C          12.981000    -15.938000     -5.470000
C          14.234000    -16.447000     -5.122000
S          11.133000    -14.723000     -6.259000
N          12.705000    -15.057000     -6.416000
C          15.493000    -15.982000     -5.763000
S          15.676000    -14.389000     -6.440000
C          16.718000    -16.605000     -5.602000
C          17.393000    -14.643000     -6.627000
S          17.240000    -18.104000     -4.790000
C          17.769000    -15.844000     -6.128000
C          18.355000    -13.733000     -7.187000
C          18.863000    -17.718000     -5.423000
C          19.012000    -16.487000     -5.971000
N          17.976000    -12.828000     -8.071000
S          20.028000    -13.581000     -6.717000
C          19.009000    -12.090000     -8.657000
C          20.225000    -12.434000     -8.087000
C           7.418000    -19.350000     -0.662000
H          10.000000    -19.052000      0.335000
H          11.958000    -17.990000     -0.833000
H           9.382000    -17.714000     -4.319000
H          13.542000    -18.341000     -2.634000
H          19.613000    -18.486000     -5.288000
H          19.872000    -16.122000     -6.520000
H          18.754000    -11.299000     -9.351000
H          21.148000    -11.941000     -8.363000
H           7.129000    -18.506000     -0.023000
C           7.587000    -20.649000      0.048000
H           6.577000    -19.544000     -1.338000
H           8.161000    -20.297000      0.914000
H           8.167000    -21.423000     -0.470000
C           6.346000    -21.360000      0.564000
H           5.847000    -21.789000     -0.313000
C           5.340000    -20.534000      1.357000
H           6.665000    -22.218000      1.168000
H           4.506000    -21.192000      1.629000
H           4.839000    -19.747000      0.781000
C           6.019000    -19.945000      2.636000
H           6.451000    -20.696000      3.310000
C           5.020000    -19.156000      3.560000
H           6.799000    -19.204000      2.420000
H           4.252000    -19.856000      3.910000
H           4.454000    -18.346000      3.083000
H           5.474000    -18.704000      4.451000
$end

--------------------------------------------------------------

             Standard Nuclear Orientation (Angstroms)
    I     Atom           X                Y                Z
 ----------------------------------------------------------------
    1      C      -2.9362122650     4.0112893607     0.6598885337
    2      C      -2.5668414308     2.8675499357     1.2578578594
    3      N      -2.0253067337     4.7628210391    -0.0271342092
    4      C      -1.2291138061     2.3359548006     1.2346110434
    5      C      -0.7609149223     4.3067201788    -0.1305525473
    6      C      -0.3000050342     3.1238253026     0.4919004927
    7      C       1.1389225446     2.7392529636     0.6397468288
    8      C       1.6837592839     1.9983621807     1.6892708996
    9      C       2.1103633908     3.0171238163    -0.4024405207
   10      N       2.9685620474     1.4895051681     1.7279024874
   11      N       1.8476617889     3.6683932436    -1.5003048116
   12      C       3.4467185528     2.6327730065    -0.3275383428
   13      C       3.8530404024     1.8390959694     0.7769060040
   14      S       3.2534142535     4.0417920108    -2.2049631465
   15      N       4.2686781651     3.0523173645    -1.3343282550
   16      C       5.1598915486     1.2929396120     1.0276475343
   17      S       5.3438254569    -0.2228445812     2.0104906534
   18      C       6.4026349272     1.8759533294     0.8301534830
   19      C       7.1107061438    -0.1457164266     1.8829528703
   20      S       6.8626538368     3.3475895496     0.0350488117
   21      C       7.4644964498     1.0620129210     1.3134133701
   22      C       7.9614865849    -1.2040561255     2.1528708629
   23      C       8.5327413667     2.7654485058     0.2405638905
   24      C       8.7107590122     1.5112510106     0.8043576126
   25      N       9.2162427511    -0.9370998913     2.6381566885
   26      S       7.3568509828    -2.8184723215     2.5146859188
   27      C       9.8097061312    -2.1637626883     3.0028231097
   28      C       8.9485787118    -3.2330740760     2.9677556949
   29      C      -4.2794496741     4.6682572565     0.7506654406
   30      H      -3.3362330438     2.3768277987     1.8479208476
   31      H      -1.0856515014     1.3963697158     1.7604184564
   32      H      -0.1227396705     5.0052755262    -0.6704097271
   33      H       0.9929734152     1.6941572836     2.4735720307
   34      H       9.3198743884     3.4513705611    -0.0420657971
   35      H       9.6283544307     0.9397019069     0.8839583035
   36      H      10.8407006915    -2.1724316971     3.3310533108
   37      H       9.1386492613    -4.2351364178     3.3281960498
   38      H      -4.4622748377     4.9531366042     1.7935718202
   39      C      -5.5343075653     3.8704034224     0.2486246730
   40      H      -4.2975148444     5.6569819780     0.2770294257
   41      H      -5.4298810927     3.4333560500    -0.7525260181
   42      H      -6.2973100325     4.6566932825     0.2012486147
   43      C      -6.1058863357     2.6933103295     1.1225185796
   44      H      -5.4291580518     1.8310657432     1.0943920229
   45      C      -7.5634975847     2.2777798611     0.7942216461
   46      H      -6.1619042714     3.0021391110     2.1741628990
   47      H      -7.8729919187     1.4084196279     1.3877029366
   48      H      -7.5686547820     1.9833302344    -0.2618772226
   49      C      -8.6886764060     3.3721847453     0.9153520283
   50      H      -8.8615830049     3.5626156025     1.9818614734
   51      C      -9.9790710711     2.9196552974     0.2957774103
   52      H      -8.2796117716     4.2630910991     0.4236966676
   53      H     -10.3968177666     2.1380926772     0.9426441422
   54      H      -9.8585500954     2.3648252592    -0.6430097451
   55      H     -10.7393839006     3.6726526556     0.0568540336
   56      C       3.3441420159    -1.8099917175    -1.6262260118
   57      C       2.6302734661    -3.0564218372    -1.6975257338
   58      N       2.7695856617    -0.6737711608    -1.2941042834
   59      C       1.2385405840    -3.0585162485    -1.4889011948
   60      C       1.4317855907    -0.6857089701    -1.1465154667
   61      C       0.5734943505    -1.8155480470    -1.2437307289
   62      C      -0.9187372697    -1.6332298335    -0.9646790117
   63      C      -1.6360307291    -2.6942561313    -0.4227922262
   64      C      -1.6591812821    -0.4595595498    -1.1377273564
   65      N      -2.9451640672    -2.7079259286    -0.0503985639
   66      N      -1.2124578902     0.6116963754    -1.7949449412
   67      C      -3.0576594401    -0.4420482578    -0.8104473596
   68      C      -3.6146785004    -1.5649385092    -0.1947840996
   69      S      -2.5820326141     1.5434211063    -1.9704217243
   70      N      -3.6763152952     0.6709884009    -1.1649432401
   71      C      -5.0695485068    -1.6817851204     0.0913751811
   72      S      -6.2858952591    -0.8666459258    -0.8496432413
   73      C      -5.6243156224    -2.6716565281     0.8832483045
   74      C      -7.5431273395    -1.7799730687    -0.0541716667
   75      S      -4.9373348334    -3.9768804635     1.8848854015
   76      C      -7.0224373328    -2.6836155048     0.8090144457
   77      C      -8.9621750209    -1.6769290156    -0.2611248040
   78      C      -6.6266404726    -4.3305731047     2.3376126628
   79      C      -7.5825062251    -3.6857871483     1.6245644642
   80      N      -9.4890763505    -0.5463339061    -0.6950046115
   81      S     -10.1215699310    -2.9737069218    -0.1303444362
   82      C     -10.8864267139    -0.5070125709    -0.7265449739
   83      C     -11.4074947328    -1.7397293680    -0.3648967773
   84      C       4.8596481882    -1.7962267974    -1.9004094698
   85      H       3.1493790580    -3.9926248348    -1.8816434452
   86      H       0.6466338952    -3.9573574832    -1.6349556590
   87      H       1.0474700313     0.3097190610    -0.9310123678
   88      H      -1.1196233567    -3.5651901728    -0.0217606550
   89      H      -6.7571814157    -5.0609478916     3.1250520147
   90      H      -8.6454902146    -3.6675817550     1.8342299164
   91      H     -11.3729540885     0.3759283069    -1.1215747448
   92      H     -12.4713174436    -1.9380908851    -0.3742748593
   93      H       4.9167674724    -1.9148439642    -2.9898337926
   94      C       5.6734969354    -2.7679670892    -1.1171898186
   95      H       5.3219708604    -0.8323259939    -1.6574156682
   96      H       5.4128526560    -3.6852728407    -1.6593620403
   97      H       5.4088541657    -2.8945432224    -0.0599563123
   98      C       7.1872070283    -2.6256822412    -1.1343588759
   99      H       7.4248924742    -1.7624511205    -0.5015013397
  100      C       7.8626713218    -2.4526431189    -2.4897062300
  101      H       7.6218720980    -3.4925304457    -0.6221270265
  102      H       8.9399410106    -2.3437717283    -2.3160944851
  103      H       7.6138137066    -1.5196634877    -3.0090951930
  104      C       7.5715858492    -3.6924196970    -3.3963628817
  105      H       7.8949593695    -4.6525051322    -2.9737915580
  106      C       8.3138038818    -3.6342916943    -4.7820149042
  107      H       6.5166335398    -3.7928199413    -3.6812004071
  108      H       9.3937329602    -3.6346463450    -4.5920752826
  109      H       8.1433541826    -2.7347430990    -5.3867828139
  110      H       8.1045727439    -4.4765857228    -5.4536279628
 ----------------------------------------------------------------

   10   -5663.5000269862      3.57E-06 Convergence criterion met
 Total energy in the final basis set = -5663.5000269862

                    Orbital Energies (a.u.)
 --------------------------------------------------------------

 Alpha MOs
 -- Occupied --
-88.986 -88.981 -88.929 -88.925 -88.925 -88.916 -88.913 -88.910
-14.391 -14.386 -14.384 -14.375 -14.352 -14.345 -14.345 -14.336
-14.328 -14.327 -10.267 -10.263 -10.260 -10.257 -10.256 -10.255
-10.251 -10.250 -10.236 -10.236 -10.236 -10.236 -10.233 -10.233
-10.233 -10.232 -10.230 -10.230 -10.229 -10.228 -10.228 -10.227
-10.227 -10.225 -10.224 -10.223 -10.223 -10.222 -10.222 -10.222
-10.221 -10.218 -10.205 -10.204 -10.203 -10.199 -10.196 -10.196
-10.184 -10.183 -10.181 -10.178 -10.178 -10.173 -10.173 -10.173
-10.171 -10.170 -10.166 -10.162  -8.041  -8.037  -7.989  -7.986
 -7.984  -7.974  -7.972  -7.971  -6.006  -6.003  -6.001  -5.999
 -5.997  -5.995  -5.953  -5.950  -5.950  -5.948  -5.947  -5.946
 -5.945  -5.943  -5.941  -5.939  -5.937  -5.935  -5.935  -5.933
 -5.932  -5.931  -5.928  -5.927  -1.044  -1.040  -0.963  -0.959
 -0.953  -0.948  -0.943  -0.936  -0.920  -0.914  -0.907  -0.901
 -0.848  -0.840  -0.832  -0.828  -0.811  -0.808  -0.807  -0.802
 -0.799  -0.798  -0.794  -0.791  -0.780  -0.779  -0.768  -0.762
 -0.748  -0.746  -0.741  -0.741  -0.728  -0.715  -0.711  -0.708
 -0.698  -0.692  -0.677  -0.670  -0.656  -0.653  -0.649  -0.643
 -0.637  -0.635  -0.625  -0.624  -0.612  -0.609  -0.601  -0.596
 -0.593  -0.590  -0.586  -0.584  -0.578  -0.577  -0.551  -0.551
 -0.550  -0.546  -0.541  -0.540  -0.522  -0.518  -0.516  -0.511
 -0.507  -0.507  -0.499  -0.498  -0.487  -0.481  -0.478  -0.476
 -0.472  -0.471  -0.468  -0.465  -0.459  -0.455  -0.452  -0.450
 -0.448  -0.439  -0.437  -0.436  -0.431  -0.429  -0.427  -0.425
 -0.425  -0.422  -0.421  -0.418  -0.417  -0.415  -0.414  -0.411
 -0.408  -0.408  -0.408  -0.404  -0.400  -0.397  -0.394  -0.393
 -0.392  -0.391  -0.390  -0.389  -0.387  -0.385  -0.383  -0.380
 -0.380  -0.378  -0.376  -0.375  -0.365  -0.362  -0.360  -0.358
 -0.357  -0.352  -0.350  -0.347  -0.344  -0.342  -0.340  -0.339
 -0.337  -0.336  -0.335  -0.329  -0.323  -0.322  -0.319  -0.317
 -0.311  -0.309  -0.306  -0.303  -0.301  -0.300  -0.294  -0.294
 -0.293  -0.291  -0.290  -0.287  -0.286  -0.283  -0.282  -0.278
 -0.274  -0.270  -0.267  -0.265  -0.255  -0.253  -0.252  -0.251
 -0.244  -0.241  -0.234  -0.229  -0.199  -0.188

          Ground-State Mulliken Net Atomic Charges

     Atom                 Charge (a.u.)
  ----------------------------------------
      1 C                     0.285823
      2 C                    -0.117271
      3 N                    -0.485501
      4 C                    -0.105039
      5 C                     0.086887
      6 C                     0.040396
      7 C                     0.060992
      8 C                     0.045881
      9 C                     0.237544
     10 N                    -0.531545
     11 N                    -0.544318
     12 C                     0.241465
     13 C                     0.307534
     14 S                     0.587872
     15 N                    -0.563160
     16 C                    -0.219569
     17 S                     0.303367
     18 C                    -0.109386
     19 C                    -0.195723
     20 S                     0.288270
     21 C                     0.132262
     22 C                     0.015007
     23 C                    -0.307566
     24 C                    -0.047721
     25 N                    -0.428880
     26 S                     0.281572
     27 C                     0.113909
     28 C                    -0.305047
     29 C                    -0.245292
     30 H                     0.091494
     31 H                     0.118302
     32 H                     0.123354
     33 H                     0.101369
     34 H                     0.122197
     35 H                     0.127154
     36 H                     0.115855
     37 H                     0.131871
     38 H                     0.110421
     39 C                    -0.184543
     40 H                     0.123242
     41 H                     0.103994
     42 H                     0.098220
     43 C                    -0.191189
     44 H                     0.104897
     45 C                    -0.175959
     46 H                     0.078452
     47 H                     0.092977
     48 H                     0.108620
     49 C                    -0.180293
     50 H                     0.090107
     51 C                    -0.320967
     52 H                     0.091441
     53 H                     0.101279
     54 H                     0.111526
     55 H                     0.091930
     56 C                     0.275688
     57 C                    -0.116753
     58 N                    -0.486595
     59 C                    -0.090500
     60 C                     0.068498
     61 C                     0.051819
     62 C                     0.075845
     63 C                     0.022651
     64 C                     0.202784
     65 N                    -0.500939
     66 N                    -0.552120
     67 C                     0.218784
     68 C                     0.284107
     69 S                     0.617839
     70 N                    -0.557576
     71 C                    -0.241043
     72 S                     0.363482
     73 C                    -0.100357
     74 C                    -0.200440
     75 S                     0.269753
     76 C                     0.140397
     77 C                     0.040073
     78 C                    -0.311772
     79 C                    -0.065280
     80 N                    -0.438669
     81 S                     0.258420
     82 C                     0.126298
     83 C                    -0.312688
     84 C                    -0.234697
     85 H                     0.096681
     86 H                     0.103347
     87 H                     0.115817
     88 H                     0.111320
     89 H                     0.127291
     90 H                     0.119489
     91 H                     0.126832
     92 H                     0.127102
     93 H                     0.114156
     94 C                    -0.174716
     95 H                     0.120621
     96 H                     0.085093
     97 H                     0.106046
     98 C                    -0.190895
     99 H                     0.097351
    100 C                    -0.173122
    101 H                     0.097774
    102 H                     0.091450
    103 H                     0.099838
    104 C                    -0.173275
    105 H                     0.096274
    106 C                    -0.331876
    107 H                     0.096678
    108 H                     0.099034
    109 H                     0.100187
    110 H                     0.095979
  ----------------------------------------
  Sum of atomic charges =     0.000000

                    Cartesian Multipole Moments
 -----------------------------------------------------------------
    Charge (ESU x 10^10)
                 0.0000
    Dipole Moment (Debye)
         X      -0.8406      Y      -3.5077      Z       0.0620
       Tot       3.6076
    Quadrupole Moments (Debye-Ang)
        XX    -391.0731     XY      -2.8958     YY    -430.0733
        XZ      -8.6111     YZ     -11.2989     ZZ    -446.3308

 Total job time:  104.57s(wall), 1265.68s(cpu)
        *  Thank you very much for using Q-Chem.  Have a nice day.  *
