 Q-Chem 4.4, Q-Chem, Inc., Pleasanton, CA (2016)
 Q-Chem 4.4.2 for Intel X86 Linux

User input:
--------------------------------------------------------------
$comment
SP
$end

$rem
MEM_STATIC 5000
MEM_TOTAL 20000
JOBTYPE SP
EXCHANGE B3LYP
BASIS 6-31g(d,p)
$end

$molecule
0 1
C         -22.012000    -13.940000     -3.621000
C         -21.523000    -13.034000     -2.719000
N         -23.282000    -14.267000     -3.614000
C         -22.404000    -12.526000     -1.686000
C         -24.196000    -13.654000     -2.774000
C         -23.784000    -12.764000     -1.727000
C         -24.762000    -11.892000     -0.855000
C         -26.096000    -12.356000     -0.682000
C         -24.447000    -10.633000     -0.278000
N         -27.048000    -11.655000     -0.056000
N         -23.287000     -9.936000     -0.462000
C         -25.472000     -9.880000      0.341000
C         -26.788000    -10.412000      0.450000
S         -23.425000     -8.561000      0.353000
N         -24.999000     -8.703000      0.831000
C         -27.914000     -9.692000      1.057000
S         -27.980000     -7.958000      1.512000
C         -29.113000    -10.279000      1.396000
C         -29.529000     -8.112000      2.204000
S         -29.579000    -11.985000      1.480000
C         -30.061000     -9.393000      2.026000
C         -30.093000     -7.085000      3.090000
C         -31.032000    -11.525000      2.451000
C         -31.217000    -10.156000      2.592000
N         -30.974000     -7.458000      4.032000
S         -29.156000     -5.698000      3.375000
C         -30.959000     -6.458000      5.032000
C         -30.004000     -5.450000      4.823000
C         -21.109000    -14.471000     -4.730000
H         -20.471000    -12.771000     -2.781000
H         -21.977000    -11.899000     -0.908000
H         -25.237000    -13.905000     -2.974000
H         -26.393000    -13.320000     -1.092000
H         -31.724000    -12.320000      2.697000
H         -32.026000     -9.617000      3.071000
H         -31.628000     -6.482000      5.882000
H         -29.948000     -4.616000      5.509000
H         -20.059000    -14.273000     -4.481000
C         -21.483000    -13.746000     -6.088000
H         -21.217000    -15.550000     -4.893000
H         -21.188000    -12.690000     -6.072000
H         -22.574000    -13.718000     -6.198000
C         -20.766000    -14.429000     -7.286000
H         -19.685000    -14.575000     -7.173000
C         -21.178000    -13.802000     -8.659000
H         -21.256000    -15.411000     -7.264000
H         -20.982000    -12.723000     -8.686000
H         -22.271000    -13.842000     -8.741000
C         -20.421000    -14.500000     -9.868000
H         -20.392000    -13.774000    -10.690000
C         -21.040000    -15.802000    -10.360000
H         -19.358000    -14.688000     -9.677000
H         -21.981000    -15.540000    -10.860000
H         -21.294000    -16.404000     -9.478000
H         -20.409000    -16.309000    -11.100000
C         -30.857000     -4.307000      0.915000
C         -30.199000     -5.236000      0.103000
N         -30.216000     -3.195000      1.311000
C         -28.921000     -4.977000     -0.430000
C         -28.950000     -2.985000      0.925000
C         -28.229000     -3.867000      0.016000
C         -26.855000     -3.685000     -0.531000
C         -25.913000     -4.781000     -0.726000
C         -26.199000     -2.407000     -0.713000
N         -24.678000     -4.640000     -1.185000
N         -26.918000     -1.299000     -0.539000
C         -24.951000     -2.315000     -1.341000
C         -24.146000     -3.438000     -1.532000
S         -25.853000     -0.217000     -1.196000
N         -24.532000     -1.033000     -1.457000
C         -22.734000     -3.351000     -1.928000
S         -21.844000     -1.953000     -2.487000
C         -21.825000     -4.460000     -2.006000
C         -20.257000     -2.764000     -2.446000
S         -22.087000     -6.183000     -1.741000
C         -20.482000     -4.126000     -2.147000
C         -18.931000     -2.178000     -2.679000
C         -20.371000     -6.426000     -1.796000
C         -19.649000     -5.226000     -1.994000
N         -18.902000     -0.815000     -2.665000
S         -17.338000     -2.916000     -3.037000
C         -17.582000     -0.286000     -2.698000
C         -16.676000     -1.258000     -2.890000
C         -32.276000     -4.408000      1.556000
H         -30.778000     -6.066000     -0.291000
H         -28.458000     -5.734000     -1.055000
H         -28.425000     -2.113000      1.312000
H         -26.299000     -5.759000     -0.442000
H         -19.997000     -7.438000     -1.712000
H         -18.567000     -5.213000     -1.929000
H         -17.443000      0.783000     -2.604000
H         -15.651000     -1.178000     -3.226000
H         -32.124000     -4.328000      2.639000
C         -32.989000     -5.662000      1.159000
H         -32.812000     -3.488000      1.294000
H         -32.334000     -6.537000      1.067000
H         -33.342000     -5.510000      0.131000
C         -34.113000     -5.933000      2.186000
H         -33.805000     -5.947000      3.239000
C         -34.678000     -7.348000      1.866000
H         -34.948000     -5.227000      2.105000
H         -33.879000     -8.087000      1.731000
H         -35.172000     -7.356000      0.887000
C         -35.602000     -7.894000      2.973000
H         -36.349000     -7.166000      3.312000
C         -34.969000     -8.550000      4.198000
H         -36.190000     -8.707000      2.530000
H         -34.143000     -7.896000      4.504000
H         -34.544000     -9.517000      3.904000
H         -35.704000     -8.749000      4.988000
$end

--------------------------------------------------------------

             Standard Nuclear Orientation (Angstroms)
    I     Atom           X                Y                Z
 ----------------------------------------------------------------
    1      C      -5.4771642945    -5.9375612192    -0.7182145594
    2      C      -5.2890484457    -4.8557768862    -1.5354758911
    3      N      -4.4519122660    -6.5410202970    -0.1663328516
    4      C      -3.9367117501    -4.4559794759    -1.8711267402
    5      C      -3.1580820508    -6.0670359595    -0.3008959298
    6      C      -2.8316210843    -5.0031258509    -1.2061978233
    7      C      -1.4308938652    -4.2894672296    -1.2830524255
    8      C      -0.2842218972    -5.0228656028    -0.8682618471
    9      C      -1.2170202294    -2.9389299068    -1.6671643985
   10      N       0.9419301585    -4.4944705391    -0.7850104640
   11      N      -2.1904841182    -2.0204023606    -1.9390838789
   12      C       0.0741288331    -2.3774246934    -1.5313667775
   13      C       1.1626380360    -3.1792497183    -1.0852890437
   14      S      -1.4550288678    -0.6353585051    -2.2776885054
   15      N       0.0981634870    -1.0795689132    -1.9365219443
   16      C       2.5277708940    -2.6738137315    -0.8964193981
   17      S       3.0647385924    -0.9621525105    -0.8921118082
   18      C       3.6305594203    -3.4785451351    -0.7137836007
   19      C       4.7072051140    -1.3901108654    -0.7467282746
   20      S       3.8267168932    -5.2275644328    -0.9064017252
   21      C       4.8814125961    -2.7696579127    -0.5978299954
   22      C       5.7890304302    -0.4311657312    -1.0073030526
   23      C       5.6206671957    -5.0101736253    -0.9179580611
   24      C       6.0421251413    -3.7115462071    -0.6645670019
   25      N       6.9700776181    -0.8940583128    -1.4472030387
   26      S       5.3452682222     1.1538283713    -1.4242344589
   27      C       7.6210852216     0.1816389094    -2.0947287805
   28      C       6.8505107163     1.3523674599    -2.1806333380
   29      C      -6.8909876503    -6.3625432491    -0.3338387112
   30      H      -6.1688236811    -4.3693591976    -1.9467062006
   31      H      -3.8005293450    -3.6713120284    -2.6103786251
   32      H      -2.4229559495    -6.5665391854     0.3289994127
   33      H      -0.3844328439    -6.0662866315    -0.5735835089
   34      H       6.2194387589    -5.9112370748    -0.9489786184
   35      H       7.0484218543    -3.3229362030    -0.5606815358
   36      H       8.6247916795     0.0951907166    -2.4893641264
   37      H       7.2794568533     2.2439802254    -2.6168900146
   38      H      -7.6154802887    -5.9072463471    -1.0205119580
   39      C      -7.1854013492    -5.8860170580     1.1480210538
   40      H      -7.0369664222    -7.4489170561    -0.3647603807
   41      H      -7.2767490881    -4.7948473790     1.2065131226
   42      H      -6.3219906285    -6.1172861272     1.7837895218
   43      C      -8.5107888679    -6.5095536358     1.6679557242
   44      H      -9.3807893000    -6.3945191637     1.0102990369
   45      C      -8.7948676143    -6.1380990067     3.1610473906
   46      H      -8.2252635155    -7.5692519238     1.6885181045
   47      H      -8.8222716500    -5.0515281611     3.3093673702
   48      H      -7.9246710715    -6.4327718233     3.7601291114
   49      C     -10.1617382786    -6.7682501379     3.6675137162
   50      H     -10.5142975364    -6.1438881857     4.4978601031
   51      C     -10.0816471920    -8.2204251371     4.1205061991
   52      H     -10.9816924868    -6.6898700901     2.9441012028
   53      H      -9.5155312381    -8.2315961069     5.0604598874
   54      H      -9.4911637356    -8.7693982761     3.3756560259
   55      H     -11.0703989534    -8.6454306428     4.3315755585
   56      C       5.6831472479     1.8605850249     1.7798589849
   57      C       4.5747872804     1.0255127255     1.9517352112
   58      N       5.5076612748     3.1237607009     1.3581566196
   59      C       3.2580431689     1.5103224739     1.8268414448
   60      C       4.2710406938     3.5736574826     1.1047509680
   61      C       3.0655703486     2.7882963251     1.3373344998
   62      C       1.6499992134     3.2188100878     1.1611946087
   63      C       0.6023168666     2.3503370341     0.6370560248
   64      C       1.1827780899     4.5861507107     1.2551522727
   65      N      -0.6561292123     2.7188123441     0.4464611334
   66      N       2.0337152399     5.5145459322     1.6897662155
   67      C      -0.1819005191     4.8925691480     1.1910271171
   68      C      -1.1161253555     3.9673494829     0.7253796901
   69      S       0.9466593071     6.7353379173     1.9438810082
   70      N      -0.4148171172     6.2169856832     1.3466282079
   71      C      -2.4979648274     4.3301331963     0.3832734912
   72      S      -3.3422879018     5.8275280173     0.7056277931
   73      C      -3.4585155437     3.4537450124    -0.2262608167
   74      C      -4.7686306224     5.4055821104    -0.2769601649
   75      S      -3.3415103566     1.7532296267    -0.6758775524
   76      C      -4.6142583379     4.0665982720    -0.6992888029
   77      C      -5.9228459459     6.2490974055    -0.6119675288
   78      C      -4.8467781144     1.9006245513    -1.5239186560
   79      C      -5.3887967251     3.2057020226    -1.4649557896
   80      N      -5.7485580851     7.5771731977    -0.3577148364
   81      S      -7.5527551258     5.8577906680    -1.2450015740
   82      C      -6.8010847195     8.3848875719    -0.8706623715
   83      C      -7.7995305321     7.6286699715    -1.3541134031
   84      C       7.1970979054     1.5080906095     1.9152993545
   85      H       4.7387931125     0.0496949224     2.3992379509
   86      H       2.4355801714     0.8171013061     1.9719001572
   87      H       4.1546576859     4.5772014947     0.6983860934
   88      H       0.9380746185     1.3452525778     0.3856440765
   89      H      -5.2592555439     1.0138899273    -1.9872113029
   90      H      -6.2624325310     3.4699707126    -2.0497981086
   91      H      -6.7186699315     9.4614311542    -0.7986921134
   92      H      -8.8256671359     7.9032980307    -1.5579371004
   93      H       7.6472292994     1.7324015310     0.9408973129
   94      C       7.4126459653     0.0909863917     2.3440751347
   95      H       7.6396929268     2.2505743389     2.5899604240
   96      H       6.6911177030    -0.6177250320     1.9195293955
   97      H       7.1928105593     0.0515754821     3.4186058111
   98      C       8.8567397034    -0.3193037030     1.9728591412
   99      H       9.1468530647    -0.1538319748     0.9277168807
  100      C       8.9655748116    -1.8508397986     2.2305452043
  101      H       9.6153222812     0.1670271635     2.5975644805
  102      H       8.1196004895    -2.3997026329     1.7994720835
  103      H       8.8674341111    -2.0720412121     3.3001149017
  104      C      10.2448135398    -2.4738875398     1.6366590297
  105      H      11.1522753055    -1.9027302801     1.8673244338
  106      C      10.2616216851    -2.8387645391     0.1540153565
  107      H      10.3931322168    -3.4403648158     2.1335345120
  108      H       9.8192492660    -1.9866237526    -0.3768242830
  109      H       9.6148105094    -3.7096112959    -0.0053936431
  110      H      11.2648435091    -3.1158680091    -0.1933830296
 ----------------------------------------------------------------

   10   -5663.4976486631      3.94E-06 Convergence criterion met
 Total energy in the final basis set = -5663.4976486631

                    Orbital Energies (a.u.)
 --------------------------------------------------------------

 Alpha MOs
 -- Occupied --
-88.991 -88.985 -88.933 -88.931 -88.929 -88.927 -88.917 -88.908
-14.393 -14.387 -14.383 -14.380 -14.351 -14.351 -14.350 -14.345
-14.328 -14.324 -10.281 -10.267 -10.266 -10.265 -10.259 -10.256
-10.255 -10.255 -10.251 -10.250 -10.244 -10.243 -10.242 -10.241
-10.236 -10.236 -10.235 -10.234 -10.234 -10.233 -10.232 -10.232
-10.231 -10.231 -10.230 -10.228 -10.227 -10.222 -10.220 -10.219
-10.216 -10.212 -10.211 -10.208 -10.207 -10.206 -10.198 -10.194
-10.186 -10.184 -10.180 -10.180 -10.179 -10.179 -10.178 -10.177
-10.174 -10.171 -10.169 -10.169  -8.046  -8.042  -7.993  -7.992
 -7.989  -7.987  -7.977  -7.967  -6.011  -6.007  -6.005  -6.004
 -6.002  -6.000  -5.957  -5.955  -5.954  -5.953  -5.952  -5.951
 -5.950  -5.949  -5.949  -5.947  -5.945  -5.944  -5.941  -5.937
 -5.933  -5.932  -5.928  -5.923  -1.057  -1.034  -0.966  -0.958
 -0.954  -0.949  -0.940  -0.934  -0.925  -0.913  -0.905  -0.895
 -0.850  -0.838  -0.830  -0.825  -0.816  -0.810  -0.808  -0.805
 -0.797  -0.796  -0.793  -0.789  -0.781  -0.776  -0.768  -0.762
 -0.752  -0.746  -0.744  -0.734  -0.724  -0.723  -0.711  -0.705
 -0.696  -0.692  -0.674  -0.673  -0.652  -0.647  -0.646  -0.645
 -0.637  -0.631  -0.627  -0.626  -0.612  -0.602  -0.598  -0.595
 -0.592  -0.589  -0.586  -0.580  -0.580  -0.576  -0.567  -0.564
 -0.546  -0.545  -0.544  -0.536  -0.525  -0.521  -0.519  -0.508
 -0.505  -0.505  -0.500  -0.496  -0.488  -0.485  -0.484  -0.476
 -0.473  -0.471  -0.469  -0.464  -0.461  -0.456  -0.452  -0.448
 -0.447  -0.441  -0.440  -0.439  -0.437  -0.433  -0.433  -0.431
 -0.429  -0.428  -0.423  -0.422  -0.421  -0.416  -0.415  -0.413
 -0.412  -0.408  -0.405  -0.403  -0.401  -0.401  -0.400  -0.397
 -0.394  -0.393  -0.390  -0.389  -0.387  -0.385  -0.382  -0.379
 -0.379  -0.377  -0.372  -0.368  -0.365  -0.362  -0.360  -0.360
 -0.354  -0.352  -0.351  -0.350  -0.348  -0.348  -0.343  -0.342
 -0.340  -0.336  -0.336  -0.334  -0.331  -0.328  -0.326  -0.325
 -0.321  -0.317  -0.307  -0.306  -0.305  -0.304  -0.300  -0.296
 -0.295  -0.293  -0.291  -0.289  -0.289  -0.285  -0.277  -0.275
 -0.272  -0.270  -0.267  -0.261  -0.260  -0.251  -0.248  -0.246
 -0.246  -0.243  -0.233  -0.232  -0.195  -0.194

          Ground-State Mulliken Net Atomic Charges

     Atom                 Charge (a.u.)
  ----------------------------------------
      1 C                     0.296748
      2 C                    -0.121048
      3 N                    -0.493972
      4 C                    -0.090165
      5 C                     0.051751
      6 C                     0.046257
      7 C                     0.030292
      8 C                     0.064998
      9 C                     0.208157
     10 N                    -0.529665
     11 N                    -0.551369
     12 C                     0.204833
     13 C                     0.311962
     14 S                     0.639373
     15 N                    -0.578218
     16 C                    -0.219204
     17 S                     0.331426
     18 C                    -0.117995
     19 C                    -0.240325
     20 S                     0.280152
     21 C                     0.113038
     22 C                     0.060442
     23 C                    -0.318990
     24 C                    -0.042631
     25 N                    -0.429228
     26 S                     0.319469
     27 C                     0.092419
     28 C                    -0.300837
     29 C                    -0.219418
     30 H                     0.083599
     31 H                     0.115662
     32 H                     0.106056
     33 H                     0.118113
     34 H                     0.132070
     35 H                     0.136878
     36 H                     0.119415
     37 H                     0.137639
     38 H                     0.092166
     39 C                    -0.184478
     40 H                     0.112799
     41 H                     0.090076
     42 H                     0.117647
     43 C                    -0.175100
     44 H                     0.092929
     45 C                    -0.184838
     46 H                     0.100872
     47 H                     0.089120
     48 H                     0.094261
     49 C                    -0.180945
     50 H                     0.086858
     51 C                    -0.311053
     52 H                     0.090854
     53 H                     0.102414
     54 H                     0.106036
     55 H                     0.100600
     56 C                     0.254405
     57 C                    -0.135743
     58 N                    -0.476522
     59 C                    -0.091870
     60 C                     0.096339
     61 C                     0.041522
     62 C                     0.009199
     63 C                     0.071391
     64 C                     0.182334
     65 N                    -0.531085
     66 N                    -0.519942
     67 C                     0.168084
     68 C                     0.308207
     69 S                     0.599873
     70 N                    -0.498249
     71 C                    -0.224365
     72 S                     0.373947
     73 C                    -0.156918
     74 C                    -0.225749
     75 S                     0.306567
     76 C                     0.170177
     77 C                     0.047156
     78 C                    -0.320340
     79 C                    -0.096430
     80 N                    -0.438040
     81 S                     0.262200
     82 C                     0.135279
     83 C                    -0.307183
     84 C                    -0.212264
     85 H                     0.093629
     86 H                     0.109501
     87 H                     0.115902
     88 H                     0.121509
     89 H                     0.136253
     90 H                     0.112809
     91 H                     0.128804
     92 H                     0.133547
     93 H                     0.124418
     94 C                    -0.187317
     95 H                     0.122577
     96 H                     0.106969
     97 H                     0.099514
     98 C                    -0.176979
     99 H                     0.102545
    100 C                    -0.183862
    101 H                     0.096826
    102 H                     0.093754
    103 H                     0.090790
    104 C                    -0.186598
    105 H                     0.086661
    106 C                    -0.318426
    107 H                     0.085443
    108 H                     0.109002
    109 H                     0.101926
    110 H                     0.100924
  ----------------------------------------
  Sum of atomic charges =     0.000000

                    Cartesian Multipole Moments
 -----------------------------------------------------------------
    Charge (ESU x 10^10)
                 0.0000
    Dipole Moment (Debye)
         X      -1.4509      Y       2.4849      Z      -1.6962
       Tot       3.3402
    Quadrupole Moments (Debye-Ang)
        XX    -395.9062     XY     -19.2501     YY    -452.3967
        XZ      10.1644     YZ      -7.5865     ZZ    -442.5009

 Total job time:  96.18s(wall), 1153.99s(cpu)
        *  Thank you very much for using Q-Chem.  Have a nice day.  *
