 Q-Chem 4.4, Q-Chem, Inc., Pleasanton, CA (2016)
 Q-Chem 4.4.2 for Intel X86 Linux

User input:
--------------------------------------------------------------
$comment
SP
$end

$rem
MEM_STATIC 5000
MEM_TOTAL 20000
JOBTYPE SP
EXCHANGE B3LYP
BASIS 6-31g(d,p)
$end

$molecule
0 1
C         -12.167000     -4.953000     -4.083000
C         -11.461000     -5.832000     -3.156000
N         -13.164000     -4.167000     -3.678000
C         -11.992000     -5.969000     -1.853000
C         -13.466000     -4.190000     -2.375000
C         -12.965000     -5.073000     -1.428000
C         -13.424000     -4.987000      0.005000
C         -12.378000     -4.861000      0.977000
C         -14.718000     -4.963000      0.480000
N         -12.624000     -4.944000      2.296000
N         -15.849000     -4.832000     -0.271000
C         -14.983000     -4.918000      1.848000
C         -13.894000     -4.952000      2.780000
S         -17.129000     -4.766000      0.752000
N         -16.273000     -4.800000      2.167000
C         -14.014000     -4.953000      4.189000
S         -15.290000     -4.166000      5.143000
C         -13.151000     -5.566000      5.090000
C         -14.600000     -4.657000      6.736000
S         -11.668000     -6.482000      4.726000
C         -13.402000     -5.322000      6.432000
C         -15.111000     -4.333000      8.023000
C         -11.390000     -6.478000      6.482000
C         -12.374000     -5.859000      7.240000
N         -14.382000     -4.680000      9.089000
S         -16.660000     -3.559000      8.388000
C         -14.938000     -4.334000     10.238000
C         -16.136000     -3.720000     10.017000
C         -11.777000     -4.749000     -5.580000
H         -10.629000     -6.489000     -3.392000
H         -11.469000     -6.604000     -1.144000
H         -14.210000     -3.443000     -2.102000
H         -11.319000     -4.912000      0.730000
H         -10.699000     -7.239000      6.821000
H         -12.382000     -5.887000      8.324000
H         -14.448000     -4.596000     11.167000
H         -16.996000     -3.467000     10.622000
H         -12.563000     -4.935000     -6.322000
C         -10.636000     -5.672000     -6.012000
H         -11.503000     -3.695000     -5.712000
H         -10.841000     -6.743000     -5.892000
H          -9.841000     -5.483000     -5.280000
C         -10.028000     -5.341000     -7.394000
H         -10.753000     -5.416000     -8.214000
C          -8.891000     -6.414000     -7.614000
H          -9.615000     -4.326000     -7.331000
H          -9.507000     -7.308000     -7.771000
H          -8.243000     -6.475000     -6.731000
C          -7.887000     -6.146000     -8.722000
H          -8.473000     -5.777000     -9.572000
C          -6.952000     -7.333000     -8.856000
H          -7.239000     -5.281000     -8.536000
H          -6.179000     -6.904000     -9.505000
H          -7.549000     -8.113000     -9.346000
H          -6.371000     -7.598000     -7.964000
C         -30.857000     -4.307000      0.915000
C         -30.199000     -5.236000      0.103000
N         -30.216000     -3.195000      1.311000
C         -28.921000     -4.977000     -0.430000
C         -28.950000     -2.985000      0.925000
C         -28.229000     -3.867000      0.016000
C         -26.855000     -3.685000     -0.531000
C         -25.913000     -4.781000     -0.726000
C         -26.199000     -2.407000     -0.713000
N         -24.678000     -4.640000     -1.185000
N         -26.918000     -1.299000     -0.539000
C         -24.951000     -2.315000     -1.341000
C         -24.146000     -3.438000     -1.532000
S         -25.853000     -0.217000     -1.196000
N         -24.532000     -1.033000     -1.457000
C         -22.734000     -3.351000     -1.928000
S         -21.844000     -1.953000     -2.487000
C         -21.825000     -4.460000     -2.006000
C         -20.257000     -2.764000     -2.446000
S         -22.087000     -6.183000     -1.741000
C         -20.482000     -4.126000     -2.147000
C         -18.931000     -2.178000     -2.679000
C         -20.371000     -6.426000     -1.796000
C         -19.649000     -5.226000     -1.994000
N         -18.902000     -0.815000     -2.665000
S         -17.338000     -2.916000     -3.037000
C         -17.582000     -0.286000     -2.698000
C         -16.676000     -1.258000     -2.890000
C         -32.276000     -4.408000      1.556000
H         -30.778000     -6.066000     -0.291000
H         -28.458000     -5.734000     -1.055000
H         -28.425000     -2.113000      1.312000
H         -26.299000     -5.759000     -0.442000
H         -19.997000     -7.438000     -1.712000
H         -18.567000     -5.213000     -1.929000
H         -17.443000      0.783000     -2.604000
H         -15.651000     -1.178000     -3.226000
H         -32.124000     -4.328000      2.639000
C         -32.989000     -5.662000      1.159000
H         -32.812000     -3.488000      1.294000
H         -32.334000     -6.537000      1.067000
H         -33.342000     -5.510000      0.131000
C         -34.113000     -5.933000      2.186000
H         -33.805000     -5.947000      3.239000
C         -34.678000     -7.348000      1.866000
H         -34.948000     -5.227000      2.105000
H         -33.879000     -8.087000      1.731000
H         -35.172000     -7.356000      0.887000
C         -35.602000     -7.894000      2.973000
H         -36.349000     -7.166000      3.312000
C         -34.969000     -8.550000      4.198000
H         -36.190000     -8.707000      2.530000
H         -34.143000     -7.896000      4.504000
H         -34.544000     -9.517000      3.904000
H         -35.704000     -8.749000      4.988000
$end

--------------------------------------------------------------

             Standard Nuclear Orientation (Angstroms)
    I     Atom           X                Y                Z
 ----------------------------------------------------------------
    1      C       7.5094373660    -3.7548800545     0.5345064688
    2      C       8.1559184227    -2.7182759913     1.3332055734
    3      N       6.4601504506    -3.4858067104    -0.2416549221
    4      C       7.5178120505    -1.4590723839     1.4091366788
    5      C       6.0470097977    -2.2142671609    -0.2868652616
    6      C       6.4877124950    -1.1749320401     0.5212576495
    7      C       5.9039943878     0.2057555439     0.3646020828
    8      C       6.8579514850     1.2533076344     0.1469407074
    9      C       4.5734990611     0.5667386452     0.3540955920
   10      N       6.5008162179     2.5492548527     0.1588238217
   11      N       3.5087662887    -0.2842873987     0.3048838462
   12      C       4.1897263490     1.9018177572     0.2359589331
   13      C       5.1943075557     2.9232212931     0.1789289762
   14      S       2.1435462133     0.6202157670     0.2192499206
   15      N       2.8741993315     2.1021467973     0.1408698061
   16      C       4.9526246572     4.3142531313     0.0995450887
   17      S       3.5778484948     5.1055183435    -0.7014236167
   18      C       5.7505082723     5.3217453925     0.6293375769
   19      C       4.1401250401     6.7788618572    -0.3291380115
   20      S       7.2837491151     5.1428182152     1.5170304198
   21      C       5.3775439404     6.6197483226     0.3137634959
   22      C       3.5108401544     7.9951047798    -0.7128301875
   23      C       7.4081882611     6.9124024329     1.3990363714
   24      C       6.3457531582     7.5440293406     0.7679578489
   25      N       4.1537640992     9.1387127667    -0.4539565245
   26      S       1.9156308314     8.1782772852    -1.4567771274
   27      C       3.4910387234    10.2125306639    -0.8498898520
   28      C       2.3005355220     9.8527461572    -1.4105129305
   29      C       8.0221388166    -5.2231548617     0.4078916473
   30      H       9.0227368170    -2.8413448353     1.9758944023
   31      H       7.9943504853    -0.6700100173     1.9833550187
   32      H       5.2621811569    -2.0525443140    -1.0244042269
   33      H       7.9353749692     1.1007849846     0.1783489384
   34      H       8.0875348399     7.3556465114     2.1156575495
   35      H       6.2445262356     8.6230637189     0.7313256144
   36      H       3.9055319328    11.1943063334    -0.6598979726
   37      H       1.3847685809    10.3655774372    -1.6712982596
   38      H       7.3087824693    -6.0161680110     0.6632519159
   39      C       9.2208817111    -5.4983072126     1.3176941845
   40      H       8.2779126696    -5.3968817123    -0.6446361279
   41      H       9.0353235797    -5.3295944924     2.3856689959
   42      H       9.9439869194    -4.7146612805     1.0596478498
   43      C       9.9372680938    -6.8416307656     1.0504463920
   44      H       9.2884187808    -7.7139521442     1.1977555279
   45      C      11.1177020834    -6.8969485303     2.0973530455
   46      H      10.3156101913    -6.8072078876     0.0206719882
   47      H      10.5420759809    -7.0496311260     3.0185933047
   48      H      11.6880885158    -5.9600350490     2.0844516350
   49      C      12.2063916547    -7.9302428056     1.8637680332
   50      H      11.6865461914    -8.8482822394     1.5654036717
   51      C      13.1812892291    -7.9100824575     3.0257999947
   52      H      12.8121554386    -7.7441959490     0.9686916089
   53      H      13.9957642737    -8.5165858201     2.6116079222
   54      H      12.6503794903    -8.3994076306     3.8526039160
   55      H      13.6896963662    -6.9571867580     3.2180549530
   56      C     -11.5542350216    -0.4119947899     0.1954884620
   57      C     -10.8033733133    -1.1056710882     1.1496209938
   58      N     -10.9803447066    -0.0331138890    -0.9583486882
   59      C      -9.4914447182    -1.5433379142     0.8817682153
   60      C      -9.6917892983    -0.3225620715    -1.1857177923
   61      C      -8.8710478394    -1.1102799977    -0.2747128930
   62      C      -7.4602169908    -1.5489155818    -0.4680109551
   63      C      -6.4755218841    -1.5944961469     0.6066531594
   64      C      -6.8257523760    -1.7538962186    -1.7533831157
   65      N      -5.2096382949    -1.9548675367     0.4534924599
   66      N      -7.5868734806    -1.7110115995    -2.8459747931
   67      C      -5.5309378566    -2.2781676269    -1.8479709101
   68      C      -4.6822918454    -2.3297197575    -0.7421782869
   69      S      -6.4985951372    -2.3413970653    -3.9206200423
   70      N      -5.1383255711    -2.4378892772    -3.1336168907
   71      C      -3.2441422953    -2.6090447662    -0.8509551733
   72      S      -2.3471968961    -3.1765410733    -2.2410709571
   73      C      -2.3021063797    -2.5402678655     0.2307490708
   74      C      -0.7483562997    -2.9504389467    -1.4857183402
   75      S      -2.5393493390    -2.1915433382     1.9423871699
   76      C      -0.9614768079    -2.5872738339    -0.1374747607
   77      C       0.5764990432    -3.1060911831    -2.0993075363
   78      C      -0.8190969906    -2.0853737508     2.1326235399
   79      C      -0.1154054834    -2.2957970339     0.9238935020
   80      N       0.5672558907    -3.1747033544    -3.4609289720
   81      S       2.2139443816    -3.2808114498    -1.3931187567
   82      C       1.8703330292    -3.1284235336    -4.0294165702
   83      C       2.8155590312    -3.1818102916    -3.0774808271
   84      C     -13.0202260158     0.1112454593     0.3038076503
   85      H     -11.3233298870    -1.4948840676     2.0199861000
   86      H      -8.9556530303    -2.0783387411     1.6594213400
   87      H      -9.2261395521     0.0524854604    -2.0958208978
   88      H      -6.8580738387    -1.2838647423     1.5778885236
   89      H      -0.4265254371    -1.9069755374     3.1251645481
   90      H       0.9561291956    -2.1400939994     0.8720476072
   91      H       1.9716575315    -3.0898066641    -5.1060595392
   92      H       3.8632949907    -3.4338938543    -3.1703475956
   93      H     -12.9649525945     1.1961365352     0.1543111547
   94      C     -13.6618865267    -0.2658884592     1.6017043320
   95      H     -13.5561977565    -0.2521809121    -0.5810627163
   96      H     -12.9779222194    -0.2471936986     2.4590008572
   97      H     -13.9283811864    -1.3276205686     1.5229482247
   98      C     -14.8629731357     0.6768541445     1.8470068815
   99      H     -14.6471975802     1.7510203782     1.7880423838
  100      C     -15.3595645122     0.3988987560     3.2961403490
  101      H     -15.7066117395     0.4813766969     1.1744858976
  102      H     -14.5321491218     0.3785792594     4.0156665055
  103      H     -15.7663931599    -0.6161011071     3.3786432539
  104      C     -16.3609702538     1.4553276942     3.8045549822
  105      H     -17.1539963379     1.6836133575     3.0821220884
  106      C     -15.8190722344     2.7681684955     4.3653094444
  107      H     -16.8861000439     1.0155630632     4.6611807890
  108      H     -15.0407389563     3.1018199692     3.6678124894
  109      H     -15.3441452494     2.5721945998     5.3339108026
  110      H     -16.6141619877     3.5037710716     4.5403726739
 ----------------------------------------------------------------

    9   -5663.4778176657      9.00E-06 Convergence criterion met
 Total energy in the final basis set = -5663.4778176657

                    Orbital Energies (a.u.)
 --------------------------------------------------------------

 Alpha MOs
 -- Occupied --
-88.989 -88.982 -88.930 -88.926 -88.926 -88.923 -88.912 -88.907
-14.389 -14.383 -14.382 -14.379 -14.347 -14.347 -14.340 -14.339
-14.331 -14.325 -10.274 -10.270 -10.262 -10.261 -10.254 -10.253
-10.252 -10.251 -10.247 -10.245 -10.244 -10.243 -10.241 -10.241
-10.239 -10.231 -10.231 -10.229 -10.229 -10.229 -10.228 -10.228
-10.227 -10.227 -10.226 -10.224 -10.223 -10.221 -10.215 -10.214
-10.214 -10.210 -10.208 -10.208 -10.207 -10.203 -10.197 -10.193
-10.189 -10.184 -10.182 -10.182 -10.182 -10.181 -10.177 -10.177
-10.176 -10.175 -10.174 -10.172  -8.044  -8.039  -7.991  -7.985
 -7.984  -7.982  -7.972  -7.967  -6.009  -6.003  -6.003  -6.002
 -5.998  -5.997  -5.955  -5.952  -5.949  -5.949  -5.949  -5.946
 -5.946  -5.945  -5.942  -5.942  -5.941  -5.938  -5.936  -5.933
 -5.931  -5.929  -5.928  -5.923  -1.054  -1.032  -0.980  -0.956
 -0.954  -0.945  -0.942  -0.936  -0.921  -0.909  -0.908  -0.897
 -0.845  -0.839  -0.836  -0.826  -0.814  -0.811  -0.809  -0.809
 -0.806  -0.803  -0.791  -0.786  -0.785  -0.781  -0.769  -0.765
 -0.752  -0.748  -0.742  -0.739  -0.720  -0.719  -0.712  -0.710
 -0.695  -0.693  -0.675  -0.671  -0.654  -0.651  -0.643  -0.643
 -0.637  -0.634  -0.627  -0.625  -0.611  -0.609  -0.598  -0.595
 -0.592  -0.590  -0.584  -0.579  -0.577  -0.577  -0.573  -0.566
 -0.558  -0.541  -0.540  -0.540  -0.530  -0.521  -0.516  -0.514
 -0.508  -0.502  -0.501  -0.500  -0.487  -0.484  -0.483  -0.481
 -0.480  -0.473  -0.471  -0.469  -0.462  -0.461  -0.456  -0.451
 -0.449  -0.443  -0.438  -0.436  -0.434  -0.434  -0.431  -0.429
 -0.428  -0.427  -0.422  -0.420  -0.417  -0.415  -0.415  -0.415
 -0.409  -0.407  -0.405  -0.404  -0.402  -0.401  -0.398  -0.396
 -0.393  -0.392  -0.391  -0.389  -0.388  -0.385  -0.383  -0.379
 -0.378  -0.377  -0.376  -0.374  -0.368  -0.365  -0.358  -0.356
 -0.355  -0.353  -0.352  -0.351  -0.347  -0.346  -0.346  -0.342
 -0.340  -0.336  -0.332  -0.329  -0.328  -0.328  -0.325  -0.324
 -0.322  -0.320  -0.320  -0.307  -0.302  -0.301  -0.301  -0.296
 -0.293  -0.290  -0.289  -0.286  -0.286  -0.281  -0.281  -0.274
 -0.269  -0.268  -0.264  -0.262  -0.257  -0.256  -0.249  -0.245
 -0.245  -0.242  -0.235  -0.229  -0.190  -0.189

          Ground-State Mulliken Net Atomic Charges

     Atom                 Charge (a.u.)
  ----------------------------------------
      1 C                     0.252800
      2 C                    -0.121500
      3 N                    -0.469712
      4 C                    -0.094137
      5 C                     0.079354
      6 C                     0.056875
      7 C                    -0.018450
      8 C                     0.061809
      9 C                     0.269067
     10 N                    -0.499797
     11 N                    -0.571547
     12 C                     0.209305
     13 C                     0.270107
     14 S                     0.617409
     15 N                    -0.574027
     16 C                    -0.190308
     17 S                     0.304806
     18 C                    -0.118165
     19 C                    -0.227388
     20 S                     0.269027
     21 C                     0.167136
     22 C                     0.063253
     23 C                    -0.306807
     24 C                    -0.056781
     25 N                    -0.439159
     26 S                     0.279719
     27 C                     0.153609
     28 C                    -0.323078
     29 C                    -0.216234
     30 H                     0.099514
     31 H                     0.100488
     32 H                     0.103154
     33 H                     0.117804
     34 H                     0.126488
     35 H                     0.126364
     36 H                     0.120564
     37 H                     0.127763
     38 H                     0.117425
     39 C                    -0.189646
     40 H                     0.120087
     41 H                     0.095577
     42 H                     0.094989
     43 C                    -0.192392
     44 H                     0.092558
     45 C                    -0.157759
     46 H                     0.092786
     47 H                     0.091954
     48 H                     0.087914
     49 C                    -0.190378
     50 H                     0.090857
     51 C                    -0.309411
     52 H                     0.088456
     53 H                     0.097850
     54 H                     0.109296
     55 H                     0.108068
     56 C                     0.253594
     57 C                    -0.125988
     58 N                    -0.481929
     59 C                    -0.093205
     60 C                     0.102067
     61 C                     0.038986
     62 C                     0.008695
     63 C                     0.078090
     64 C                     0.183400
     65 N                    -0.526064
     66 N                    -0.520719
     67 C                     0.167717
     68 C                     0.307718
     69 S                     0.597742
     70 N                    -0.497557
     71 C                    -0.224319
     72 S                     0.371934
     73 C                    -0.150115
     74 C                    -0.226475
     75 S                     0.299729
     76 C                     0.171095
     77 C                     0.035034
     78 C                    -0.313523
     79 C                    -0.109517
     80 N                    -0.439419
     81 S                     0.292774
     82 C                     0.133009
     83 C                    -0.317775
     84 C                    -0.211185
     85 H                     0.084223
     86 H                     0.100754
     87 H                     0.117240
     88 H                     0.106229
     89 H                     0.134748
     90 H                     0.116713
     91 H                     0.126495
     92 H                     0.143460
     93 H                     0.123832
     94 C                    -0.185457
     95 H                     0.124313
     96 H                     0.099661
     97 H                     0.102450
     98 C                    -0.177975
     99 H                     0.100011
    100 C                    -0.181416
    101 H                     0.100887
    102 H                     0.086975
    103 H                     0.092292
    104 C                    -0.185464
    105 H                     0.088893
    106 C                    -0.312617
    107 H                     0.086372
    108 H                     0.099641
    109 H                     0.101591
    110 H                     0.104798
  ----------------------------------------
  Sum of atomic charges =     0.000000

                    Cartesian Multipole Moments
 -----------------------------------------------------------------
    Charge (ESU x 10^10)
                 0.0000
    Dipole Moment (Debye)
         X       1.9641      Y       0.9742      Z       2.7778
       Tot       3.5387
    Quadrupole Moments (Debye-Ang)
        XX    -406.8993     XY      -8.4279     YY    -417.3194
        XZ      -8.2130     YZ      -3.7932     ZZ    -438.2871

 Total job time:  80.29s(wall), 937.62s(cpu)
        *  Thank you very much for using Q-Chem.  Have a nice day.  *
