 Q-Chem 4.4, Q-Chem, Inc., Pleasanton, CA (2016)
 Q-Chem 4.4.2 for Intel X86 Linux

User input:
--------------------------------------------------------------
$comment
SP
$end

$rem
MEM_STATIC 5000
MEM_TOTAL 20000
JOBTYPE SP
EXCHANGE B3LYP
BASIS 6-31g(d,p)
$end

$molecule
0 1
C         -23.666000     10.347000     -8.030000
C         -23.420000      8.966000     -8.381000
N         -23.974000     10.771000     -6.801000
C         -23.526000      8.015000     -7.357000
C         -24.040000      9.837000     -5.872000
C         -23.902000      8.423000     -6.087000
C         -24.192000      7.518000     -4.898000
C         -25.009000      8.012000     -3.787000
C         -23.809000      6.131000     -4.758000
N         -25.295000      7.354000     -2.671000
N         -23.200000      5.334000     -5.716000
C         -23.980000      5.485000     -3.517000
C         -24.762000      6.094000     -2.483000
S         -22.805000      3.964000     -4.977000
N         -23.444000      4.234000     -3.505000
C         -24.995000      5.397000     -1.220000
S         -24.368000      3.850000     -0.732000
C         -25.757000      5.941000     -0.140000
C         -25.183000      3.926000      0.797000
S         -26.503000      7.519000     -0.014000
C         -25.777000      5.135000      0.981000
C         -24.906000      2.864000      1.790000
C         -26.948000      6.972000      1.739000
C         -26.446000      5.754000      2.090000
N         -24.675000      1.667000      1.221000
S         -25.536000      2.865000      3.442000
C         -24.842000      0.767000      2.209000
C         -25.176000      1.172000      3.457000
C         -23.473000     11.384000     -9.136000
H         -23.184000      8.762000     -9.421000
H         -23.462000      6.971000     -7.652000
H         -24.151000     10.252000     -4.871000
H         -25.474000      8.996000     -3.780000
H         -27.561000      7.712000      2.236000
H         -26.516000      5.347000      3.093000
H         -24.664000     -0.297000      2.122000
H         -25.175000      0.654000      4.407000
H         -23.207000     12.335000     -8.659000
C         -24.698000     11.560000    -10.075000
H         -22.577000     11.151000     -9.724000
H         -25.625000     11.857000     -9.570000
H         -24.933000     10.596000    -10.543000
C         -24.652000     12.664000    -11.097000
H         -24.116000     12.377000    -12.010000
C         -23.835000     13.905000    -10.690000
H         -25.672000     13.002000    -11.320000
H         -22.818000     13.506000    -10.589000
H         -24.139000     14.256000     -9.697000
C         -23.829000     15.011000    -11.702000
H         -24.894000     15.271000    -11.714000
C         -23.206000     14.660000    -13.031000
H         -23.191000     15.897000    -11.599000
H         -22.235000     14.257000    -12.718000
H         -23.116000     15.628000    -13.539000
H         -23.712000     13.840000    -13.555000
C         -30.857000     -4.307000      0.915000
C         -30.199000     -5.236000      0.103000
N         -30.216000     -3.195000      1.311000
C         -28.921000     -4.977000     -0.430000
C         -28.950000     -2.985000      0.925000
C         -28.229000     -3.867000      0.016000
C         -26.855000     -3.685000     -0.531000
C         -25.913000     -4.781000     -0.726000
C         -26.199000     -2.407000     -0.713000
N         -24.678000     -4.640000     -1.185000
N         -26.918000     -1.299000     -0.539000
C         -24.951000     -2.315000     -1.341000
C         -24.146000     -3.438000     -1.532000
S         -25.853000     -0.217000     -1.196000
N         -24.532000     -1.033000     -1.457000
C         -22.734000     -3.351000     -1.928000
S         -21.844000     -1.953000     -2.487000
C         -21.825000     -4.460000     -2.006000
C         -20.257000     -2.764000     -2.446000
S         -22.087000     -6.183000     -1.741000
C         -20.482000     -4.126000     -2.147000
C         -18.931000     -2.178000     -2.679000
C         -20.371000     -6.426000     -1.796000
C         -19.649000     -5.226000     -1.994000
N         -18.902000     -0.815000     -2.665000
S         -17.338000     -2.916000     -3.037000
C         -17.582000     -0.286000     -2.698000
C         -16.676000     -1.258000     -2.890000
C         -32.276000     -4.408000      1.556000
H         -30.778000     -6.066000     -0.291000
H         -28.458000     -5.734000     -1.055000
H         -28.425000     -2.113000      1.312000
H         -26.299000     -5.759000     -0.442000
H         -19.997000     -7.438000     -1.712000
H         -18.567000     -5.213000     -1.929000
H         -17.443000      0.783000     -2.604000
H         -15.651000     -1.178000     -3.226000
H         -32.124000     -4.328000      2.639000
C         -32.989000     -5.662000      1.159000
H         -32.812000     -3.488000      1.294000
H         -32.334000     -6.537000      1.067000
H         -33.342000     -5.510000      0.131000
C         -34.113000     -5.933000      2.186000
H         -33.805000     -5.947000      3.239000
C         -34.678000     -7.348000      1.866000
H         -34.948000     -5.227000      2.105000
H         -33.879000     -8.087000      1.731000
H         -35.172000     -7.356000      0.887000
C         -35.602000     -7.894000      2.973000
H         -36.349000     -7.166000      3.312000
C         -34.969000     -8.550000      4.198000
H         -36.190000     -8.707000      2.530000
H         -34.143000     -7.896000      4.504000
H         -34.544000     -9.517000      3.904000
H         -35.704000     -8.749000      4.988000
$end

--------------------------------------------------------------

             Standard Nuclear Orientation (Angstroms)
    I     Atom           X                Y                Z
 ----------------------------------------------------------------
    1      C     -10.4559890984    -0.9798464500    -1.3941740088
    2      C      -9.5119080074    -0.1470918948    -2.1055872110
    3      N     -10.1648595982    -1.6850171260    -0.2973335774
    4      C      -8.2026148115    -0.0926702853    -1.6085936340
    5      C      -8.9243967870    -1.5809302679     0.1387523547
    6      C      -7.8614477752    -0.8613615581    -0.5070225830
    7      C      -6.4672882021    -1.0251621530     0.0814792862
    8      C      -6.1600377241    -2.1881578116     0.9174722537
    9      C      -5.3248445438    -0.1729770201    -0.1607210171
   10      N      -5.0101697496    -2.4286885879     1.5340471371
   11      N      -5.2509097914     0.8885482487    -1.0504129616
   12      C      -4.1564545684    -0.3420403636     0.6092922628
   13      C      -3.9914315470    -1.5018195203     1.4334528723
   14      S      -3.8473617248     1.6160027648    -0.7677316008
   15      N      -3.2279655523     0.6218833559     0.3619055012
   16      C      -2.7537165194    -1.7113344569     2.1814047435
   17      S      -1.3763072903    -0.6532279465     2.2687914043
   18      C      -2.5173371491    -2.8378245890     3.0288271740
   19      C      -0.5209371598    -1.7418686386     3.3133225830
   20      S      -3.6049894940    -4.1466908943     3.4366964807
   21      C      -1.3078281721    -2.7835945486     3.6927730584
   22      C       0.7699431243    -1.2945070699     3.8826359580
   23      C      -2.2122212976    -4.7098641986     4.5826788455
   24      C      -1.1453302365    -3.8621632340     4.6259863307
   25      N       1.4605490209    -0.4998173731     3.0451022087
   26      S       1.6987096573    -2.2147182245     5.0728498708
   27      C       2.7254981377    -0.5121247226     3.5074713915
   28      C       3.0482223100    -1.2372898146     4.6043167306
   29      C     -11.8985732547    -0.9721168130    -1.8988969076
   30      H      -9.8831387238     0.3673898886    -2.9867275232
   31      H      -7.4714769386     0.4339807326    -2.2161568950
   32      H      -8.7821172847    -2.0570616295     1.1080832939
   33      H      -6.8716032764    -2.9887680084     1.1104172655
   34      H      -2.4512301940    -5.6536323187     5.0544356504
   35      H      -0.3160258890    -3.9824478665     5.3147126236
   36      H       3.5411336642     0.0796804827     3.1126875430
   37      H       3.9287643748    -1.2394142033     5.2331777320
   38      H     -12.5507459690    -1.2061327084    -1.0488420203
   39      C     -12.1707916645    -1.9359598918    -3.0864261312
   40      H     -12.2039939577     0.0476698231    -2.1627195965
   41      H     -11.9502714863    -2.9905410280    -2.8819940447
   42      H     -11.5113535965    -1.6710545434    -3.9221961898
   43      C     -13.5934503439    -2.1040418489    -3.5481692822
   44      H     -13.9120886846    -1.3158555752    -4.2413258345
   45      C     -14.6650093786    -1.9421057817    -2.4532916884
   46      H     -13.7224425212    -3.1012514343    -3.9878362708
   47      H     -14.5402953504    -0.8976227209    -2.1415344961
   48      H     -14.4228002095    -2.5645402998    -1.5840529473
   49      C     -16.0744707910    -2.1489516749    -2.9202491848
   50      H     -16.0277095094    -3.2015495477    -3.2232675023
   51      C     -16.5546216378    -1.1684440254    -3.9621853218
   52      H     -16.9407446953    -1.9439692770    -2.2797800292
   53      H     -16.3161432702    -0.2092272016    -3.4865277210
   54      H     -17.6342431727    -1.3548236216    -4.0157389165
   55      H     -15.9738737682    -1.1902514490    -4.8923833374
   56      C       7.9636126400    -3.6499341264    -1.6224843204
   57      C       8.2047650078    -2.5246083386    -2.4167364258
   58      N       7.0413187770    -3.5931576580    -0.6476040904
   59      C       7.4101806907    -1.3656917760    -2.3167256058
   60      C       6.3596980356    -2.4575696930    -0.4434347032
   61      C       6.4997780234    -1.2732055131    -1.2811130940
   62      C       5.7393559196     0.0046602282    -1.1861058781
   63      C       6.3362712256     1.3165892879    -1.4077796475
   64      C       4.4037307265     0.1346980272    -0.6421026479
   65      N       5.6871096971     2.4669340154    -1.3025023098
   66      N       3.7297840700    -0.9775977981    -0.3531478053
   67      C       3.7141665057     1.3520971843    -0.6949465483
   68      C       4.3708994610     2.5509268574    -0.9726950679
   69      S       2.2346253859    -0.3027593473    -0.1393919294
   70      N       2.4665267825     1.2540580526    -0.1788802252
   71      C       3.7514816251     3.8672793005    -0.7685706203
   72      S       2.0789170173     4.2414127904    -0.4199493866
   73      C       4.4222771109     5.1295260523    -0.9064566382
   74      C       2.3789306773     5.9696150555    -0.1017046149
   75      S       6.0727356867     5.5075961051    -1.3970150187
   76      C       3.7298045103     6.2331815449    -0.4191043519
   77      C       1.4344694709     6.9798710603     0.3915872199
   78      C       5.8137299075     7.1512146224    -0.9089943471
   79      C       4.5198652022     7.3741443915    -0.3829673111
   80      N       0.2785009289     6.4729836537     0.9069588206
   81      S       1.4855170179     8.7709136690     0.3957731344
   82      C      -0.5231041513     7.4569935062     1.5492079200
   83      C      -0.0206584164     8.6878215929     1.3618726469
   84      C       8.7106315274    -5.0198260878    -1.6238244204
   85      H       8.8731381301    -2.6358961867    -3.2654232845
   86      H       7.6424706894    -0.5221575561    -2.9590139962
   87      H       5.6663028552    -2.4094802360     0.3948185568
   88      H       7.3959749532     1.2898700938    -1.6576798162
   89      H       6.6146450140     7.8616067066    -1.0669629481
   90      H       4.2620507052     8.3244427508     0.0704449884
   91      H      -1.4208838588     7.1457308699     2.0669193917
   92      H      -0.5071544740     9.6472829310     1.4744627293
   93      H       9.1076017842    -5.1477556976    -0.6097033083
   94      C       9.7712305630    -5.0856889897    -2.6770507797
   95      H       7.9463735675    -5.8012895949    -1.7107988871
   96      H      10.3022474616    -4.1389480791    -2.8345839555
   97      H       9.2546973773    -5.2398514523    -3.6330447145
   98      C      10.7663047356    -6.2082580880    -2.3012689142
   99      H      11.1890403227    -6.1534350768    -1.2902505856
  100      C      11.9612591647    -6.0955102636    -3.2928443477
  101      H      10.3441315260    -7.2133387421    -2.4187621475
  102      H      12.3201575628    -5.0633810551    -3.3858402446
  103      H      11.6392053166    -6.3243344613    -4.3158115053
  104      C      13.1753778957    -6.9492119655    -2.8751720945
  105      H      12.9073639756    -7.9743693188    -2.5920909408
  106      C      14.1389501394    -6.3906622323    -1.8305665581
  107      H      13.8088599692    -7.0646291480    -3.7630579749
  108      H      13.5155583636    -5.9707418199    -1.0313935223
  109      H      14.7128725196    -5.5707487234    -2.2783443372
  110      H      14.8631879073    -7.1417358703    -1.4910167886
 ----------------------------------------------------------------

    9   -5663.4766490367      7.58E-06 Convergence criterion met
 Total energy in the final basis set = -5663.4766490367

                    Orbital Energies (a.u.)
 --------------------------------------------------------------

 Alpha MOs
 -- Occupied --
-88.989 -88.977 -88.932 -88.929 -88.925 -88.920 -88.911 -88.910
-14.384 -14.381 -14.379 -14.378 -14.354 -14.350 -14.345 -14.341
-14.328 -14.325 -10.276 -10.276 -10.262 -10.259 -10.257 -10.252
-10.248 -10.247 -10.245 -10.244 -10.240 -10.239 -10.238 -10.237
-10.232 -10.232 -10.231 -10.230 -10.230 -10.230 -10.229 -10.229
-10.228 -10.228 -10.227 -10.227 -10.224 -10.223 -10.218 -10.215
-10.210 -10.208 -10.207 -10.207 -10.205 -10.201 -10.199 -10.196
-10.184 -10.184 -10.183 -10.182 -10.181 -10.178 -10.175 -10.174
-10.172 -10.171 -10.170 -10.170  -8.044  -8.034  -7.994  -7.989
 -7.983  -7.979  -7.970  -7.968  -6.009  -6.003  -6.002  -5.998
 -5.993  -5.992  -5.958  -5.954  -5.953  -5.951  -5.950  -5.948
 -5.945  -5.944  -5.944  -5.940  -5.940  -5.936  -5.935  -5.933
 -5.931  -5.929  -5.927  -5.924  -1.049  -1.032  -0.980  -0.952
 -0.950  -0.944  -0.944  -0.936  -0.917  -0.913  -0.907  -0.893
 -0.844  -0.840  -0.825  -0.825  -0.818  -0.814  -0.809  -0.805
 -0.803  -0.795  -0.790  -0.789  -0.785  -0.781  -0.765  -0.765
 -0.749  -0.748  -0.741  -0.741  -0.725  -0.719  -0.710  -0.709
 -0.693  -0.689  -0.673  -0.669  -0.658  -0.649  -0.642  -0.641
 -0.633  -0.629  -0.624  -0.623  -0.609  -0.606  -0.599  -0.595
 -0.592  -0.590  -0.587  -0.584  -0.578  -0.576  -0.566  -0.550
 -0.545  -0.540  -0.540  -0.538  -0.522  -0.519  -0.518  -0.514
 -0.502  -0.501  -0.499  -0.498  -0.486  -0.483  -0.477  -0.476
 -0.473  -0.473  -0.468  -0.467  -0.462  -0.461  -0.459  -0.451
 -0.449  -0.443  -0.442  -0.438  -0.436  -0.434  -0.434  -0.429
 -0.429  -0.426  -0.420  -0.420  -0.419  -0.416  -0.415  -0.414
 -0.409  -0.407  -0.404  -0.403  -0.399  -0.396  -0.395  -0.392
 -0.392  -0.391  -0.390  -0.388  -0.383  -0.383  -0.380  -0.379
 -0.376  -0.376  -0.374  -0.372  -0.366  -0.365  -0.356  -0.355
 -0.353  -0.352  -0.349  -0.349  -0.348  -0.344  -0.343  -0.339
 -0.338  -0.337  -0.332  -0.330  -0.329  -0.329  -0.324  -0.321
 -0.319  -0.317  -0.309  -0.308  -0.303  -0.302  -0.300  -0.300
 -0.295  -0.292  -0.290  -0.287  -0.285  -0.284  -0.280  -0.272
 -0.270  -0.267  -0.264  -0.262  -0.257  -0.256  -0.253  -0.245
 -0.241  -0.241  -0.231  -0.228  -0.192  -0.189

          Ground-State Mulliken Net Atomic Charges

     Atom                 Charge (a.u.)
  ----------------------------------------
      1 C                     0.257599
      2 C                    -0.114035
      3 N                    -0.467689
      4 C                    -0.081486
      5 C                     0.061866
      6 C                     0.055192
      7 C                     0.022476
      8 C                     0.061751
      9 C                     0.202769
     10 N                    -0.524465
     11 N                    -0.558303
     12 C                     0.208991
     13 C                     0.313693
     14 S                     0.622646
     15 N                    -0.565017
     16 C                    -0.234435
     17 S                     0.379807
     18 C                    -0.118342
     19 C                    -0.244219
     20 S                     0.266989
     21 C                     0.154996
     22 C                     0.028488
     23 C                    -0.313664
     24 C                    -0.050768
     25 N                    -0.414472
     26 S                     0.284166
     27 C                     0.136945
     28 C                    -0.308123
     29 C                    -0.238980
     30 H                     0.095005
     31 H                     0.122934
     32 H                     0.101103
     33 H                     0.116855
     34 H                     0.130208
     35 H                     0.120822
     36 H                     0.111795
     37 H                     0.145299
     38 H                     0.121504
     39 C                    -0.170352
     40 H                     0.101175
     41 H                     0.106753
     42 H                     0.092497
     43 C                    -0.184549
     44 H                     0.090089
     45 C                    -0.182669
     46 H                     0.089904
     47 H                     0.085263
     48 H                     0.092449
     49 C                    -0.161795
     50 H                     0.086123
     51 C                    -0.318372
     52 H                     0.090794
     53 H                     0.101591
     54 H                     0.101693
     55 H                     0.103206
     56 C                     0.253679
     57 C                    -0.126890
     58 N                    -0.482946
     59 C                    -0.091805
     60 C                     0.102655
     61 C                     0.037122
     62 C                     0.009255
     63 C                     0.075582
     64 C                     0.174870
     65 N                    -0.526226
     66 N                    -0.529663
     67 C                     0.163959
     68 C                     0.304864
     69 S                     0.636911
     70 N                    -0.501826
     71 C                    -0.224024
     72 S                     0.373141
     73 C                    -0.150685
     74 C                    -0.227116
     75 S                     0.296487
     76 C                     0.171713
     77 C                     0.046920
     78 C                    -0.312190
     79 C                    -0.098996
     80 N                    -0.438238
     81 S                     0.259111
     82 C                     0.134661
     83 C                    -0.307987
     84 C                    -0.210648
     85 H                     0.083981
     86 H                     0.100824
     87 H                     0.115786
     88 H                     0.104586
     89 H                     0.132536
     90 H                     0.110621
     91 H                     0.127323
     92 H                     0.131522
     93 H                     0.122721
     94 C                    -0.185257
     95 H                     0.124279
     96 H                     0.099551
     97 H                     0.102624
     98 C                    -0.177926
     99 H                     0.099570
    100 C                    -0.180876
    101 H                     0.100848
    102 H                     0.086874
    103 H                     0.092336
    104 C                    -0.186016
    105 H                     0.088967
    106 C                    -0.312899
    107 H                     0.086573
    108 H                     0.099518
    109 H                     0.101682
    110 H                     0.104861
  ----------------------------------------
  Sum of atomic charges =     0.000000

                    Cartesian Multipole Moments
 -----------------------------------------------------------------
    Charge (ESU x 10^10)
                 0.0000
    Dipole Moment (Debye)
         X       2.6384      Y       2.0435      Z       0.2994
       Tot       3.3506
    Quadrupole Moments (Debye-Ang)
        XX    -426.6477     XY     -13.5679     YY    -411.0036
        XZ       6.3620     YZ      -2.9968     ZZ    -424.6494

 Total job time:  79.63s(wall), 935.54s(cpu)
        *  Thank you very much for using Q-Chem.  Have a nice day.  *
