 Q-Chem 4.4, Q-Chem, Inc., Pleasanton, CA (2016)
 Q-Chem 4.4.2 for Intel X86 Linux

User input:
--------------------------------------------------------------
$comment
SP
$end

$rem
MEM_STATIC 5000
MEM_TOTAL 20000
JOBTYPE SP
EXCHANGE B3LYP
BASIS 6-31g(d,p)
$end

$molecule
0 1
C         -21.589000     -3.196000      2.155000
C         -22.912000     -3.369000      1.640000
N         -21.049000     -4.060000      3.029000
C         -23.615000     -4.526000      1.981000
C         -21.855000     -5.076000      3.456000
C         -23.148000     -5.431000      3.010000
C         -23.877000     -6.591000      3.553000
C         -25.312000     -6.539000      3.884000
C         -23.225000     -7.820000      4.059000
N         -26.033000     -7.626000      4.302000
N         -21.896000     -8.085000      4.031000
C         -23.952000     -8.797000      4.620000
C         -25.373000     -8.754000      4.594000
S         -21.594000     -9.549000      4.834000
N         -23.191000     -9.875000      5.099000
C         -26.325000     -9.875000      4.905000
S         -27.951000     -9.741000      5.687000
C         -26.082000    -11.128000      4.488000
C         -28.192000    -11.405000      5.498000
S         -25.051000    -11.761000      3.208000
C         -27.144000    -11.989000      4.786000
C         -29.507000    -11.981000      5.661000
C         -25.978000    -13.228000      3.173000
C         -27.014000    -13.244000      4.070000
N         -29.531000    -13.277000      5.849000
S         -31.006000    -11.080000      5.753000
C         -30.810000    -13.590000      6.066000
C         -31.730000    -12.572000      6.119000
C         -20.800000     -2.054000      1.696000
H         -23.262000     -2.555000      1.011000
H         -24.563000     -4.813000      1.535000
H         -21.274000     -5.770000      4.062000
H         -25.907000     -5.627000      3.880000
H         -25.736000    -13.973000      2.426000
H         -27.735000    -14.046000      4.179000
H         -31.099000    -14.601000      6.320000
H         -32.794000    -12.582000      6.316000
H         -19.769000     -2.264000      2.007000
C         -21.286000     -0.585000      2.162000
H         -20.739000     -2.101000      0.602000
H         -21.103000     -0.523000      3.242000
H         -22.344000     -0.467000      1.899000
C         -20.538000      0.549000      1.407000
H         -20.576000      1.392000      2.108000
C         -21.041000      0.885000     -0.049000
H         -19.493000      0.215000      1.372000
H         -22.057000      1.289000      0.041000
H         -21.076000      0.004000     -0.702000
C         -20.180000      1.997000     -0.749000
H         -20.286000      2.957000     -0.229000
C         -20.566000      2.250000     -2.202000
H         -19.115000      1.748000     -0.660000
H         -19.781000      2.902000     -2.605000
H         -21.544000      2.747000     -2.221000
H         -20.538000      1.316000     -2.776000
C         -30.857000     -4.307000      0.915000
C         -30.199000     -5.236000      0.103000
N         -30.216000     -3.195000      1.311000
C         -28.921000     -4.977000     -0.430000
C         -28.950000     -2.985000      0.925000
C         -28.229000     -3.867000      0.016000
C         -26.855000     -3.685000     -0.531000
C         -25.913000     -4.781000     -0.726000
C         -26.199000     -2.407000     -0.713000
N         -24.678000     -4.640000     -1.185000
N         -26.918000     -1.299000     -0.539000
C         -24.951000     -2.315000     -1.341000
C         -24.146000     -3.438000     -1.532000
S         -25.853000     -0.217000     -1.196000
N         -24.532000     -1.033000     -1.457000
C         -22.734000     -3.351000     -1.928000
S         -21.844000     -1.953000     -2.487000
C         -21.825000     -4.460000     -2.006000
C         -20.257000     -2.764000     -2.446000
S         -22.087000     -6.183000     -1.741000
C         -20.482000     -4.126000     -2.147000
C         -18.931000     -2.178000     -2.679000
C         -20.371000     -6.426000     -1.796000
C         -19.649000     -5.226000     -1.994000
N         -18.902000     -0.815000     -2.665000
S         -17.338000     -2.916000     -3.037000
C         -17.582000     -0.286000     -2.698000
C         -16.676000     -1.258000     -2.890000
C         -32.276000     -4.408000      1.556000
H         -30.778000     -6.066000     -0.291000
H         -28.458000     -5.734000     -1.055000
H         -28.425000     -2.113000      1.312000
H         -26.299000     -5.759000     -0.442000
H         -19.997000     -7.438000     -1.712000
H         -18.567000     -5.213000     -1.929000
H         -17.443000      0.783000     -2.604000
H         -15.651000     -1.178000     -3.226000
H         -32.124000     -4.328000      2.639000
C         -32.989000     -5.662000      1.159000
H         -32.812000     -3.488000      1.294000
H         -32.334000     -6.537000      1.067000
H         -33.342000     -5.510000      0.131000
C         -34.113000     -5.933000      2.186000
H         -33.805000     -5.947000      3.239000
C         -34.678000     -7.348000      1.866000
H         -34.948000     -5.227000      2.105000
H         -33.879000     -8.087000      1.731000
H         -35.172000     -7.356000      0.887000
C         -35.602000     -7.894000      2.973000
H         -36.349000     -7.166000      3.312000
C         -34.969000     -8.550000      4.198000
H         -36.190000     -8.707000      2.530000
H         -34.143000     -7.896000      4.504000
H         -34.544000     -9.517000      3.904000
H         -35.704000     -8.749000      4.988000
$end

--------------------------------------------------------------

             Standard Nuclear Orientation (Angstroms)
    I     Atom           X                Y                Z
 ----------------------------------------------------------------
    1      C       3.5762567061    -1.2766947690     2.1078867014
    2      C       2.7864280665    -0.2551131929     1.4930494844
    3      N       3.0569065724    -2.4666641122     2.4487978347
    4      C       1.4661832015    -0.5494291420     1.1474042638
    5      C       1.7167241687    -2.6264373014     2.2423888892
    6      C       0.8082783352    -1.7587392922     1.5953832226
    7      C      -0.6150111203    -2.0981776806     1.4195460638
    8      C      -1.6943688703    -1.1188699414     1.6373377058
    9      C      -1.1275511619    -3.4784567302     1.2655543396
   10      N      -3.0162164288    -1.3812157091     1.3923321339
   11      N      -0.3747432044    -4.6031924399     1.1913939559
   12      C      -2.4458940881    -3.7136546082     1.1989744094
   13      C      -3.3735015262    -2.6399216121     1.1072798422
   14      S      -1.3903059176    -5.9619190122     1.1489265901
   15      N      -2.7816624250    -5.0735434608     1.1061954641
   16      C      -4.8284908942    -2.7209331878     0.7383502235
   17      S      -6.1743309991    -1.6911807868     1.3721328398
   18      C      -5.2512958220    -3.5318317092    -0.2448214711
   19      C      -7.2693470462    -2.4682094571     0.3426357285
   20      S      -4.4060157567    -4.2760298256    -1.5989709366
   21      C      -6.6178082554    -3.3702893794    -0.4988231344
   22      C      -8.5787923855    -1.9066603134     0.1026660167
   23      C      -5.9108174607    -4.4789400190    -2.4398290013
   24      C      -6.9948100674    -4.0074905038    -1.7463909124
   25      N      -9.4592244244    -2.7350204750    -0.4015114001
   26      S      -9.0875643943    -0.2906382224     0.5463885025
   27      C     -10.6070013271    -2.0565739613    -0.4582344980
   28      C     -10.6356698203    -0.7809708706     0.0492572481
   29      C       4.9945924082    -1.0180092862     2.3503153655
   30      H       3.3030273875     0.6898731069     1.3486090651
   31      H       0.8331539191     0.1072165416     0.5574217438
   32      H       1.4392354276    -3.6603665081     2.4434445879
   33      H      -1.5431871251    -0.1278876819     2.0626414107
   34      H      -5.8895304881    -4.8784535771    -3.4455793589
   35      H      -8.0158826937    -4.0012369799    -2.1101182627
   36      H     -11.5216748140    -2.5381594148    -0.7769912442
   37      H     -11.4454002381    -0.0694306998     0.1444004860
   38      H       5.4382530510    -1.9958832621     2.5755035562
   39      C       5.3632551436     0.0868646682     3.4704289010
   40      H       5.4601200726    -0.7536968922     1.3931377686
   41      H       5.0782280758    -0.3425136510     4.4389983769
   42      H       4.8255874331     1.0137501680     3.2375046570
   43      C       6.8713797207     0.4620007794     3.4525919140
   44      H       7.0670456028     0.7860446226     4.4822542132
   45      C       7.3362774877     1.4834526226     2.3451862981
   46      H       7.3924623066    -0.4947571077     3.3188261335
   47      H       6.8545943853     2.4445838996     2.5637727964
   48      H       7.0481485014     1.1749026955     1.3324802056
   49      C       8.8849920120     1.7455773245     2.3704640135
   50      H       9.1803847536     2.2463405470     3.3006335267
   51      C       9.3776974371     2.6300484767     1.2306543167
   52      H       9.4199181804     0.7876090634     2.3877210465
   53      H      10.4728370645     2.5764826065     1.2698703094
   54      H       9.0233328471     3.6535481199     1.4059489763
   55      H       9.0674830895     2.2188148393     0.2625272827
   56      C      -2.8751401329     5.2106612989    -0.1195412041
   57      C      -2.6562568335     4.4150006352    -1.2484181724
   58      N      -1.9292142307     5.2956029752     0.8303272600
   59      C      -1.4111782363     3.8019457525    -1.4900728800
   60      C      -0.7828327376     4.6161855672     0.6887170269
   61      C      -0.4525388790     3.8329355100    -0.4951205105
   62      C       0.8167686503     3.1071555097    -0.7820190763
   63      C       0.8717944561     1.8118455588    -1.4496636611
   64      C       2.1127451049     3.4603653323    -0.2412493930
   65      N       1.9854733087     1.1356790992    -1.6911286319
   66      N       2.2250428430     4.6063081560     0.4289037708
   67      C       3.2754400685     2.7970369064    -0.6517220730
   68      C       3.2194443174     1.5843038519    -1.3385830592
   69      S       3.8762214291     4.6876865036     0.4887773165
   70      N       4.3856802791     3.3057002335    -0.0676250822
   71      C       4.3944246991     0.7263822695    -1.5423492516
   72      S       6.0780157328     1.0976678895    -1.2479800626
   73      C       4.3707561615    -0.5887851366    -2.1185614472
   74      C       6.6460940452    -0.5690485431    -1.5260346696
   75      S       3.0378454367    -1.5263851040    -2.7907617899
   76      C       5.5432677239    -1.3247322750    -1.9818703884
   77      C       7.9980354053    -1.1109695338    -1.3401928049
   78      C       4.0778364539    -2.9125357008    -2.8518781319
   79      C       5.3779011032    -2.6500946552    -2.3605080013
   80      N       8.8389360740    -0.3078533848    -0.6283666207
   81      S       8.7795659542    -2.6145977636    -1.9222315904
   82      C      10.0694697642    -0.9417412088    -0.3007951569
   83      C      10.1740584634    -2.1362527846    -0.9046886071
   84      C      -4.1647351245     5.9896068893     0.2864532848
   85      H      -3.3898242379     4.4555292682    -2.0481764440
   86      H      -1.2976537229     3.1958198614    -2.3832506837
   87      H      -0.0575359307     4.6428559875     1.5005120937
   88      H      -0.1011040232     1.4120303086    -1.7320681842
   89      H       3.6828826321    -3.8273168032    -3.2740901799
   90      H       6.0932659228    -3.4538095889    -2.2285478552
   91      H      10.7735424283    -0.4225199827     0.3360792436
   92      H      11.0573033644    -2.7338209761    -1.0855523714
   93      H      -4.4611220091     5.5929251855     1.2648148951
   94      C      -5.2452743919     5.8713167087    -0.7416208004
   95      H      -3.8619073156     7.0218860903     0.4986677267
   96      H      -5.2935630518     4.8885516596    -1.2263424356
   97      H      -4.9672980113     6.5391239611    -1.5670053202
   98      C      -6.5975047937     6.2120081857    -0.0730789110
   99      H      -6.8326346429     5.6533076719     0.8414902170
  100      C      -7.7071408601     5.8638075666    -1.1081219676
  101      H      -6.7023481153     7.2770841296     0.1653390238
  102      H      -7.5573840989     4.8716443417    -1.5507640889
  103      H      -7.6422184373     6.5223761249    -1.9825437955
  104      C      -9.1235864285     5.8663135520    -0.4990105890
  105      H      -9.3291294884     6.7508107041     0.1160754526
  106      C      -9.5988370144     4.6264756722     0.2550377600
  107      H      -9.8326736022     5.9388788208    -1.3326122095
  108      H      -8.7680059662     4.3253957362     0.9051905432
  109      H      -9.7754743562     3.8183601829    -0.4646139651
  110      H     -10.5453013431     4.7994747962     0.7824868831
 ----------------------------------------------------------------

   10   -5663.4699196389      4.21E-06 Convergence criterion met
 Total energy in the final basis set = -5663.4699196389

                    Orbital Energies (a.u.)
 --------------------------------------------------------------

 Alpha MOs
 -- Occupied --
-88.992 -88.988 -88.935 -88.933 -88.927 -88.923 -88.915 -88.906
-14.396 -14.390 -14.385 -14.375 -14.353 -14.350 -14.348 -14.340
-14.329 -14.319 -10.283 -10.267 -10.263 -10.261 -10.258 -10.258
-10.255 -10.253 -10.253 -10.251 -10.246 -10.244 -10.238 -10.237
-10.236 -10.236 -10.235 -10.233 -10.231 -10.231 -10.231 -10.230
-10.222 -10.222 -10.221 -10.221 -10.219 -10.218 -10.213 -10.212
-10.212 -10.211 -10.207 -10.206 -10.205 -10.199 -10.195 -10.192
-10.186 -10.184 -10.184 -10.183 -10.179 -10.176 -10.175 -10.173
-10.173 -10.170 -10.168 -10.159  -8.046  -8.045  -7.995  -7.991
 -7.989  -7.983  -7.975  -7.968  -6.011  -6.010  -6.006  -6.004
 -6.004  -6.003  -5.959  -5.955  -5.955  -5.953  -5.951  -5.951
 -5.950  -5.948  -5.948  -5.946  -5.944  -5.940  -5.939  -5.935
 -5.932  -5.931  -5.928  -5.923  -1.060  -1.016  -0.985  -0.961
 -0.951  -0.951  -0.940  -0.928  -0.924  -0.914  -0.913  -0.877
 -0.850  -0.849  -0.831  -0.821  -0.820  -0.812  -0.811  -0.806
 -0.797  -0.795  -0.791  -0.788  -0.783  -0.772  -0.770  -0.756
 -0.753  -0.746  -0.741  -0.734  -0.730  -0.725  -0.713  -0.704
 -0.698  -0.682  -0.677  -0.670  -0.655  -0.651  -0.649  -0.640
 -0.634  -0.629  -0.629  -0.618  -0.614  -0.603  -0.599  -0.596
 -0.588  -0.587  -0.586  -0.582  -0.579  -0.569  -0.568  -0.557
 -0.548  -0.547  -0.546  -0.536  -0.526  -0.522  -0.521  -0.510
 -0.507  -0.506  -0.498  -0.496  -0.488  -0.486  -0.477  -0.476
 -0.474  -0.468  -0.466  -0.464  -0.458  -0.451  -0.450  -0.448
 -0.444  -0.441  -0.440  -0.438  -0.437  -0.435  -0.434  -0.432
 -0.429  -0.425  -0.422  -0.421  -0.417  -0.414  -0.413  -0.411
 -0.408  -0.407  -0.407  -0.404  -0.402  -0.402  -0.398  -0.395
 -0.394  -0.392  -0.388  -0.384  -0.383  -0.382  -0.380  -0.379
 -0.378  -0.375  -0.371  -0.368  -0.365  -0.362  -0.360  -0.355
 -0.355  -0.354  -0.352  -0.350  -0.347  -0.345  -0.343  -0.341
 -0.338  -0.334  -0.331  -0.330  -0.328  -0.325  -0.325  -0.322
 -0.319  -0.310  -0.308  -0.307  -0.302  -0.298  -0.297  -0.297
 -0.296  -0.293  -0.293  -0.291  -0.289  -0.283  -0.281  -0.277
 -0.275  -0.273  -0.268  -0.261  -0.259  -0.249  -0.249  -0.247
 -0.246  -0.240  -0.233  -0.221  -0.195  -0.190

          Ground-State Mulliken Net Atomic Charges

     Atom                 Charge (a.u.)
  ----------------------------------------
      1 C                     0.283727
      2 C                    -0.106844
      3 N                    -0.488255
      4 C                    -0.075952
      5 C                     0.055741
      6 C                     0.051481
      7 C                     0.014587
      8 C                     0.044321
      9 C                     0.289865
     10 N                    -0.485075
     11 N                    -0.589968
     12 C                     0.194881
     13 C                     0.246813
     14 S                     0.615639
     15 N                    -0.546910
     16 C                    -0.206684
     17 S                     0.308740
     18 C                    -0.094733
     19 C                    -0.200062
     20 S                     0.256114
     21 C                     0.116361
     22 C                     0.032897
     23 C                    -0.306724
     24 C                    -0.044285
     25 N                    -0.407708
     26 S                     0.283410
     27 C                     0.122144
     28 C                    -0.309441
     29 C                    -0.262170
     30 H                     0.087018
     31 H                     0.090412
     32 H                     0.116494
     33 H                     0.124524
     34 H                     0.135115
     35 H                     0.118886
     36 H                     0.102709
     37 H                     0.134344
     38 H                     0.113334
     39 C                    -0.182264
     40 H                     0.121326
     41 H                     0.105115
     42 H                     0.091755
     43 C                    -0.180358
     44 H                     0.087789
     45 C                    -0.179810
     46 H                     0.093139
     47 H                     0.082101
     48 H                     0.126294
     49 C                    -0.171861
     50 H                     0.084204
     51 C                    -0.325422
     52 H                     0.082151
     53 H                     0.085847
     54 H                     0.095556
     55 H                     0.131805
     56 C                     0.253649
     57 C                    -0.122442
     58 N                    -0.480667
     59 C                    -0.092596
     60 C                     0.103009
     61 C                     0.037000
     62 C                     0.015794
     63 C                     0.057640
     64 C                     0.178649
     65 N                    -0.512703
     66 N                    -0.516330
     67 C                     0.171497
     68 C                     0.301052
     69 S                     0.602121
     70 N                    -0.502949
     71 C                    -0.221758
     72 S                     0.368894
     73 C                    -0.147056
     74 C                    -0.236801
     75 S                     0.307963
     76 C                     0.173109
     77 C                     0.056481
     78 C                    -0.307305
     79 C                    -0.098093
     80 N                    -0.446380
     81 S                     0.268900
     82 C                     0.138286
     83 C                    -0.309030
     84 C                    -0.211087
     85 H                     0.086113
     86 H                     0.102587
     87 H                     0.117298
     88 H                     0.113032
     89 H                     0.136600
     90 H                     0.113875
     91 H                     0.131840
     92 H                     0.135239
     93 H                     0.125687
     94 C                    -0.186413
     95 H                     0.124499
     96 H                     0.101691
     97 H                     0.102269
     98 C                    -0.178118
     99 H                     0.100778
    100 C                    -0.181736
    101 H                     0.100926
    102 H                     0.088499
    103 H                     0.092457
    104 C                    -0.185233
    105 H                     0.089586
    106 C                    -0.315098
    107 H                     0.086406
    108 H                     0.101977
    109 H                     0.100461
    110 H                     0.103824
  ----------------------------------------
  Sum of atomic charges =     0.000000

                    Cartesian Multipole Moments
 -----------------------------------------------------------------
    Charge (ESU x 10^10)
                 0.0000
    Dipole Moment (Debye)
         X      -0.0511      Y       0.2578      Z      -3.5642
       Tot       3.5739
    Quadrupole Moments (Debye-Ang)
        XX    -388.9164     XY     -27.0741     YY    -436.4235
        XZ       5.9640     YZ       8.9458     ZZ    -446.0970

 Total job time:  98.08s(wall), 1185.11s(cpu)
        *  Thank you very much for using Q-Chem.  Have a nice day.  *
