 Q-Chem 4.4, Q-Chem, Inc., Pleasanton, CA (2016)
 Q-Chem 4.4.2 for Intel X86 Linux

User input:
--------------------------------------------------------------
$comment
SP
$end

$rem
MEM_STATIC 5000
MEM_TOTAL 20000
JOBTYPE SP
EXCHANGE B3LYP
BASIS 6-31g(d,p)
$end

$molecule
0 1
C         -26.751000     -1.295000     -4.803000
C         -25.966000     -2.361000     -4.299000
N         -26.258000     -0.297000     -5.490000
C         -24.606000     -2.454000     -4.618000
C         -24.910000     -0.309000     -5.667000
C         -24.008000     -1.339000     -5.321000
C         -22.583000     -1.208000     -5.452000
C         -21.950000      0.031000     -5.277000
C         -21.686000     -2.254000     -5.787000
N         -20.654000      0.251000     -5.435000
N         -22.069000     -3.505000     -5.992000
C         -20.328000     -2.052000     -5.904000
C         -19.803000     -0.732000     -5.713000
S         -20.678000     -4.365000     -6.328000
N         -19.589000     -3.162000     -6.164000
C         -18.382000     -0.353000     -5.833000
S         -17.032000     -1.432000     -6.158000
C         -17.955000      0.923000     -5.893000
C         -15.827000     -0.121000     -5.961000
S         -18.780000      2.394000     -6.003000
C         -16.571000      1.054000     -5.965000
C         -14.419000     -0.383000     -6.050000
C         -17.218000      3.309000     -5.958000
C         -16.131000      2.442000     -6.117000
N         -13.675000      0.725000     -6.182000
S         -13.665000     -1.943000     -6.336000
C         -12.337000      0.298000     -6.341000
C         -12.228000     -1.035000     -6.468000
C         -28.344000     -1.462000     -4.805000
H         -26.513000     -3.107000     -3.731000
H         -24.065000     -3.306000     -4.216000
H         -24.627000      0.627000     -6.146000
H         -22.452000      0.972000     -5.055000
H         -17.211000      4.371000     -5.752000
H         -15.098000      2.763000     -6.046000
H         -11.527000      1.009000     -6.436000
H         -11.306000     -1.600000     -6.511000
H         -28.792000     -0.713000     -5.470000
C         -29.060000     -1.237000     -3.481000
H         -28.636000     -2.477000     -5.101000
H         -28.650000     -0.339000     -3.003000
H         -28.881000     -2.012000     -2.725000
C         -30.617000     -1.030000     -3.679000
H         -31.110000     -0.555000     -2.821000
C         -31.346000     -2.349000     -3.905000
H         -30.772000     -0.355000     -4.531000
H         -30.942000     -2.808000     -4.816000
H         -32.394000     -2.065000     -4.064000
C         -31.266000     -3.272000     -2.674000
H         -30.292000     -3.718000     -2.437000
C         -32.122000     -4.529000     -2.839000
H         -31.452000     -2.653000     -1.788000
H         -32.470000     -5.036000     -1.931000
H         -31.690000     -5.288000     -3.504000
H         -33.051000     -4.278000     -3.364000
C         -30.857000     -4.307000      0.915000
C         -30.199000     -5.236000      0.103000
N         -30.216000     -3.195000      1.311000
C         -28.921000     -4.977000     -0.430000
C         -28.950000     -2.985000      0.925000
C         -28.229000     -3.867000      0.016000
C         -26.855000     -3.685000     -0.531000
C         -25.913000     -4.781000     -0.726000
C         -26.199000     -2.407000     -0.713000
N         -24.678000     -4.640000     -1.185000
N         -26.918000     -1.299000     -0.539000
C         -24.951000     -2.315000     -1.341000
C         -24.146000     -3.438000     -1.532000
S         -25.853000     -0.217000     -1.196000
N         -24.532000     -1.033000     -1.457000
C         -22.734000     -3.351000     -1.928000
S         -21.844000     -1.953000     -2.487000
C         -21.825000     -4.460000     -2.006000
C         -20.257000     -2.764000     -2.446000
S         -22.087000     -6.183000     -1.741000
C         -20.482000     -4.126000     -2.147000
C         -18.931000     -2.178000     -2.679000
C         -20.371000     -6.426000     -1.796000
C         -19.649000     -5.226000     -1.994000
N         -18.902000     -0.815000     -2.665000
S         -17.338000     -2.916000     -3.037000
C         -17.582000     -0.286000     -2.698000
C         -16.676000     -1.258000     -2.890000
C         -32.276000     -4.408000      1.556000
H         -30.778000     -6.066000     -0.291000
H         -28.458000     -5.734000     -1.055000
H         -28.425000     -2.113000      1.312000
H         -26.299000     -5.759000     -0.442000
H         -19.997000     -7.438000     -1.712000
H         -18.567000     -5.213000     -1.929000
H         -17.443000      0.783000     -2.604000
H         -15.651000     -1.178000     -3.226000
H         -32.124000     -4.328000      2.639000
C         -32.989000     -5.662000      1.159000
H         -32.812000     -3.488000      1.294000
H         -32.334000     -6.537000      1.067000
H         -33.342000     -5.510000      0.131000
C         -34.113000     -5.933000      2.186000
H         -33.805000     -5.947000      3.239000
C         -34.678000     -7.348000      1.866000
H         -34.948000     -5.227000      2.105000
H         -33.879000     -8.087000      1.731000
H         -35.172000     -7.356000      0.887000
C         -35.602000     -7.894000      2.973000
H         -36.349000     -7.166000      3.312000
C         -34.969000     -8.550000      4.198000
H         -36.190000     -8.707000      2.530000
H         -34.143000     -7.896000      4.504000
H         -34.544000     -9.517000      3.904000
H         -35.704000     -8.749000      4.988000
$end

--------------------------------------------------------------

             Standard Nuclear Orientation (Angstroms)
    I     Atom           X                Y                Z
 ----------------------------------------------------------------
    1      C      -2.2361793948    -3.1494921678     1.1130170489
    2      C      -1.9718096694    -1.7654881714     1.2587516921
    3      N      -1.3001100172    -4.0537977770     0.9825276418
    4      C      -0.6563751243    -1.3032028695     1.3849826605
    5      C      -0.0243994400    -3.5846781043     0.9498740679
    6      C       0.4096271720    -2.2611124158     1.1822848427
    7      C       1.7750076612    -1.8448453712     1.0167406877
    8      C       2.5987948992    -2.4314632132     0.0453040742
    9      C       2.4371569084    -0.8607253511     1.7939254536
   10      N       3.8795585567    -2.1489429040    -0.1358222038
   11      N       1.8465111710    -0.1782769868     2.7630058646
   12      C       3.7551088439    -0.5182413096     1.5832969250
   13      C       4.4962763413    -1.2019188929     0.5645910288
   14      S       3.0020739865     0.8668353763     3.3628322794
   15      N       4.2323513362     0.4880996241     2.3613319684
   16      C       5.9168758539    -0.9688159632     0.2407978092
   17      S       6.9762656683     0.2304727657     0.9700205226
   18      C       6.6456689959    -1.7881446001    -0.5412930685
   19      C       8.3271052376    -0.1654328602    -0.1381519340
   20      S       6.3105641399    -3.2919692340    -1.2361183746
   21      C       7.9535217272    -1.3583554707    -0.7476993122
   22      C       9.5632515933     0.5620514800    -0.0964659425
   23      C       7.9365529546    -3.3211058529    -2.0326140945
   24      C       8.7543234087    -2.3041145899    -1.5271249696
   25      N      10.5608719657    -0.0378802476    -0.7623935023
   26      S       9.9493884416     1.9008108093     0.9724277812
   27      C      11.7164524393     0.7496052344    -0.5565916931
   28      C      11.5222513203     1.7350392346     0.3356553337
   29      C      -3.7161328160    -3.6754998593     1.4270166979
   30      H      -2.8516176614    -1.1345133325     1.3372223868
   31      H      -0.5228200375    -0.2327741642     1.5135689185
   32      H       0.6340893372    -4.4212700425     0.7215487316
   33      H       2.3060714378    -3.2328984038    -0.6320315962
   34      H       8.1395796663    -4.0140584891    -2.8381734023
   35      H       9.7435295069    -2.0877855266    -1.9142218975
   36      H      12.6605137792     0.4952640024    -1.0199541043
   37      H      12.2270098345     2.5161979745     0.5891596922
   38      H      -3.7003267794    -4.7651511497     1.5548456247
   39      C      -4.7659808195    -3.4584728391     0.3467503224
   40      H      -4.1333575874    -3.1806792157     2.3125566579
   41      H      -4.3350157533    -3.7233661325    -0.6264344776
   42      H      -5.0628857061    -2.4124327763     0.1989339658
   43      C      -6.0508211646    -4.3526232699     0.5833561016
   44      H      -6.6741867470    -4.4722887913    -0.3121513041
   45      C      -6.9637811938    -3.7710319199     1.6559853418
   46      H      -5.7241437509    -5.3626471583     0.8638692246
   47      H      -6.3983192412    -3.7270131372     2.5952047661
   48      H      -7.7831025022    -4.4952663302     1.7478445407
   49      C      -7.5525570721    -2.4099877682     1.2381435267
   50      H      -6.8680926938    -1.5536999525     1.1929695130
   51      C      -8.5857333290    -1.8957877792     2.2422128438
   52      H      -7.8720572665    -2.4985022910     0.1927546971
   53      H      -9.3436327778    -1.1893856261     1.8827668486
   54      H      -8.1562755171    -1.4876621934     3.1662958996
   55      H      -9.1787338804    -2.7343085833     2.6254884719
   56      C      -8.6920623242     0.3801284486    -1.0060058170
   57      C      -8.0503883105     0.9334820521     0.1063804691
   58      N      -7.9699440682     0.0060450245    -2.0750464225
   59      C      -6.6456953059     0.9867676282     0.1983163708
   60      C      -6.6395555867     0.1668465169    -2.0672126348
   61      C      -5.8954073611     0.6606953746    -0.9155170482
   62      C      -4.4186150051     0.8041439949    -0.7787112349
   63      C      -3.7771198333     1.9162369601    -0.0870912660
   64      C      -3.4401318098     0.0142844746    -1.4966503512
   65      N      -2.4667849446     2.0789838221     0.0239174652
   66      N      -3.8699307640    -1.0265072439    -2.2086380320
   67      C      -2.0717018012     0.1325981455    -1.2250749717
   68      C      -1.5621272245     1.2111329824    -0.5020733421
   69      S      -2.4065577894    -1.7450519952    -2.4894065803
   70      N      -1.3291540790    -0.7232666030    -1.9657904451
   71      C      -0.1275015413     1.5193019319    -0.4312916523
   72      S       1.2236223961     0.5410342857    -0.9570687136
   73      C       0.4402477381     2.6877626099     0.1807593257
   74      C       2.4375244989     1.8227354901    -0.7087650543
   75      S      -0.3237285459     4.0170923774     1.0507136963
   76      C       1.7863440997     2.9121749934    -0.0889621370
   77      C       3.8639089821     1.8027941035    -1.0566021529
   78      C       1.1835212674     4.8735574443     1.0133561085
   79      C       2.2074566648     4.1613290321     0.3464415780
   80      N       4.2295742582     0.7931256856    -1.8966405995
   81      S       5.2403429149     2.8270914010    -0.5401704777
   82      C       5.5666310322     0.9163888936    -2.3661247468
   83      C       6.2059030296     1.9217218305    -1.7471570583
   84      C     -10.2216949416     0.2053950497    -1.2596498493
   85      H      -8.6459728214     1.1210943682     0.9948947961
   86      H      -6.2016415211     1.4265800694     1.0856856585
   87      H      -6.0796887798    -0.0781255276    -2.9684983031
   88      H      -4.4714552794     2.6423632729     0.3333547666
   89      H       1.2363756776     5.8333024212     1.5105200558
   90      H       3.1651821892     4.6270627209     0.1440262848
   91      H       5.9295457798     0.2146218812    -3.1055393438
   92      H       7.2684514819     2.1078070191    -1.6678848115
   93      H     -10.4406237758     0.7629129524    -2.1781469662
   94      C     -11.0443551700     0.6567130139    -0.0943017280
   95      H     -10.3822124061    -0.8424665834    -1.5399356704
   96      H     -10.6419818259     1.5375770804     0.4207596163
   97      H     -10.9674300085    -0.1298224872     0.6672371253
   98      C     -12.4847082408     0.9289332093    -0.5870746944
   99      H     -12.5760925820     1.6057543323    -1.4458127624
  100      C     -13.2411621239     1.6017629129     0.5956880514
  101      H     -13.0321891943     0.0132768630    -0.8401755856
  102      H     -12.6594554887     2.4167655037     1.0430527433
  103      H     -13.3490098666     0.9035076739     1.4343473897
  104      C     -14.5981967983     2.2043254509     0.1800965692
  105      H     -15.2066267871     1.5235656071    -0.4275982422
  106      C     -14.6180815423     3.5867743763    -0.4680465984
  107      H     -15.1805835398     2.3502831725     1.0979658555
  108      H     -13.8133392223     3.5877785390    -1.2137119322
  109      H     -14.3764332245     4.3394153559     0.2917478780
  110      H     -15.6066141138     3.8420043695    -0.8700254606
 ----------------------------------------------------------------

   10   -5663.4757331907      4.39E-06 Convergence criterion met
 Total energy in the final basis set = -5663.4757331907

                    Orbital Energies (a.u.)
 --------------------------------------------------------------

 Alpha MOs
 -- Occupied --
-88.984 -88.982 -88.937 -88.929 -88.927 -88.917 -88.914 -88.904
-14.388 -14.387 -14.383 -14.377 -14.350 -14.349 -14.340 -14.340
-14.328 -14.328 -10.275 -10.274 -10.263 -10.258 -10.253 -10.251
-10.250 -10.249 -10.248 -10.247 -10.244 -10.240 -10.235 -10.234
-10.233 -10.232 -10.231 -10.230 -10.229 -10.229 -10.229 -10.228
-10.227 -10.226 -10.226 -10.226 -10.219 -10.218 -10.218 -10.217
-10.213 -10.211 -10.210 -10.210 -10.204 -10.199 -10.199 -10.197
-10.186 -10.184 -10.184 -10.183 -10.178 -10.174 -10.174 -10.174
-10.174 -10.174 -10.173 -10.170  -8.040  -8.039  -7.998  -7.986
 -7.986  -7.976  -7.974  -7.964  -6.005  -6.003  -5.999  -5.998
 -5.997  -5.997  -5.962  -5.959  -5.955  -5.950  -5.950  -5.947
 -5.947  -5.943  -5.943  -5.940  -5.938  -5.937  -5.935  -5.933
 -5.931  -5.929  -5.925  -5.920  -1.053  -1.034  -0.969  -0.962
 -0.957  -0.944  -0.943  -0.939  -0.921  -0.914  -0.911  -0.902
 -0.848  -0.839  -0.833  -0.829  -0.820  -0.811  -0.808  -0.805
 -0.803  -0.796  -0.794  -0.787  -0.782  -0.780  -0.767  -0.765
 -0.750  -0.749  -0.744  -0.737  -0.722  -0.719  -0.711  -0.709
 -0.695  -0.694  -0.676  -0.672  -0.652  -0.651  -0.645  -0.641
 -0.636  -0.631  -0.627  -0.623  -0.612  -0.611  -0.600  -0.597
 -0.592  -0.591  -0.589  -0.586  -0.580  -0.578  -0.567  -0.553
 -0.551  -0.543  -0.541  -0.539  -0.525  -0.522  -0.516  -0.513
 -0.509  -0.505  -0.502  -0.497  -0.487  -0.486  -0.481  -0.476
 -0.475  -0.472  -0.471  -0.466  -0.464  -0.455  -0.451  -0.449
 -0.446  -0.445  -0.440  -0.439  -0.436  -0.434  -0.431  -0.428
 -0.427  -0.424  -0.423  -0.420  -0.419  -0.418  -0.414  -0.414
 -0.409  -0.407  -0.405  -0.403  -0.402  -0.400  -0.398  -0.394
 -0.394  -0.393  -0.392  -0.391  -0.389  -0.387  -0.386  -0.384
 -0.380  -0.377  -0.376  -0.369  -0.366  -0.360  -0.359  -0.357
 -0.354  -0.352  -0.352  -0.350  -0.346  -0.345  -0.344  -0.341
 -0.337  -0.335  -0.335  -0.331  -0.330  -0.325  -0.323  -0.322
 -0.321  -0.313  -0.308  -0.308  -0.306  -0.303  -0.299  -0.298
 -0.295  -0.294  -0.292  -0.291  -0.287  -0.284  -0.282  -0.271
 -0.271  -0.269  -0.266  -0.265  -0.257  -0.254  -0.249  -0.248
 -0.244  -0.234  -0.231  -0.230  -0.194  -0.191

          Ground-State Mulliken Net Atomic Charges

     Atom                 Charge (a.u.)
  ----------------------------------------
      1 C                     0.267745
      2 C                    -0.132551
      3 N                    -0.474190
      4 C                    -0.063193
      5 C                     0.050672
      6 C                     0.045337
      7 C                     0.036837
      8 C                     0.055357
      9 C                     0.269151
     10 N                    -0.527783
     11 N                    -0.576890
     12 C                     0.202739
     13 C                     0.341458
     14 S                     0.592895
     15 N                    -0.566735
     16 C                    -0.209126
     17 S                     0.291858
     18 C                    -0.082134
     19 C                    -0.237070
     20 S                     0.270734
     21 C                     0.134983
     22 C                     0.056659
     23 C                    -0.312777
     24 C                    -0.055910
     25 N                    -0.445174
     26 S                     0.287110
     27 C                     0.125540
     28 C                    -0.299567
     29 C                    -0.223625
     30 H                     0.095298
     31 H                     0.132250
     32 H                     0.102366
     33 H                     0.115173
     34 H                     0.132503
     35 H                     0.127952
     36 H                     0.119144
     37 H                     0.129603
     38 H                     0.116561
     39 C                    -0.192585
     40 H                     0.107877
     41 H                     0.093664
     42 H                     0.104467
     43 C                    -0.191132
     44 H                     0.091886
     45 C                    -0.170447
     46 H                     0.087019
     47 H                     0.090604
     48 H                     0.091883
     49 C                    -0.170725
     50 H                     0.102349
     51 C                    -0.336414
     52 H                     0.101853
     53 H                     0.098817
     54 H                     0.099838
     55 H                     0.095204
     56 C                     0.257718
     57 C                    -0.117906
     58 N                    -0.483636
     59 C                    -0.105295
     60 C                     0.102577
     61 C                     0.042426
     62 C                     0.000351
     63 C                     0.074990
     64 C                     0.187541
     65 N                    -0.525765
     66 N                    -0.525430
     67 C                     0.184177
     68 C                     0.294794
     69 S                     0.606155
     70 N                    -0.501682
     71 C                    -0.234040
     72 S                     0.381951
     73 C                    -0.154110
     74 C                    -0.241110
     75 S                     0.297218
     76 C                     0.173472
     77 C                     0.043992
     78 C                    -0.312943
     79 C                    -0.099361
     80 N                    -0.434197
     81 S                     0.263597
     82 C                     0.135201
     83 C                    -0.301188
     84 C                    -0.211346
     85 H                     0.087918
     86 H                     0.101598
     87 H                     0.119511
     88 H                     0.106984
     89 H                     0.133453
     90 H                     0.114034
     91 H                     0.134498
     92 H                     0.135369
     93 H                     0.124550
     94 C                    -0.193461
     95 H                     0.125271
     96 H                     0.099296
     97 H                     0.110135
     98 C                    -0.178537
     99 H                     0.100518
    100 C                    -0.181189
    101 H                     0.101410
    102 H                     0.086824
    103 H                     0.092660
    104 C                    -0.185759
    105 H                     0.089135
    106 C                    -0.312851
    107 H                     0.086687
    108 H                     0.099642
    109 H                     0.101671
    110 H                     0.105122
  ----------------------------------------
  Sum of atomic charges =     0.000000

                    Cartesian Multipole Moments
 -----------------------------------------------------------------
    Charge (ESU x 10^10)
                 0.0000
    Dipole Moment (Debye)
         X       2.6244      Y       3.9430      Z       1.7476
       Tot       5.0487
    Quadrupole Moments (Debye-Ang)
        XX    -374.6761     XY      14.0720     YY    -441.3796
        XZ     -15.1733     YZ      13.7186     ZZ    -447.9888

 Total job time:  113.46s(wall), 1358.29s(cpu)
        *  Thank you very much for using Q-Chem.  Have a nice day.  *
