 Q-Chem 4.4, Q-Chem, Inc., Pleasanton, CA (2016)
 Q-Chem 4.4.2 for Intel X86 Linux

User input:
--------------------------------------------------------------
$comment
SP
$end

$rem
MEM_STATIC 5000
MEM_TOTAL 20000
JOBTYPE SP
EXCHANGE B3LYP
BASIS 6-31g(d,p)
$end

$molecule
0 1
C         -26.429000     20.639000     -4.690000
C         -26.106000     19.316000     -5.079000
N         -27.093000     21.491000     -5.454000
C         -26.258000     19.001000     -6.424000
C         -27.317000     21.069000     -6.743000
C         -26.952000     19.819000     -7.295000
C         -26.954000     19.559000     -8.842000
C         -25.971000     18.662000     -9.392000
C         -27.874000     20.193000     -9.765000
N         -25.903000     18.385000    -10.721000
N         -28.977000     20.878000     -9.399000
C         -27.691000     19.876000    -11.082000
C         -26.692000     19.017000    -11.583000
S         -29.735000     21.212000    -10.813000
N         -28.764000     20.372000    -11.797000
C         -26.523000     18.582000    -13.036000
S         -25.741000     17.101000    -13.576000
C         -26.935000     19.289000    -14.155000
C         -26.010000     17.513000    -15.294000
S         -27.271000     21.044000    -14.253000
C         -26.687000     18.658000    -15.353000
C         -25.377000     16.833000    -16.395000
C         -27.287000     20.803000    -15.999000
C         -26.932000     19.556000    -16.460000
N         -25.115000     17.546000    -17.513000
S         -24.525000     15.328000    -16.304000
C         -24.248000     16.841000    -18.315000
C         -23.759000     15.638000    -17.776000
C         -25.860000     21.174000     -3.417000
H         -25.658000     18.608000     -4.387000
H         -26.079000     17.987000     -6.768000
H         -27.752000     21.849000     -7.366000
H         -25.263000     18.226000     -8.688000
H         -27.588000     21.631000    -16.627000
H         -26.811000     19.262000    -17.496000
H         -24.023000     17.338000    -19.249000
H         -23.097000     14.923000    -18.247000
H         -26.403000     22.038000     -3.015000
C         -24.423000     21.572000     -3.698000
H         -25.864000     20.362000     -2.679000
H         -24.453000     22.330000     -4.490000
H         -23.928000     20.671000     -4.082000
C         -23.775000     22.267000     -2.583000
H         -24.373000     23.166000     -2.391000
C         -22.327000     22.572000     -2.900000
H         -23.849000     21.671000     -1.665000
H         -22.279000     23.201000     -3.797000
H         -21.814000     21.628000     -3.125000
C         -21.716000     23.278000     -1.664000
H         -22.339000     24.133000     -1.374000
C         -20.272000     23.697000     -2.121000
H         -21.646000     22.488000     -0.907000
H         -19.732000     23.013000     -2.787000
H         -19.691000     23.790000     -1.195000
H         -20.232000     24.688000     -2.589000
C         -23.932000     23.166000     -8.196000
C         -22.765000     23.297000     -7.481000
N         -24.221000     22.097000     -8.888000
C         -21.754000     22.307000     -7.674000
C         -23.333000     21.046000     -8.869000
C         -22.037000     21.117000     -8.383000
C         -20.989000     20.043000     -8.777000
C         -19.559000     20.446000     -8.841000
C         -21.252000     18.712000     -9.052000
N         -18.567000     19.625000     -9.154000
N         -22.485000     18.114000     -8.909000
C         -20.233000     17.859000     -9.337000
C         -18.922000     18.372000     -9.515000
S         -22.148000     16.533000     -9.024000
N         -20.543000     16.538000     -9.297000
C         -17.816000     17.581000    -10.011000
S         -16.096000     17.893000     -9.708000
C         -17.936000     16.684000    -11.037000
C         -15.611000     16.482000    -10.697000
S         -19.279000     16.396000    -12.063000
C         -16.729000     16.073000    -11.381000
C         -14.310000     16.211000    -11.218000
C         -18.202000     15.306000    -13.037000
C         -16.916000     15.219000    -12.532000
N         -13.405000     17.112000    -11.085000
S         -13.741000     14.660000    -11.696000
C         -12.233000     16.751000    -11.685000
C         -12.181000     15.442000    -12.049000
C         -25.088000     24.154000     -8.131000
H         -22.710000     24.173000     -6.842000
H         -20.765000     22.511000     -7.274000
H         -23.743000     20.185000     -9.397000
H         -19.306000     21.493000     -8.679000
H         -18.656000     14.825000    -13.894000
H         -16.081000     14.733000    -13.024000
H         -11.371000     17.406000    -11.680000
H         -11.368000     14.947000    -12.563000
H         -25.492000     24.065000     -7.115000
C         -26.226000     23.959000     -9.235000
H         -24.642000     25.154000     -8.199000
H         -26.759000     23.016000     -9.061000
H         -25.895000     24.062000    -10.276000
C         -27.220000     25.128000     -9.073000
H         -26.645000     26.051000     -8.932000
C         -28.156000     25.052000     -7.838000
H         -27.794000     25.205000    -10.005000
H         -27.556000     25.161000     -6.926000
H         -28.764000     24.140000     -7.808000
C         -29.166000     26.305000     -7.950000
H         -28.694000     27.292000     -8.026000
C         -30.110000     26.367000     -6.759000
H         -29.743000     26.246000     -8.882000
H         -29.572000     26.333000     -5.803000
H         -30.690000     25.436000     -6.792000
H         -30.763000     27.248000     -6.748000
$end

--------------------------------------------------------------

             Standard Nuclear Orientation (Angstroms)
    I     Atom           X                Y                Z
 ----------------------------------------------------------------
    1      C      -4.8706337890    -3.4619144588    -2.4798775871
    2      C      -3.8555564352    -2.9229914501    -3.3076208785
    3      N      -5.6100516652    -2.7392757018    -1.6543169101
    4      C      -3.4429702689    -1.6247205655    -3.0326311232
    5      C      -5.2218424785    -1.4276880588    -1.5171583082
    6      C      -4.1601072830    -0.7883406270    -2.1986142760
    7      C      -3.5915125923     0.5996982156    -1.7394179681
    8      C      -2.1879052630     0.8645437477    -1.9214655146
    9      C      -4.3925361232     1.6313601873    -1.1114690218
   10      N      -1.6159102779     2.0398757605    -1.5486245341
   11      N      -5.7407592357     1.6339284087    -1.0658856574
   12      C      -3.7095059315     2.7553115184    -0.7390845934
   13      C      -2.3250021268     2.9610629619    -0.9055134319
   14      S      -6.1221127522     3.0908842338    -0.4198475633
   15      N      -4.6308827939     3.7156034016    -0.3683094911
   16      C      -1.5577381199     4.2386688698    -0.5768432507
   17      S      -0.0430192336     4.7414938536    -1.3179766604
   18      C      -1.9165270175     5.1888125394     0.3666881659
   19      C       0.0308108719     6.2161552110    -0.3112234650
   20      S      -3.0096786165     4.9552550443     1.7641843119
   21      C      -1.0630778116     6.2659213479     0.4462498875
   22      C       1.1988401426     7.0501790078    -0.1871189555
   23      C      -2.4045193273     6.5140403543     2.3216998651
   24      C      -1.3787079270     7.0795808743     1.5995988396
   25      N       1.3952837677     7.6940600027     0.9849579048
   26      S       2.6014236106     6.9903731297    -1.2012160279
   27      C       2.6831094412     8.1745929713     1.0350687911
   28      C       3.5109148963     7.8161885283    -0.0434187534
   29      C      -5.0226857309    -4.9455487063    -2.4009812849
   30      H      -3.3435330339    -3.5253775555    -4.0531374890
   31      H      -2.7085747363    -1.1417055266    -3.6697595828
   32      H      -5.7775441196    -0.9091558512    -0.7373672876
   33      H      -1.5945808071     0.0621307344    -2.3585872896
   34      H      -2.8708200203     6.9636169800     3.1883102281
   35      H      -0.8389886419     7.9859840383     1.8476097217
   36      H       2.8996802460     8.7360810649     1.9338558667
   37      H       4.5384122471     8.1098506263    -0.2146547491
   38      H      -6.0032986724    -5.2738513634    -2.0355163423
   39      C      -3.9424227228    -5.4601729837    -1.4679605528
   40      H      -4.8484277320    -5.3556138136    -3.4037199137
   41      H      -4.1033651809    -4.9743700862    -0.4980012392
   42      H      -2.9889868318    -5.1156894837    -1.8881665974
   43      C      -4.0603914731    -6.8875439225    -1.1599839675
   44      H      -5.0429265370    -7.0215204683    -0.6916420695
   45      C      -2.9159797059    -7.3516359395    -0.2852506900
   46      H      -4.0997006345    -7.4770398228    -2.0843028374
   47      H      -2.9201080872    -6.7771173255     0.6488078300
   48      H      -1.9727508049    -7.1392233347    -0.8049911307
   49      C      -3.1047208507    -8.8683328923    -0.0333377415
   50      H      -4.1150464319    -9.0627712139     0.3470435924
   51      C      -1.9780770658    -9.2418018147     0.9965849477
   52      H      -2.8851918805    -9.3338108507    -1.0014215713
   53      H      -1.0104076674    -8.7353221814     0.8960547703
   54      H      -1.8079806217   -10.3172817031     0.8620627958
   55      H      -2.2862197689    -9.1257324732     2.0426638083
   56      C      -3.0063678564    -2.2756152783     1.9956090666
   57      C      -2.3082844010    -3.4456523687     2.1799123393
   58      N      -2.5331019118    -1.2705389546     1.3093241920
   59      C      -0.9395842760    -3.4726941000     1.7732199342
   60      C      -1.2980379383    -1.4064353572     0.7180077377
   61      C      -0.3983324661    -2.4235414582     0.9952769977
   62      C       1.0992357809    -2.2736263749     0.6186726783
   63      C       2.1088258013    -2.9712702886     1.4585690769
   64      C       1.5998412178    -1.5655300763    -0.4603772874
   65      N       3.4151542624    -2.9326455025     1.2392791371
   66      N       0.8243863384    -0.9719228782    -1.4323043549
   67      C       2.9358488233    -1.5543838141    -0.7096852070
   68      C       3.8268307220    -2.1306467247     0.2324646294
   69      S       1.8961080503    -0.6038314685    -2.5908708340
   70      N       3.3020268733    -1.0960878747    -1.9338663486
   71      C       5.2658806037    -1.9955373356     0.1562157533
   72      S       6.4537883053    -3.1122183255     0.8558241146
   73      C       5.8926982442    -0.8280525546    -0.1840252373
   74      C       7.8180840435    -2.1117476931     0.2709970867
   75      S       5.2137468766     0.7281370184    -0.4218656316
   76      C       7.2852058295    -0.9159927997    -0.1428531809
   77      C       9.1761113462    -2.1820518034     0.7049350744
   78      C       6.9100022412     1.3632942415    -0.5483489900
   79      C       7.8718462182     0.3766887584    -0.4147234508
   80      N       9.4548219078    -2.9437916686     1.7002178486
   81      S      10.5301363131    -1.6173412700    -0.1925973219
   82      C      10.7719475397    -2.8646312603     2.0506728381
   83      C      11.5485820908    -2.2285856871     1.1336309618
   84      C      -4.4573886283    -2.0736499444     2.4084694828
   85      H      -2.8674538600    -4.2485863167     2.6503893221
   86      H      -0.3333517388    -4.3136672349     2.0972311952
   87      H      -1.0721432379    -0.5420369692     0.0935143340
   88      H       1.7688826913    -3.5027936064     2.3464787821
   89      H       7.0116306082     2.4263285660    -0.7259882306
   90      H       8.9387208055     0.5491276294    -0.3279568060
   91      H      11.1700457638    -3.4322901308     2.8821625919
   92      H      12.6078864817    -2.0250881349     1.2151966016
   93      H      -5.0418436925    -2.7332136010     1.7551846591
   94      C      -4.9887155359    -0.5682508293     2.3505883843
   95      H      -4.5486428410    -2.4837091051     3.4219112193
   96      H      -5.0274354150    -0.2244823811     1.3094649406
   97      H      -4.4642677631     0.1417757106     3.0022538247
   98      C      -6.4203871517    -0.5702492605     2.9260476710
   99      H      -6.4279489071    -1.1959269733     3.8265504304
  100      C      -7.5148910661    -1.1800250662     2.0109893952
  101      H      -6.6646141734     0.4618055665     3.2075525482
  102      H      -7.3327082608    -2.2564152465     1.9022759868
  103      H      -7.5891821843    -0.6880662979     1.0338684201
  104      C      -8.9212853291    -0.9638420477     2.7712348027
  105      H      -8.9824512996    -1.3753361879     3.7859565856
  106      C     -10.0760366068    -1.5693710284     1.9880712565
  107      H      -9.1026719478     0.1058694953     2.9381183228
  108      H      -9.8891990699    -2.6171204260     1.7200247409
  109      H     -10.0998665945    -1.0312981844     1.0319542416
  110      H     -11.0433846910    -1.5195755523     2.5023173986
 ----------------------------------------------------------------

   10   -5663.4745316005      3.75E-06 Convergence criterion met
 Total energy in the final basis set = -5663.4745316005

                    Orbital Energies (a.u.)
 --------------------------------------------------------------

 Alpha MOs
 -- Occupied --
-88.994 -88.991 -88.928 -88.925 -88.920 -88.919 -88.911 -88.902
-14.391 -14.386 -14.380 -14.379 -14.352 -14.349 -14.341 -14.333
-14.329 -14.319 -10.266 -10.265 -10.262 -10.259 -10.255 -10.254
-10.254 -10.253 -10.245 -10.239 -10.238 -10.236 -10.234 -10.234
-10.233 -10.233 -10.232 -10.230 -10.229 -10.227 -10.226 -10.225
-10.224 -10.223 -10.223 -10.220 -10.219 -10.217 -10.217 -10.217
-10.214 -10.209 -10.208 -10.205 -10.198 -10.198 -10.196 -10.189
-10.184 -10.183 -10.178 -10.177 -10.176 -10.175 -10.174 -10.173
-10.172 -10.170 -10.169 -10.164  -8.050  -8.046  -7.990  -7.986
 -7.978  -7.978  -7.971  -7.962  -6.014  -6.011  -6.009  -6.008
 -6.005  -6.004  -5.954  -5.950  -5.950  -5.947  -5.947  -5.943
 -5.943  -5.943  -5.939  -5.939  -5.936  -5.935  -5.935  -5.932
 -5.927  -5.927  -5.924  -5.918  -1.045  -1.036  -0.980  -0.964
 -0.964  -0.956  -0.940  -0.939  -0.916  -0.910  -0.906  -0.892
 -0.841  -0.836  -0.834  -0.828  -0.819  -0.814  -0.814  -0.809
 -0.804  -0.800  -0.793  -0.792  -0.785  -0.776  -0.764  -0.763
 -0.750  -0.747  -0.742  -0.737  -0.720  -0.717  -0.707  -0.707
 -0.690  -0.688  -0.676  -0.671  -0.654  -0.650  -0.648  -0.645
 -0.637  -0.630  -0.629  -0.626  -0.607  -0.602  -0.598  -0.591
 -0.591  -0.587  -0.581  -0.579  -0.578  -0.577  -0.574  -0.559
 -0.551  -0.548  -0.540  -0.540  -0.522  -0.519  -0.516  -0.512
 -0.505  -0.502  -0.500  -0.500  -0.489  -0.480  -0.478  -0.476
 -0.470  -0.469  -0.468  -0.464  -0.462  -0.453  -0.451  -0.449
 -0.446  -0.445  -0.440  -0.437  -0.436  -0.435  -0.430  -0.428
 -0.427  -0.424  -0.423  -0.419  -0.417  -0.416  -0.414  -0.413
 -0.409  -0.407  -0.404  -0.400  -0.399  -0.396  -0.396  -0.394
 -0.393  -0.392  -0.391  -0.388  -0.386  -0.384  -0.381  -0.378
 -0.374  -0.374  -0.373  -0.372  -0.364  -0.362  -0.358  -0.358
 -0.355  -0.354  -0.349  -0.345  -0.345  -0.341  -0.341  -0.338
 -0.335  -0.334  -0.333  -0.331  -0.328  -0.326  -0.320  -0.319
 -0.318  -0.316  -0.315  -0.309  -0.304  -0.301  -0.299  -0.299
 -0.296  -0.291  -0.289  -0.286  -0.284  -0.283  -0.282  -0.279
 -0.273  -0.272  -0.263  -0.261  -0.256  -0.254  -0.246  -0.245
 -0.241  -0.240  -0.232  -0.226  -0.196  -0.190

          Ground-State Mulliken Net Atomic Charges

     Atom                 Charge (a.u.)
  ----------------------------------------
      1 C                     0.270200
      2 C                    -0.115170
      3 N                    -0.476768
      4 C                    -0.098092
      5 C                     0.064916
      6 C                     0.065736
      7 C                     0.037963
      8 C                     0.060742
      9 C                     0.243930
     10 N                    -0.530105
     11 N                    -0.566030
     12 C                     0.200720
     13 C                     0.302751
     14 S                     0.619033
     15 N                    -0.536073
     16 C                    -0.222318
     17 S                     0.294447
     18 C                    -0.113401
     19 C                    -0.220580
     20 S                     0.269037
     21 C                     0.148584
     22 C                     0.030633
     23 C                    -0.305349
     24 C                    -0.034780
     25 N                    -0.422032
     26 S                     0.285914
     27 C                     0.114343
     28 C                    -0.317803
     29 C                    -0.225205
     30 H                     0.092063
     31 H                     0.093656
     32 H                     0.118529
     33 H                     0.125778
     34 H                     0.121765
     35 H                     0.124194
     36 H                     0.112287
     37 H                     0.140348
     38 H                     0.107045
     39 C                    -0.168121
     40 H                     0.091542
     41 H                     0.104897
     42 H                     0.090442
     43 C                    -0.171349
     44 H                     0.090058
     45 C                    -0.169529
     46 H                     0.082748
     47 H                     0.088697
     48 H                     0.094460
     49 C                    -0.173143
     50 H                     0.100467
     51 C                    -0.328036
     52 H                     0.101298
     53 H                     0.104606
     54 H                     0.095505
     55 H                     0.103153
     56 C                     0.286576
     57 C                    -0.110851
     58 N                    -0.488573
     59 C                    -0.111824
     60 C                     0.055659
     61 C                     0.064580
     62 C                     0.015118
     63 C                     0.071140
     64 C                     0.249227
     65 N                    -0.489144
     66 N                    -0.561631
     67 C                     0.187911
     68 C                     0.249148
     69 S                     0.628340
     70 N                    -0.520538
     71 C                    -0.212459
     72 S                     0.343070
     73 C                    -0.098901
     74 C                    -0.210569
     75 S                     0.257743
     76 C                     0.110824
     77 C                     0.065228
     78 C                    -0.303325
     79 C                    -0.060986
     80 N                    -0.420290
     81 S                     0.251067
     82 C                     0.125141
     83 C                    -0.307825
     84 C                    -0.250183
     85 H                     0.089600
     86 H                     0.098903
     87 H                     0.127171
     88 H                     0.112128
     89 H                     0.132144
     90 H                     0.114088
     91 H                     0.116225
     92 H                     0.130777
     93 H                     0.133512
     94 C                    -0.162121
     95 H                     0.096482
     96 H                     0.109547
     97 H                     0.098993
     98 C                    -0.181978
     99 H                     0.089400
    100 C                    -0.178481
    101 H                     0.079312
    102 H                     0.101308
    103 H                     0.103077
    104 C                    -0.181761
    105 H                     0.089277
    106 C                    -0.315103
    107 H                     0.089513
    108 H                     0.101268
    109 H                     0.100103
    110 H                     0.094346
  ----------------------------------------
  Sum of atomic charges =     0.000000

                    Cartesian Multipole Moments
 -----------------------------------------------------------------
    Charge (ESU x 10^10)
                 0.0000
    Dipole Moment (Debye)
         X       2.9451      Y       0.5920      Z      -0.5375
       Tot       3.0517
    Quadrupole Moments (Debye-Ang)
        XX    -408.4162     XY      23.4321     YY    -426.2854
        XZ      -7.6133     YZ       4.4107     ZZ    -437.7830

 Total job time:  97.44s(wall), 1165.27s(cpu)
        *  Thank you very much for using Q-Chem.  Have a nice day.  *
