 Q-Chem 4.4, Q-Chem, Inc., Pleasanton, CA (2016)
 Q-Chem 4.4.2 for Intel X86 Linux

User input:
--------------------------------------------------------------
$comment
SP
$end

$rem
MEM_STATIC 5000
MEM_TOTAL 20000
JOBTYPE SP
EXCHANGE B3LYP
BASIS 6-31g(d,p)
$end

$molecule
0 1
C         -26.751000     -1.295000     -4.803000
C         -25.966000     -2.361000     -4.299000
N         -26.258000     -0.297000     -5.490000
C         -24.606000     -2.454000     -4.618000
C         -24.910000     -0.309000     -5.667000
C         -24.008000     -1.339000     -5.321000
C         -22.583000     -1.208000     -5.452000
C         -21.950000      0.031000     -5.277000
C         -21.686000     -2.254000     -5.787000
N         -20.654000      0.251000     -5.435000
N         -22.069000     -3.505000     -5.992000
C         -20.328000     -2.052000     -5.904000
C         -19.803000     -0.732000     -5.713000
S         -20.678000     -4.365000     -6.328000
N         -19.589000     -3.162000     -6.164000
C         -18.382000     -0.353000     -5.833000
S         -17.032000     -1.432000     -6.158000
C         -17.955000      0.923000     -5.893000
C         -15.827000     -0.121000     -5.961000
S         -18.780000      2.394000     -6.003000
C         -16.571000      1.054000     -5.965000
C         -14.419000     -0.383000     -6.050000
C         -17.218000      3.309000     -5.958000
C         -16.131000      2.442000     -6.117000
N         -13.675000      0.725000     -6.182000
S         -13.665000     -1.943000     -6.336000
C         -12.337000      0.298000     -6.341000
C         -12.228000     -1.035000     -6.468000
C         -28.344000     -1.462000     -4.805000
H         -26.513000     -3.107000     -3.731000
H         -24.065000     -3.306000     -4.216000
H         -24.627000      0.627000     -6.146000
H         -22.452000      0.972000     -5.055000
H         -17.211000      4.371000     -5.752000
H         -15.098000      2.763000     -6.046000
H         -11.527000      1.009000     -6.436000
H         -11.306000     -1.600000     -6.511000
H         -28.792000     -0.713000     -5.470000
C         -29.060000     -1.237000     -3.481000
H         -28.636000     -2.477000     -5.101000
H         -28.650000     -0.339000     -3.003000
H         -28.881000     -2.012000     -2.725000
C         -30.617000     -1.030000     -3.679000
H         -31.110000     -0.555000     -2.821000
C         -31.346000     -2.349000     -3.905000
H         -30.772000     -0.355000     -4.531000
H         -30.942000     -2.808000     -4.816000
H         -32.394000     -2.065000     -4.064000
C         -31.266000     -3.272000     -2.674000
H         -30.292000     -3.718000     -2.437000
C         -32.122000     -4.529000     -2.839000
H         -31.452000     -2.653000     -1.788000
H         -32.470000     -5.036000     -1.931000
H         -31.690000     -5.288000     -3.504000
H         -33.051000     -4.278000     -3.364000
C         -13.833000     -4.735000    -10.399000
C         -14.141000     -4.117000     -9.239000
N         -14.760000     -4.943000    -11.332000
C         -15.422000     -3.565000     -9.003000
C         -16.045000     -4.438000    -11.156000
C         -16.443000     -3.788000     -9.974000
C         -17.841000     -3.316000     -9.759000
C         -18.075000     -2.064000     -9.238000
C         -19.029000     -4.057000    -10.105000
N         -19.286000     -1.539000     -9.019000
N         -19.021000     -5.356000    -10.508000
C         -20.283000     -3.524000     -9.958000
C         -20.440000     -2.155000     -9.370000
S         -20.538000     -5.754000    -10.832000
N         -21.244000     -4.379000    -10.255000
C         -21.732000     -1.617000     -9.104000
S         -23.345000     -2.502000     -9.075000
C         -21.894000     -0.296000     -8.890000
C         -24.137000     -0.935000     -8.766000
S         -20.789000      1.081000     -8.660000
C         -23.233000      0.064000     -8.728000
C         -25.559000     -0.775000     -8.786000
C         -22.169000      2.156000     -8.418000
C         -23.385000      1.460000     -8.363000
N         -26.016000      0.360000     -9.232000
S         -26.623000     -2.105000     -8.615000
C         -27.342000      0.311000     -9.364000
C         -27.871000     -0.949000     -9.078000
C         -12.452000     -5.289000    -10.806000
H         -13.433000     -3.961000     -8.431000
H         -15.618000     -3.072000     -8.055000
H         -16.829000     -4.857000    -11.785000
H         -17.279000     -1.369000     -8.976000
H         -22.079000      3.234000     -8.404000
H         -24.281000      1.977000     -8.041000
H         -27.989000      1.149000     -9.586000
H         -28.897000     -1.288000     -9.011000
H         -12.345000     -5.072000    -11.876000
C         -12.242000     -6.749000    -10.436000
H         -11.714000     -4.704000    -10.244000
H         -13.165000     -7.206000    -10.815000
H         -12.189000     -6.843000     -9.344000
C         -10.931000     -7.364000    -10.993000
H         -10.127000     -6.618000    -10.978000
C         -11.279000     -7.823000    -12.476000
H         -10.537000     -8.234000    -10.453000
H         -12.191000     -7.351000    -12.861000
H         -11.344000     -8.916000    -12.548000
C         -10.235000     -7.230000    -13.351000
H         -10.343000     -6.161000    -13.131000
C         -10.526000     -7.500000    -14.868000
H          -9.212000     -7.576000    -13.156000
H          -9.896000     -6.785000    -15.411000
H         -11.577000     -7.365000    -15.150000
H         -10.185000     -8.489000    -15.200000
$end

--------------------------------------------------------------

             Standard Nuclear Orientation (Angstroms)
    I     Atom           X                Y                Z
 ----------------------------------------------------------------
    1      C      -7.0706808539    -0.1144001704    -0.9894011365
    2      C      -6.2854727175     0.2063036645    -2.1239469632
    3      N      -6.5887644517    -0.6844013905     0.0847856211
    4      C      -4.8976099678     0.0236771136    -2.1017089121
    5      C      -5.2675786747    -1.0027845906     0.0438310027
    6      C      -4.3333458529    -0.6624696808    -0.9589724660
    7      C      -2.9786533025    -1.1417903356    -0.9615808747
    8      C      -2.6561926873    -2.4059032518    -0.4473117944
    9      C      -1.8504491616    -0.4230369197    -1.4322176173
   10      N      -1.4310932201    -2.9001763933    -0.3589638624
   11      N      -1.9269383251     0.7881854972    -1.9621276707
   12      C      -0.5755753811    -0.9445535306    -1.3951464939
   13      C      -0.3738771333    -2.2469280023    -0.8315468555
   14      S      -0.3671488075     1.2067125140    -2.3855291315
   15      N       0.3939302676    -0.1661897549    -1.9428960991
   16      C       0.9293093451    -2.9254562329    -0.6952147507
   17      S       2.4867325484    -2.3281401395    -1.2520023677
   18      C       1.1188897076    -4.0283152358     0.0543626675
   19      C       3.3280371573    -3.8397881299    -0.7865113278
   20      S       0.1099671238    -4.8650185446     1.1214000580
   21      C       2.4180477980    -4.5263492467     0.0101882384
   22      C       4.7253066604    -4.0279085933    -1.0534900292
   23      C       1.4020087182    -6.0965461153     1.4264612990
   24      C       2.6261764573    -5.6719382507     0.8976319241
   25      N       5.2640072759    -5.0597932999    -0.3874272699
   26      S       5.7972908688    -2.8872745053    -1.8495526738
   27      C       6.6452104060    -5.0590700168    -0.6876461738
   28      C       7.0238868376    -3.9794420189    -1.3918524975
   29      C      -8.5387092219     0.5169715509    -0.8807528031
   30      H      -6.8292748121     0.6591766986    -2.9470716785
   31      H      -4.3510879600     0.3075219376    -2.9966585257
   32      H      -5.0318792960    -1.5695985259     0.9431606227
   33      H      -3.3614343214    -3.1056237848    -0.0003281112
   34      H       1.1584609129    -7.0421718254     1.8920850558
   35      H       3.5198602105    -6.2855343698     0.8980216183
   36      H       7.3067272889    -5.8199551012    -0.2950964293
   37      H       8.0051906167    -3.8021211343    -1.8122787063
   38      H      -8.9036088318     0.4254892537     0.1499795889
   39      C      -9.6334081841    -0.1434586922    -1.7064180356
   40      H      -8.5458488724     1.5631940480    -1.2101044573
   41      H      -9.5465555964    -1.2322339268    -1.6063524739
   42      H      -9.5430620396     0.0040497249    -2.7900604310
   43      C     -11.0784461345     0.2880511247    -1.2247889254
   44      H     -11.8743137120    -0.3891188168    -1.5607556934
   45      C     -11.4621751415     1.6723026181    -1.7335893304
   46      H     -11.1006365838     0.2628365439    -0.1273255735
   47      H     -10.7376725505     2.3931672093    -1.3345050824
   48      H     -12.4534232675     1.8630052655    -1.3031237070
   49      C     -11.5749298447     1.7128445608    -3.2696012860
   50      H     -10.6466028785     1.6307092632    -3.8485864644
   51      C     -12.1068183954     3.0556226495    -3.7736365764
   52      H     -12.1159213794     0.8114957672    -3.5820937047
   53      H     -12.6041284219     3.0767184687    -4.7508032479
   54      H     -11.3727759269     3.8714824471    -3.7516264610
   55      H     -12.8749534220     3.4307205786    -3.0873879884
   56      C       7.3093133798     1.5295390503    -0.2567554672
   57      C       6.5749498500     0.5206287611    -0.7717294804
   58      N       6.7428763484     2.4824034963     0.4809981753
   59      C       5.2027610375     0.3627746627    -0.4658848359
   60      C       5.3926242211     2.3947769736     0.8071373870
   61      C       4.5615150364     1.3771982914     0.3053215357
   62      C       3.0996764661     1.3300153141     0.5955193320
   63      C       2.5046845200     0.1423356788     0.9548279290
   64      C       2.2147417639     2.4688343069     0.5844344469
   65      N       1.2080898741    -0.0071794365     1.2490974557
   66      N       2.5716447204     3.7010949542     0.1327398856
   67      C       0.8969577722     2.3650377579     0.9462156343
   68      C       0.3341084948     1.0255853412     1.3117589481
   69      S       1.3092186220     4.6621474534     0.3502885929
   70      N       0.2319787947     3.4959392919     0.7991793129
   71      C      -1.0545374969     0.8661137554     1.5868864152
   72      S      -2.4212266429     2.0505000495     1.2474385041
   73      C      -1.5059308086    -0.2340308823     2.2217146238
   74      C      -3.5368307572     0.9039793749     2.0343005015
   75      S      -0.7800539171    -1.7837736165     2.7130945136
   76      C      -2.8768933553    -0.1834786268     2.4799222245
   77      C      -4.8975960303     1.2348274389     2.3291588234
   78      C      -2.3411168475    -2.3241458705     3.3373295288
   79      C      -3.3757761165    -1.4263824113     3.0380003310
   80      N      -5.4033158005     0.7261574054     3.4161235474
   81      S      -5.7086448897     2.5203195637     1.5417918539
   82      C      -6.6039969360     1.2508122621     3.6635161349
   83      C      -6.9573892926     2.2521822905     2.7570896853
   84      C       8.8251026180     1.7491011684    -0.4408789630
   85      H       6.9806485601    -0.2559267271    -1.4126929196
   86      H       4.6571856097    -0.4697509732    -0.9011060649
   87      H       4.9112393569     3.3057370169     1.1596688210
   88      H       3.0532634822    -0.7925943494     1.0560799159
   89      H      -2.4542548866    -3.2056234493     3.9542388108
   90      H      -4.4042089871    -1.7234502880     3.2049299785
   91      H      -7.2994754000     0.9148784800     4.4208768152
   92      H      -7.8809294057     2.8038803936     2.6354802179
   93      H       9.1943985981     2.1177343034     0.5240915500
   94      C       9.1787289485     2.6308332024    -1.6283540316
   95      H       9.2526362792     0.7581609962    -0.6357264507
   96      H       8.5015307547     3.4814288390    -1.4789931624
   97      H       8.9315180286     2.1037798959    -2.5585209914
   98      C      10.6827581658     3.0004404730    -1.7204495201
   99      H      11.3007120845     2.1551282377    -1.3937429555
  100      C      10.8642723582     4.2630019381    -0.7696261165
  101      H      11.0545474925     3.2706538054    -2.7166891757
  102      H      10.0321509615     4.3844824309    -0.0656591634
  103      H      11.0203016483     5.1794413431    -1.3525941066
  104      C      11.9914007213     3.9386382045     0.1422838689
  105      H      11.6343825007     3.0160739465     0.6158218083
  106      C      12.2023389860     5.0532378008     1.2248931191
  107      H      12.9599244505     3.7851560572    -0.3503366913
  108      H      12.8226083988     4.5852986772     1.9990202611
  109      H      11.2704173322     5.4275854820     1.6650474611
  110      H      12.7963743178     5.8999260318     0.8576506052
 ----------------------------------------------------------------

   10   -5663.4871647827      4.83E-06 Convergence criterion met
 Total energy in the final basis set = -5663.4871647827

                    Orbital Energies (a.u.)
 --------------------------------------------------------------

 Alpha MOs
 -- Occupied --
-88.984 -88.983 -88.936 -88.926 -88.925 -88.918 -88.907 -88.904
-14.386 -14.376 -14.375 -14.373 -14.349 -14.341 -14.339 -14.339
-14.329 -14.323 -10.273 -10.262 -10.261 -10.258 -10.249 -10.249
-10.247 -10.247 -10.240 -10.236 -10.236 -10.235 -10.232 -10.231
-10.231 -10.230 -10.229 -10.228 -10.227 -10.227 -10.224 -10.224
-10.222 -10.220 -10.219 -10.219 -10.218 -10.217 -10.215 -10.215
-10.212 -10.209 -10.208 -10.203 -10.199 -10.198 -10.198 -10.192
-10.189 -10.183 -10.181 -10.181 -10.181 -10.180 -10.177 -10.175
-10.174 -10.170 -10.167 -10.165  -8.039  -8.039  -7.997  -7.988
 -7.982  -7.977  -7.966  -7.963  -6.004  -6.004  -5.999  -5.998
 -5.997  -5.996  -5.961  -5.958  -5.954  -5.951  -5.948  -5.947
 -5.945  -5.943  -5.941  -5.939  -5.938  -5.934  -5.931  -5.928
 -5.927  -5.924  -5.922  -5.920  -1.038  -1.034  -0.984  -0.968
 -0.962  -0.950  -0.944  -0.928  -0.914  -0.909  -0.902  -0.896
 -0.838  -0.836  -0.833  -0.829  -0.819  -0.810  -0.809  -0.805
 -0.804  -0.804  -0.795  -0.793  -0.782  -0.778  -0.767  -0.764
 -0.750  -0.747  -0.738  -0.733  -0.725  -0.718  -0.712  -0.704
 -0.695  -0.690  -0.675  -0.669  -0.652  -0.647  -0.643  -0.639
 -0.632  -0.631  -0.623  -0.621  -0.614  -0.610  -0.603  -0.595
 -0.592  -0.590  -0.589  -0.580  -0.579  -0.570  -0.567  -0.558
 -0.553  -0.552  -0.539  -0.536  -0.524  -0.520  -0.513  -0.510
 -0.507  -0.505  -0.496  -0.491  -0.487  -0.483  -0.478  -0.474
 -0.473  -0.471  -0.469  -0.464  -0.460  -0.459  -0.454  -0.447
 -0.446  -0.442  -0.440  -0.436  -0.434  -0.433  -0.428  -0.425
 -0.424  -0.422  -0.420  -0.418  -0.417  -0.415  -0.415  -0.412
 -0.411  -0.410  -0.407  -0.402  -0.400  -0.398  -0.397  -0.397
 -0.394  -0.393  -0.391  -0.389  -0.388  -0.387  -0.385  -0.382
 -0.379  -0.379  -0.372  -0.366  -0.363  -0.362  -0.355  -0.354
 -0.352  -0.351  -0.348  -0.346  -0.345  -0.343  -0.338  -0.336
 -0.334  -0.330  -0.328  -0.328  -0.325  -0.324  -0.323  -0.320
 -0.312  -0.312  -0.308  -0.307  -0.306  -0.304  -0.301  -0.297
 -0.295  -0.291  -0.290  -0.289  -0.286  -0.284  -0.277  -0.276
 -0.271  -0.266  -0.263  -0.262  -0.256  -0.249  -0.248  -0.245
 -0.241  -0.239  -0.230  -0.228  -0.193  -0.189

          Ground-State Mulliken Net Atomic Charges

     Atom                 Charge (a.u.)
  ----------------------------------------
      1 C                     0.272642
      2 C                    -0.113164
      3 N                    -0.475944
      4 C                    -0.057349
      5 C                     0.051853
      6 C                     0.033291
      7 C                     0.052920
      8 C                     0.047910
      9 C                     0.272436
     10 N                    -0.527245
     11 N                    -0.583688
     12 C                     0.211308
     13 C                     0.339094
     14 S                     0.586230
     15 N                    -0.574433
     16 C                    -0.207360
     17 S                     0.291706
     18 C                    -0.084373
     19 C                    -0.239942
     20 S                     0.276161
     21 C                     0.135538
     22 C                     0.065496
     23 C                    -0.312541
     24 C                    -0.054197
     25 N                    -0.446933
     26 S                     0.286093
     27 C                     0.126393
     28 C                    -0.299950
     29 C                    -0.224464
     30 H                     0.088634
     31 H                     0.116072
     32 H                     0.101107
     33 H                     0.114141
     34 H                     0.131415
     35 H                     0.129097
     36 H                     0.119443
     37 H                     0.129527
     38 H                     0.114882
     39 C                    -0.187027
     40 H                     0.105482
     41 H                     0.096619
     42 H                     0.092747
     43 C                    -0.190166
     44 H                     0.089640
     45 C                    -0.167018
     46 H                     0.087260
     47 H                     0.090527
     48 H                     0.094113
     49 C                    -0.167394
     50 H                     0.097571
     51 C                    -0.329019
     52 H                     0.094411
     53 H                     0.101756
     54 H                     0.103451
     55 H                     0.097137
     56 C                     0.270286
     57 C                    -0.113128
     58 N                    -0.485401
     59 C                    -0.060093
     60 C                     0.056990
     61 C                     0.029730
     62 C                     0.041401
     63 C                     0.060473
     64 C                     0.198797
     65 N                    -0.539320
     66 N                    -0.542891
     67 C                     0.212857
     68 C                     0.306781
     69 S                     0.588703
     70 N                    -0.588314
     71 C                    -0.228062
     72 S                     0.329289
     73 C                    -0.107927
     74 C                    -0.234432
     75 S                     0.308586
     76 C                     0.171113
     77 C                     0.072680
     78 C                    -0.315588
     79 C                    -0.061085
     80 N                    -0.423859
     81 S                     0.274006
     82 C                     0.143178
     83 C                    -0.311583
     84 C                    -0.205256
     85 H                     0.074097
     86 H                     0.094131
     87 H                     0.119772
     88 H                     0.128898
     89 H                     0.133784
     90 H                     0.121460
     91 H                     0.118082
     92 H                     0.127251
     93 H                     0.119315
     94 C                    -0.175628
     95 H                     0.083001
     96 H                     0.118120
     97 H                     0.079989
     98 C                    -0.190631
     99 H                     0.093601
    100 C                    -0.164593
    101 H                     0.090655
    102 H                     0.107319
    103 H                     0.089444
    104 C                    -0.173303
    105 H                     0.094977
    106 C                    -0.328757
    107 H                     0.089242
    108 H                     0.096436
    109 H                     0.102905
    110 H                     0.100609
  ----------------------------------------
  Sum of atomic charges =     0.000000

                    Cartesian Multipole Moments
 -----------------------------------------------------------------
    Charge (ESU x 10^10)
                 0.0000
    Dipole Moment (Debye)
         X      -1.9569      Y      -0.6228      Z      -2.0489
       Tot       2.9009
    Quadrupole Moments (Debye-Ang)
        XX    -399.9856     XY     -29.8143     YY    -434.5586
        XZ     -11.8752     YZ      -8.4976     ZZ    -442.1885

 Total job time:  114.80s(wall), 1353.70s(cpu)
        *  Thank you very much for using Q-Chem.  Have a nice day.  *
