 Q-Chem 4.4, Q-Chem, Inc., Pleasanton, CA (2016)
 Q-Chem 4.4.2 for Intel X86 Linux

User input:
--------------------------------------------------------------
$comment
SP
$end

$rem
MEM_STATIC 5000
MEM_TOTAL 20000
JOBTYPE SP
EXCHANGE B3LYP
BASIS 6-31g(d,p)
$end

$molecule
0 1
C         -17.561000     21.699000     -5.864000
C         -18.676000     21.815000     -5.028000
N         -17.005000     20.574000     -6.251000
C         -19.157000     20.655000     -4.392000
C         -17.536000     19.463000     -5.722000
C         -18.609000     19.439000     -4.744000
C         -19.182000     18.100000     -4.360000
C         -20.265000     17.581000     -5.019000
C         -18.842000     17.529000     -3.127000
N         -20.887000     16.472000     -4.639000
N         -17.845000     17.973000     -2.411000
C         -19.540000     16.465000     -2.575000
C         -20.517000     15.940000     -3.433000
S         -17.999000     17.286000     -0.970000
N         -19.188000     16.161000     -1.315000
C         -21.496000     15.013000     -2.947000
S         -21.723000     14.693000     -1.179000
C         -22.471000     14.402000     -3.713000
C         -23.001000     13.521000     -1.604000
S         -22.603000     14.170000     -5.449000
C         -23.269000     13.525000     -2.941000
C         -23.578000     12.570000     -0.642000
C         -24.090000     13.177000     -5.100000
C         -24.198000     12.870000     -3.758000
N         -24.115000     11.433000     -1.016000
S         -23.366000     12.810000      1.073000
C         -24.149000     10.504000     -0.005000
C         -23.727000     11.073000      1.191000
C         -16.935000     23.001000     -6.253000
H         -19.045000     22.822000     -4.859000
H         -19.908000     20.707000     -3.609000
H         -17.201000     18.511000     -6.131000
H         -20.535000     18.056000     -5.961000
H         -24.776000     13.011000     -5.920000
H         -25.066000     12.313000     -3.423000
H         -24.520000      9.509000     -0.214000
H         -23.572000     10.511000      2.102000
H         -16.876000     23.701000     -5.411000
C         -17.784000     23.639000     -7.358000
H         -15.876000     22.912000     -6.528000
H         -18.822000     23.385000     -7.109000
H         -17.460000     23.154000     -8.286000
C         -17.708000     25.196000     -7.598000
H         -18.108000     25.784000     -6.763000
C         -18.383000     25.554000     -8.931000
H         -16.705000     25.638000     -7.635000
H         -18.000000     24.901000     -9.724000
H         -18.141000     26.591000     -9.196000
C         -19.921000     25.259000     -8.903000
H         -20.291000     25.630000     -9.866000
C         -20.644000     26.142000     -7.841000
H         -20.237000     24.216000     -8.777000
H         -20.135000     26.173000     -6.869000
H         -21.653000     25.774000     -7.615000
H         -20.629000     27.173000     -8.216000
C         -23.932000     23.166000     -8.196000
C         -22.765000     23.297000     -7.481000
N         -24.221000     22.097000     -8.888000
C         -21.754000     22.307000     -7.674000
C         -23.333000     21.046000     -8.869000
C         -22.037000     21.117000     -8.383000
C         -20.989000     20.043000     -8.777000
C         -19.559000     20.446000     -8.841000
C         -21.252000     18.712000     -9.052000
N         -18.567000     19.625000     -9.154000
N         -22.485000     18.114000     -8.909000
C         -20.233000     17.859000     -9.337000
C         -18.922000     18.372000     -9.515000
S         -22.148000     16.533000     -9.024000
N         -20.543000     16.538000     -9.297000
C         -17.816000     17.581000    -10.011000
S         -16.096000     17.893000     -9.708000
C         -17.936000     16.684000    -11.037000
C         -15.611000     16.482000    -10.697000
S         -19.279000     16.396000    -12.063000
C         -16.729000     16.073000    -11.381000
C         -14.310000     16.211000    -11.218000
C         -18.202000     15.306000    -13.037000
C         -16.916000     15.219000    -12.532000
N         -13.405000     17.112000    -11.085000
S         -13.741000     14.660000    -11.696000
C         -12.233000     16.751000    -11.685000
C         -12.181000     15.442000    -12.049000
C         -25.088000     24.154000     -8.131000
H         -22.710000     24.173000     -6.842000
H         -20.765000     22.511000     -7.274000
H         -23.743000     20.185000     -9.397000
H         -19.306000     21.493000     -8.679000
H         -18.656000     14.825000    -13.894000
H         -16.081000     14.733000    -13.024000
H         -11.371000     17.406000    -11.680000
H         -11.368000     14.947000    -12.563000
H         -25.492000     24.065000     -7.115000
C         -26.226000     23.959000     -9.235000
H         -24.642000     25.154000     -8.199000
H         -26.759000     23.016000     -9.061000
H         -25.895000     24.062000    -10.276000
C         -27.220000     25.128000     -9.073000
H         -26.645000     26.051000     -8.932000
C         -28.156000     25.052000     -7.838000
H         -27.794000     25.205000    -10.005000
H         -27.556000     25.161000     -6.926000
H         -28.764000     24.140000     -7.808000
C         -29.166000     26.305000     -7.950000
H         -28.694000     27.292000     -8.026000
C         -30.110000     26.367000     -6.759000
H         -29.743000     26.246000     -8.882000
H         -29.572000     26.333000     -5.803000
H         -30.690000     25.436000     -6.792000
H         -30.763000     27.248000     -6.748000
$end

--------------------------------------------------------------

             Standard Nuclear Orientation (Angstroms)
    I     Atom           X                Y                Z
 ----------------------------------------------------------------
    1      C       2.3375096407     0.4024198303    -3.8316957969
    2      C       1.7207354950    -0.8522541670    -3.8007149347
    3      N       1.8317369505     1.5186775151    -3.3597924521
    4      C       0.3746585813    -0.9245178337    -3.3953608860
    5      C       0.5849860187     1.4218112513    -2.8777633649
    6      C      -0.2227982554     0.2154001334    -2.8988768916
    7      C      -1.5503179530     0.2442627432    -2.1878463703
    8      C      -1.6581529975    -0.1457680522    -0.8791147011
    9      C      -2.7328361414     0.3405657257    -2.9323639789
   10      N      -2.8188650926    -0.2629861911    -0.2465229368
   11      N      -2.7301297888     0.6759711645    -4.1938301367
   12      C      -3.9831449324     0.0788144868    -2.3917918596
   13      C      -3.9505118924    -0.1510866164    -1.0088968645
   14      S      -4.2043261175     0.3537542157    -4.7370496341
   15      N      -4.9830065105     0.0495677146    -3.2880850320
   16      C      -5.0953178751    -0.6796369946    -0.3277069059
   17      S      -6.5204394237    -1.3513048275    -1.2208160224
   18      C      -5.1864850364    -0.9007822877     1.0337207668
   19      C      -7.2943310292    -1.6761564653     0.3549555970
   20      S      -4.2433797143    -0.2704282304     2.3746719641
   21      C      -6.4555007133    -1.4104678812     1.3966764221
   22      C      -8.7114444101    -2.0417942174     0.4994294694
   23      C      -5.4192281804    -1.1275314836     3.4709262220
   24      C      -6.5396049895    -1.5554564552     2.7864461095
   25      N      -9.3883876378    -1.8047979608     1.5978804883
   26      S      -9.6236246755    -2.6038901224    -0.8774308564
   27      C     -10.7447683583    -1.7612071998     1.3865769470
   28      C     -11.0435812852    -2.1211279800     0.0775968606
   29      C       3.6482289317     0.4354308676    -4.5523387124
   30      H       2.3074725399    -1.6836590452    -4.1792338490
   31      H      -0.2038905361    -1.8368275476    -3.5083471892
   32      H       0.1911868267     2.2867652134    -2.3461743885
   33      H      -0.7273285032    -0.2458039537    -0.3228345745
   34      H      -5.1034443752    -1.3055057455     4.4903170943
   35      H      -7.2949113972    -2.1138708862     3.3282796205
   36      H     -11.4005389377    -1.5169051855     2.2121848885
   37      H     -12.0350436755    -2.0616167887    -0.3504811075
   38      H       3.6270910713    -0.1503791113    -5.4790667520
   39      C       4.7253540983    -0.1485314735    -3.6316545322
   40      H       3.9106699016     1.4294930202    -4.9370362224
   41      H       4.2277121494    -0.9551212414    -3.0787291873
   42      H       5.0164866715     0.6757847982    -2.9704968286
   43      C       6.0510371469    -0.7321228380    -4.2558424638
   44      H       5.8865942398    -1.6324135801    -4.8603291138
   45      C       7.0933269987    -0.9619691532    -3.1506363581
   46      H       6.5450864564    -0.1186999977    -5.0189739719
   47      H       7.1795864188    -0.0600129849    -2.5333994644
   48      H       8.0718900975    -1.1585157355    -3.6066426110
   49      C       6.6392472863    -2.0720456987    -2.1432661789
   50      H       7.4923646704    -2.1961546449    -1.4659939305
   51      C       6.5004913229    -3.4531293726    -2.8529257228
   52      H       5.7366298505    -1.8820174202    -1.5493368750
   53      H       5.9600766201    -3.4092190332    -3.8073102527
   54      H       5.9371566546    -4.1744860380    -2.2472198430
   55      H       7.5145301385    -3.7898909934    -3.1021803940
   56      C       4.0562043992    -4.5743339523     0.6913523032
   57      C       3.8506508133    -3.9545999139    -0.5185867222
   58      N       3.6725003794    -4.0545996554     1.8261621929
   59      C       3.3825492302    -2.6054989123    -0.5019315268
   60      C       3.0032072062    -2.8525383072     1.8016435569
   61      C       2.9207899154    -2.0179338492     0.6982416406
   62      C       2.5267362740    -0.5268973912     0.8672032001
   63      C       3.0694815283     0.4584773553    -0.1053548691
   64      C       1.6793446007    -0.0138884237     1.8342110342
   65      N       2.8028231562     1.7562576241    -0.0782682219
   66      N       0.9676429590    -0.7775582078     2.7334502871
   67      C       1.3743865571     1.3105471590     1.8423337837
   68      C       2.0567004753     2.1896227923     0.9618522404
   69      S      -0.0858507159     0.2782507681     3.3673063302
   70      N       0.3220108805     1.6671204695     2.6221426765
   71      C       1.9479604496     3.6312756039     1.0307418450
   72      S       2.2240222957     4.7602578248    -0.3096842074
   73      C       1.9341977622     4.3270484787     2.2086194681
   74      C       1.8888473245     6.1713697323     0.7394525439
   75      S       2.2014060125     3.7517895141     3.8013987606
   76      C       1.8742472650     5.7105077402     2.0326864990
   77      C       2.2106769486     7.5347706806     0.4655062948
   78      C       2.1784839242     5.4833955501     4.3470361070
   79      C       1.9647166995     6.3773148207     3.3118540403
   80      N       2.9212979721     7.7921462865    -0.5724197905
   81      S       1.4493068545     8.8945570098     1.1929282622
   82      C       3.2096504752     9.1225121252    -0.6767489299
   83      C       2.4810839713     9.9110334753     0.1575806991
   84      C       4.5860525624    -5.9929864475     0.8442935392
   85      H       4.0925027856    -4.5529315209    -1.3916439434
   86      H       3.4120693222    -2.0495211618    -1.4345377165
   87      H       2.6500518907    -2.5872700713     2.7981971611
   88      H       3.7780420877     0.1117094632    -0.8564580330
   89      H       2.3167627892     5.6536343171     5.4071416290
   90      H       2.0421181582     7.4559773211     3.3891924169
   91      H       3.8148653884     9.5071223908    -1.4878493259
   92      H       2.5630701354    10.9841620098     0.2665000146
   93      H       3.7991967428    -6.6438459562     0.4435032959
   94      C       5.0022391856    -6.4186535277     2.3266839168
   95      H       5.4370756857    -6.0790909124     0.1573541935
   96      H       4.1121206232    -6.4677166191     2.9661334911
   97      H       5.8055744200    -5.8241206458     2.7794908883
   98      C       5.6261367811    -7.8269606015     2.2357775027
   99      H       6.3014751411    -7.8485652354     1.3721303876
  100      C       4.6310277904    -8.9915301637     1.9895401551
  101      H       6.2116097395    -7.9884222464     3.1496596352
  102      H       4.2006367951    -8.8892928610     0.9855799342
  103      H       3.8475037376    -9.0634938058     2.7532281103
  104      C       5.4941816290   -10.3531258342     2.0501675489
  105      H       6.3444189508   -10.4092918225     1.3597539928
  106      C       4.6293476413   -11.5730698866     1.7722112884
  107      H       5.9780681693   -10.4531029445     3.0304187379
  108      H       4.0551155808   -11.4694802399     0.8426615448
  109      H       3.8767912683   -11.5907801470     2.5707069065
  110      H       5.1856412908   -12.5168551815     1.7222343678
 ----------------------------------------------------------------

   10   -5663.4609146141      3.97E-06 Convergence criterion met
 Total energy in the final basis set = -5663.4609146141

                    Orbital Energies (a.u.)
 --------------------------------------------------------------

 Alpha MOs
 -- Occupied --
-88.991 -88.989 -88.925 -88.925 -88.922 -88.917 -88.909 -88.908
-14.391 -14.387 -14.382 -14.380 -14.349 -14.348 -14.338 -14.330
-14.327 -14.319 -10.268 -10.259 -10.258 -10.256 -10.252 -10.251
-10.251 -10.247 -10.241 -10.241 -10.236 -10.234 -10.233 -10.232
-10.231 -10.231 -10.230 -10.230 -10.228 -10.227 -10.225 -10.224
-10.223 -10.222 -10.222 -10.220 -10.219 -10.218 -10.216 -10.212
-10.212 -10.211 -10.206 -10.206 -10.206 -10.198 -10.198 -10.198
-10.187 -10.186 -10.180 -10.180 -10.180 -10.179 -10.179 -10.176
-10.176 -10.172 -10.171 -10.167  -8.046  -8.045  -7.986  -7.984
 -7.983  -7.975  -7.969  -7.967  -6.010  -6.010  -6.005  -6.004
 -6.004  -6.002  -5.950  -5.948  -5.948  -5.947  -5.945  -5.944
 -5.943  -5.941  -5.940  -5.939  -5.936  -5.934  -5.932  -5.932
 -5.930  -5.929  -5.925  -5.923  -1.050  -1.042  -0.978  -0.967
 -0.963  -0.961  -0.946  -0.940  -0.916  -0.913  -0.906  -0.902
 -0.838  -0.838  -0.835  -0.831  -0.812  -0.812  -0.809  -0.802
 -0.800  -0.798  -0.797  -0.793  -0.785  -0.777  -0.765  -0.762
 -0.749  -0.744  -0.741  -0.736  -0.723  -0.718  -0.711  -0.706
 -0.693  -0.690  -0.678  -0.673  -0.655  -0.654  -0.646  -0.642
 -0.637  -0.636  -0.634  -0.628  -0.614  -0.605  -0.602  -0.596
 -0.593  -0.590  -0.585  -0.581  -0.578  -0.577  -0.560  -0.555
 -0.550  -0.545  -0.541  -0.537  -0.525  -0.519  -0.514  -0.510
 -0.505  -0.505  -0.500  -0.498  -0.495  -0.479  -0.478  -0.474
 -0.472  -0.469  -0.468  -0.465  -0.460  -0.456  -0.455  -0.450
 -0.448  -0.447  -0.441  -0.438  -0.435  -0.434  -0.431  -0.430
 -0.426  -0.425  -0.424  -0.417  -0.416  -0.415  -0.415  -0.412
 -0.410  -0.409  -0.405  -0.402  -0.400  -0.399  -0.397  -0.396
 -0.394  -0.392  -0.389  -0.387  -0.386  -0.384  -0.382  -0.380
 -0.380  -0.375  -0.374  -0.371  -0.364  -0.362  -0.357  -0.356
 -0.354  -0.352  -0.351  -0.348  -0.344  -0.342  -0.341  -0.339
 -0.338  -0.335  -0.327  -0.326  -0.325  -0.321  -0.320  -0.319
 -0.317  -0.316  -0.316  -0.314  -0.306  -0.303  -0.302  -0.299
 -0.298  -0.291  -0.290  -0.289  -0.288  -0.282  -0.280  -0.275
 -0.274  -0.270  -0.262  -0.260  -0.254  -0.253  -0.246  -0.246
 -0.240  -0.238  -0.235  -0.230  -0.193  -0.193

          Ground-State Mulliken Net Atomic Charges

     Atom                 Charge (a.u.)
  ----------------------------------------
      1 C                     0.276732
      2 C                    -0.114499
      3 N                    -0.458312
      4 C                    -0.062108
      5 C                     0.074827
      6 C                     0.021573
      7 C                    -0.020528
      8 C                     0.089953
      9 C                     0.218371
     10 N                    -0.501851
     11 N                    -0.520062
     12 C                     0.256738
     13 C                     0.277645
     14 S                     0.595137
     15 N                    -0.586414
     16 C                    -0.221495
     17 S                     0.322414
     18 C                    -0.111934
     19 C                    -0.233557
     20 S                     0.262464
     21 C                     0.174233
     22 C                     0.067298
     23 C                    -0.309043
     24 C                    -0.040199
     25 N                    -0.432759
     26 S                     0.252401
     27 C                     0.129296
     28 C                    -0.316343
     29 C                    -0.233903
     30 H                     0.093221
     31 H                     0.098327
     32 H                     0.109582
     33 H                     0.110020
     34 H                     0.132955
     35 H                     0.119622
     36 H                     0.123477
     37 H                     0.125660
     38 H                     0.100018
     39 C                    -0.186775
     40 H                     0.115901
     41 H                     0.097448
     42 H                     0.122275
     43 C                    -0.185841
     44 H                     0.089663
     45 C                    -0.177534
     46 H                     0.089267
     47 H                     0.097279
     48 H                     0.088893
     49 C                    -0.183407
     50 H                     0.096393
     51 C                    -0.320158
     52 H                     0.098285
     53 H                     0.095633
     54 H                     0.091602
     55 H                     0.102999
     56 C                     0.283457
     57 C                    -0.111912
     58 N                    -0.482837
     59 C                    -0.109450
     60 C                     0.058873
     61 C                     0.060084
     62 C                     0.006885
     63 C                     0.076623
     64 C                     0.232056
     65 N                    -0.484917
     66 N                    -0.548581
     67 C                     0.185528
     68 C                     0.245081
     69 S                     0.633760
     70 N                    -0.519933
     71 C                    -0.215649
     72 S                     0.353015
     73 C                    -0.098481
     74 C                    -0.211897
     75 S                     0.251551
     76 C                     0.110962
     77 C                     0.065353
     78 C                    -0.303622
     79 C                    -0.060657
     80 N                    -0.419172
     81 S                     0.250297
     82 C                     0.124908
     83 C                    -0.307717
     84 C                    -0.246034
     85 H                     0.091129
     86 H                     0.100436
     87 H                     0.121920
     88 H                     0.111426
     89 H                     0.132019
     90 H                     0.114077
     91 H                     0.115886
     92 H                     0.130077
     93 H                     0.119412
     94 C                    -0.152155
     95 H                     0.099526
     96 H                     0.111374
     97 H                     0.099704
     98 C                    -0.182307
     99 H                     0.089111
    100 C                    -0.173826
    101 H                     0.083620
    102 H                     0.093826
    103 H                     0.094858
    104 C                    -0.179992
    105 H                     0.090039
    106 C                    -0.315238
    107 H                     0.093344
    108 H                     0.098172
    109 H                     0.098801
    110 H                     0.096307
  ----------------------------------------
  Sum of atomic charges =     0.000000

                    Cartesian Multipole Moments
 -----------------------------------------------------------------
    Charge (ESU x 10^10)
                 0.0000
    Dipole Moment (Debye)
         X      -1.4283      Y      -0.2110      Z      -0.2613
       Tot       1.4672
    Quadrupole Moments (Debye-Ang)
        XX    -414.4216     XY       8.5911     YY    -418.1068
        XZ      -3.1409     YZ      23.1211     ZZ    -422.3237

 Total job time:  97.59s(wall), 1175.77s(cpu)
        *  Thank you very much for using Q-Chem.  Have a nice day.  *
