 Q-Chem 4.4, Q-Chem, Inc., Pleasanton, CA (2016)
 Q-Chem 4.4.2 for Intel X86 Linux

User input:
--------------------------------------------------------------
$comment
SP
$end

$rem
MEM_STATIC 5000
MEM_TOTAL 20000
JOBTYPE SP
EXCHANGE B3LYP
BASIS 6-31g(d,p)
$end

$molecule
0 1
C         -13.296000     12.157000     -7.563000
C         -13.507000     12.886000     -6.374000
N         -12.703000     12.722000     -8.687000
C         -13.044000     14.228000     -6.284000
C         -12.342000     14.013000     -8.618000
C         -12.492000     14.837000     -7.441000
C         -12.180000     16.316000     -7.513000
C         -11.117000     16.845000     -8.233000
C         -12.968000     17.288000     -6.823000
N         -10.838000     18.153000     -8.195000
N         -13.938000     16.940000     -5.929000
C         -12.644000     18.662000     -6.851000
C         -11.545000     19.054000     -7.673000
S         -14.462000     18.366000     -5.326000
N         -13.434000     19.403000     -6.010000
C         -10.934000     20.372000     -7.731000
S         -11.504000     21.705000     -6.869000
C          -9.759000     20.714000     -8.451000
C         -10.135000     22.776000     -7.391000
S          -8.747000     19.834000     -9.596000
C          -9.363000     22.060000     -8.318000
C          -9.944000     24.188000     -7.003000
C          -7.677000     21.308000     -9.686000
C          -8.140000     22.376000     -8.944000
N         -10.542000     24.585000     -5.924000
S          -8.910000     25.385000     -7.832000
C         -10.231000     25.935000     -5.619000
C          -9.471000     26.587000     -6.603000
C         -13.696000     10.616000     -7.611000
H         -13.955000     12.372000     -5.529000
H         -13.132000     14.693000     -5.307000
H         -11.952000     14.349000     -9.577000
H         -10.439000     16.227000     -8.819000
H          -6.821000     21.371000    -10.344000
H          -7.582000     23.304000     -8.993000
H         -10.734000     26.441000     -4.805000
H          -9.188000     27.617000     -6.777000
H         -14.665000     10.375000     -7.156000
C         -12.579000      9.824000     -6.881000
H         -13.704000     10.274000     -8.653000
H         -12.471000     10.053000     -5.813000
H         -11.580000     10.076000     -7.256000
C         -12.857000      8.326000     -6.966000
H         -13.795000      8.093000     -6.447000
C         -11.739000      7.510000     -6.320000
H         -13.047000      8.042000     -8.008000
H         -11.768000      7.684000     -5.237000
H         -10.759000      7.756000     -6.747000
C         -11.985000      6.056000     -6.507000
H         -13.024000      5.844000     -6.226000
C         -11.071000      5.212000     -5.596000
H         -11.851000      5.819000     -7.570000
H          -9.986000      5.305000     -5.731000
H         -11.239000      4.141000     -5.761000
H         -11.269000      5.493000     -4.554000
C         -23.932000     23.166000     -8.196000
C         -22.765000     23.297000     -7.481000
N         -24.221000     22.097000     -8.888000
C         -21.754000     22.307000     -7.674000
C         -23.333000     21.046000     -8.869000
C         -22.037000     21.117000     -8.383000
C         -20.989000     20.043000     -8.777000
C         -19.559000     20.446000     -8.841000
C         -21.252000     18.712000     -9.052000
N         -18.567000     19.625000     -9.154000
N         -22.485000     18.114000     -8.909000
C         -20.233000     17.859000     -9.337000
C         -18.922000     18.372000     -9.515000
S         -22.148000     16.533000     -9.024000
N         -20.543000     16.538000     -9.297000
C         -17.816000     17.581000    -10.011000
S         -16.096000     17.893000     -9.708000
C         -17.936000     16.684000    -11.037000
C         -15.611000     16.482000    -10.697000
S         -19.279000     16.396000    -12.063000
C         -16.729000     16.073000    -11.381000
C         -14.310000     16.211000    -11.218000
C         -18.202000     15.306000    -13.037000
C         -16.916000     15.219000    -12.532000
N         -13.405000     17.112000    -11.085000
S         -13.741000     14.660000    -11.696000
C         -12.233000     16.751000    -11.685000
C         -12.181000     15.442000    -12.049000
C         -25.088000     24.154000     -8.131000
H         -22.710000     24.173000     -6.842000
H         -20.765000     22.511000     -7.274000
H         -23.743000     20.185000     -9.397000
H         -19.306000     21.493000     -8.679000
H         -18.656000     14.825000    -13.894000
H         -16.081000     14.733000    -13.024000
H         -11.371000     17.406000    -11.680000
H         -11.368000     14.947000    -12.563000
H         -25.492000     24.065000     -7.115000
C         -26.226000     23.959000     -9.235000
H         -24.642000     25.154000     -8.199000
H         -26.759000     23.016000     -9.061000
H         -25.895000     24.062000    -10.276000
C         -27.220000     25.128000     -9.073000
H         -26.645000     26.051000     -8.932000
C         -28.156000     25.052000     -7.838000
H         -27.794000     25.205000    -10.005000
H         -27.556000     25.161000     -6.926000
H         -28.764000     24.140000     -7.808000
C         -29.166000     26.305000     -7.950000
H         -28.694000     27.292000     -8.026000
C         -30.110000     26.367000     -6.759000
H         -29.743000     26.246000     -8.882000
H         -29.572000     26.333000     -5.803000
H         -30.690000     25.436000     -6.792000
H         -30.763000     27.248000     -6.748000
$end

--------------------------------------------------------------

             Standard Nuclear Orientation (Angstroms)
    I     Atom           X                Y                Z
 ----------------------------------------------------------------
    1      C      -5.4530445993    -3.8889918369    -1.1062712372
    2      C      -4.9356320816    -3.2688237141    -2.2627135341
    3      N      -5.6233514490    -3.2044277104     0.0923185732
    4      C      -4.6334276520    -1.8790737505    -2.2362461686
    5      C      -5.2600545584    -1.9127398496     0.1286619298
    6      C      -4.7446465177    -1.1812806509    -1.0054134611
    7      C      -4.2364381324     0.2321688073    -0.8214192593
    8      C      -4.8406697117     1.1660691558     0.0098113571
    9      C      -3.0824929251     0.7151561543    -1.5120433837
   10      N      -4.3974943410     2.4269925987     0.0715904957
   11      N      -2.4693644093    -0.0006922007    -2.4983874189
   12      C      -2.6408712828     2.0494748389    -1.3771361081
   13      C      -3.3435918365     2.8760552130    -0.4497215791
   14      S      -1.3004784609     0.9972091885    -3.0547680951
   15      N      -1.6111577060     2.3486521872    -2.2319137775
   16      C      -3.1747399026     4.3083512408    -0.2658028106
   17      S      -2.0244715609     5.2270267384    -1.0890591936
   18      C      -3.9719925112     5.1410072757     0.5630887417
   19      C      -2.6139005295     6.7985357664    -0.3986833060
   20      S      -5.2525198920     4.8104834765     1.7295246145
   21      C      -3.6121375012     6.5034573346     0.5417531179
   22      C      -2.0540432762     8.1345085233    -0.6859212712
   23      C      -5.3923797714     6.6099268861     1.9905200743
   24      C      -4.4672475114     7.3474060501     1.2793156143
   25      N      -1.3760012273     8.2619689237    -1.7829476274
   26      S      -2.2811553601     9.6119528528     0.2912094030
   27      C      -0.9477902953     9.5996201499    -1.9818712177
   28      C      -1.2200921677    10.4573828265    -0.9043486514
   29      C      -5.9142733067    -5.4116883962    -1.1814261963
   30      H      -4.8522851574    -3.8605530285    -3.1692645302
   31      H      -4.3509602657    -1.4393993946    -3.1877694928
   32      H      -5.3827238248    -1.5129220403     1.1335375292
   33      H      -5.7199170225     0.9370077708     0.6093603947
   34      H      -6.0654993708     7.0458819360     2.7161385687
   35      H      -4.4569977258     8.4212071549     1.4269473493
   36      H      -0.2843348788     9.8447080689    -2.8012611263
   37      H      -0.9177317590    11.4643728353    -0.6478056621
   38      H      -5.2303953744    -6.0761368789    -1.7244604377
   39      C      -7.3057997230    -5.4414134604    -1.8674463513
   40      H      -6.0484085242    -5.8022640591    -0.1654289547
   41      H      -7.3167873610    -5.0929274004    -2.9081988377
   42      H      -8.0123867098    -4.7447704146    -1.4010202619
   43      C      -7.8472568954    -6.8678249053    -1.8936669651
   44      H      -7.1879302371    -7.5035794928    -2.4974868572
   45      C      -9.2491361880    -6.9251471061    -2.4974422662
   46      H      -7.7960008476    -7.3031351634    -0.8884815112
   47      H      -9.1725788520    -6.6929278566    -3.5671240855
   48      H      -9.9407885501    -6.2481932897    -1.9811133589
   49      C      -9.7912488389    -8.3069030829    -2.4170352123
   50      H      -9.0263200109    -8.9987877282    -2.7906734406
   51      C     -11.0433756313    -8.4692707660    -3.3021726205
   52      H      -9.9908912820    -8.5366225890    -1.3627744080
   53      H     -11.9148426788    -7.8415173475    -3.0772952525
   54      H     -11.4529619402    -9.4827265258    -3.2147856745
   55      H     -10.7654717769    -8.2371152591    -4.3379343056
   56      C       9.3788344765    -0.0764748400    -0.6553352887
   57      C       8.4267381483     0.7038146058    -1.2676554359
   58      N       9.0923756975    -1.1990233341    -0.0528635083
   59      C       7.0554538914     0.3662924551    -1.0552212468
   60      C       7.7864907870    -1.6326491619    -0.0646635912
   61      C       6.7013687617    -0.8576893140    -0.4425530252
   62      C       5.2619512154    -1.2659692034    -0.0321865313
   63      C       4.2555798690    -0.1895158396     0.1674878757
   64      C       4.8016592611    -2.5598875411     0.1417722343
   65      N       2.9929687306    -0.4040141530     0.5078958465
   66      N       5.5355434537    -3.6932167114    -0.1326744519
   67      C       3.4983334155    -2.7850978475     0.4545294215
   68      C       2.6548787923    -1.6869859716     0.7648657016
   69      S       4.4276493228    -4.8750489909    -0.0857910041
   70      N       3.0719960023    -4.0659733157     0.3119270198
   71      C       1.3173251488    -1.8337625165     1.2981010123
   72      S       0.0030959603    -0.6512308992     1.1498660156
   73      C       0.9885496892    -2.7531226322     2.2564165526
   74      C      -1.1108450734    -1.6918602678     2.0882118423
   75      S       2.0199424151    -3.7864901667     3.1551098171
   76      C      -0.3466568651    -2.6805757915     2.6569991449
   77      C      -2.3424415614    -1.2975513582     2.6925077753
   78      C       0.5683099481    -4.2464809633     4.1439862744
   79      C      -0.5913966266    -3.6094211055     3.7370152705
   80      N      -2.6485972449    -0.0506667572     2.6846027542
   81      S      -3.6193884685    -2.3671295262     3.1205908733
   82      C      -3.8143472936     0.1931202489     3.3520604081
   83      C      -4.5284636579    -0.9273612104     3.6405740431
   84      C      10.8772726531     0.1726623012    -0.7518687842
   85      H       8.8138759970     1.5362743548    -1.8471871886
   86      H       6.3044887770     1.0878495483    -1.3636750655
   87      H       7.7057839353    -2.6257231527     0.3774850862
   88      H       4.5803010956     0.8471858884     0.0883193705
   89      H       0.7351737311    -4.9690106067     4.9326772103
   90      H      -1.5389858448    -3.6363663412     4.2631650856
   91      H      -4.2075819703     1.1966944475     3.4535459582
   92      H      -5.4612046420    -0.9753540350     4.1863587492
   93      H      11.1386809322    -0.0189624588    -1.7998853218
   94      C      11.7852469757    -0.6827071970     0.2460343428
   95      H      11.0212333967     1.2480957139    -0.5898247185
   96      H      11.7413686360    -1.7449077700    -0.0249243885
   97      H      11.5942649830    -0.5191977554     1.3140425548
   98      C      13.2365357627    -0.1868918621     0.0764200440
   99      H      13.2228560994     0.9088337802     0.0360073797
  100      C      13.9503210096    -0.6224593253    -1.2304420782
  101      H      13.7994789409    -0.5034314119     0.9635089299
  102      H      13.4629672106    -0.1360091528    -2.0845366306
  103      H      13.9917203394    -1.7102331036    -1.3621322551
  104      C      15.4689193411    -0.0885055515    -1.1236456596
  105      H      15.5842238739     0.9885740974    -0.9523760052
  106      C      16.2630972137    -0.4147889050    -2.3791462291
  107      H      15.9634712809    -0.5223415361    -0.2448745191
  108      H      15.7524092629    -0.0780691877    -3.2903836564
  109      H      16.2729827466    -1.5100229654    -2.4470772906
  110      H      17.2789079239    -0.0016005687    -2.3888930086
 ----------------------------------------------------------------

   10   -5663.5050614216      4.20E-06 Convergence criterion met
 Total energy in the final basis set = -5663.5050614216

                    Orbital Energies (a.u.)
 --------------------------------------------------------------

 Alpha MOs
 -- Occupied --
-88.994 -88.983 -88.923 -88.922 -88.920 -88.918 -88.911 -88.910
-14.390 -14.385 -14.384 -14.377 -14.352 -14.340 -14.335 -14.332
-14.330 -14.319 -10.269 -10.261 -10.259 -10.254 -10.253 -10.253
-10.253 -10.251 -10.245 -10.239 -10.236 -10.235 -10.235 -10.234
-10.234 -10.233 -10.233 -10.233 -10.231 -10.228 -10.226 -10.226
-10.226 -10.225 -10.224 -10.221 -10.220 -10.220 -10.218 -10.218
-10.217 -10.210 -10.209 -10.208 -10.207 -10.201 -10.198 -10.197
-10.191 -10.186 -10.180 -10.179 -10.177 -10.176 -10.174 -10.174
-10.171 -10.171 -10.171 -10.167  -8.049  -8.039  -7.984  -7.982
 -7.978  -7.978  -7.971  -7.968  -6.014  -6.008  -6.007  -6.004
 -5.998  -5.997  -5.948  -5.946  -5.944  -5.943  -5.943  -5.942
 -5.941  -5.939  -5.938  -5.938  -5.936  -5.935  -5.935  -5.933
 -5.932  -5.929  -5.927  -5.924  -1.045  -1.032  -0.980  -0.976
 -0.964  -0.957  -0.940  -0.923  -0.916  -0.905  -0.904  -0.896
 -0.841  -0.839  -0.834  -0.824  -0.814  -0.812  -0.803  -0.799
 -0.797  -0.793  -0.790  -0.789  -0.781  -0.777  -0.767  -0.763
 -0.750  -0.744  -0.743  -0.736  -0.721  -0.720  -0.708  -0.705
 -0.691  -0.688  -0.676  -0.668  -0.655  -0.648  -0.648  -0.642
 -0.637  -0.629  -0.627  -0.619  -0.607  -0.603  -0.598  -0.595
 -0.591  -0.589  -0.582  -0.581  -0.579  -0.572  -0.571  -0.560
 -0.547  -0.541  -0.539  -0.536  -0.521  -0.521  -0.516  -0.509
 -0.506  -0.500  -0.500  -0.495  -0.485  -0.480  -0.478  -0.476
 -0.471  -0.469  -0.466  -0.465  -0.462  -0.455  -0.451  -0.449
 -0.447  -0.441  -0.439  -0.437  -0.437  -0.435  -0.431  -0.428
 -0.425  -0.425  -0.421  -0.419  -0.418  -0.418  -0.414  -0.410
 -0.410  -0.407  -0.405  -0.401  -0.397  -0.397  -0.396  -0.394
 -0.393  -0.391  -0.390  -0.386  -0.384  -0.384  -0.383  -0.380
 -0.375  -0.372  -0.370  -0.366  -0.364  -0.360  -0.358  -0.356
 -0.354  -0.350  -0.346  -0.346  -0.345  -0.344  -0.341  -0.341
 -0.335  -0.335  -0.328  -0.328  -0.327  -0.325  -0.321  -0.320
 -0.320  -0.318  -0.317  -0.310  -0.309  -0.301  -0.300  -0.298
 -0.291  -0.290  -0.289  -0.284  -0.282  -0.279  -0.278  -0.277
 -0.271  -0.266  -0.263  -0.259  -0.256  -0.250  -0.250  -0.247
 -0.241  -0.238  -0.232  -0.231  -0.196  -0.191

          Ground-State Mulliken Net Atomic Charges

     Atom                 Charge (a.u.)
  ----------------------------------------
      1 C                     0.244255
      2 C                    -0.113187
      3 N                    -0.484754
      4 C                    -0.054852
      5 C                     0.088883
      6 C                     0.015277
      7 C                     0.030431
      8 C                     0.057766
      9 C                     0.223618
     10 N                    -0.518382
     11 N                    -0.550042
     12 C                     0.176132
     13 C                     0.372889
     14 S                     0.611016
     15 N                    -0.550174
     16 C                    -0.228715
     17 S                     0.355643
     18 C                    -0.109021
     19 C                    -0.230005
     20 S                     0.259265
     21 C                     0.125725
     22 C                     0.070717
     23 C                    -0.305928
     24 C                    -0.067665
     25 N                    -0.425989
     26 S                     0.239796
     27 C                     0.109806
     28 C                    -0.305699
     29 C                    -0.224757
     30 H                     0.090461
     31 H                     0.118790
     32 H                     0.106709
     33 H                     0.112977
     34 H                     0.122594
     35 H                     0.121860
     36 H                     0.119815
     37 H                     0.140633
     38 H                     0.103777
     39 C                    -0.177055
     40 H                     0.117701
     41 H                     0.091104
     42 H                     0.105696
     43 C                    -0.178152
     44 H                     0.087828
     45 C                    -0.159504
     46 H                     0.089664
     47 H                     0.087171
     48 H                     0.093097
     49 C                    -0.170626
     50 H                     0.090939
     51 C                    -0.321836
     52 H                     0.092048
     53 H                     0.100493
     54 H                     0.096825
     55 H                     0.100099
     56 C                     0.282667
     57 C                    -0.110066
     58 N                    -0.482345
     59 C                    -0.111283
     60 C                     0.058057
     61 C                     0.064442
     62 C                     0.012221
     63 C                     0.070677
     64 C                     0.234916
     65 N                    -0.489152
     66 N                    -0.545511
     67 C                     0.189027
     68 C                     0.247812
     69 S                     0.622263
     70 N                    -0.518549
     71 C                    -0.212030
     72 S                     0.337527
     73 C                    -0.098627
     74 C                    -0.206832
     75 S                     0.252405
     76 C                     0.110802
     77 C                     0.065114
     78 C                    -0.303524
     79 C                    -0.059371
     80 N                    -0.424572
     81 S                     0.269486
     82 C                     0.121137
     83 C                    -0.323271
     84 C                    -0.244444
     85 H                     0.088861
     86 H                     0.100039
     87 H                     0.120912
     88 H                     0.112839
     89 H                     0.133165
     90 H                     0.116483
     91 H                     0.126946
     92 H                     0.133230
     93 H                     0.119996
     94 C                    -0.152141
     95 H                     0.098172
     96 H                     0.111098
     97 H                     0.099507
     98 C                    -0.182344
     99 H                     0.089033
    100 C                    -0.173896
    101 H                     0.083578
    102 H                     0.094075
    103 H                     0.094704
    104 C                    -0.179943
    105 H                     0.090075
    106 C                    -0.315088
    107 H                     0.093318
    108 H                     0.098262
    109 H                     0.098654
    110 H                     0.096337
  ----------------------------------------
  Sum of atomic charges =     0.000000

                    Cartesian Multipole Moments
 -----------------------------------------------------------------
    Charge (ESU x 10^10)
                 0.0000
    Dipole Moment (Debye)
         X      -0.8482      Y       0.1558      Z       0.2086
       Tot       0.8872
    Quadrupole Moments (Debye-Ang)
        XX    -440.9519     XY      10.3377     YY    -398.1847
        XZ     -15.3954     YZ       2.9040     ZZ    -428.0828

 Total job time:  91.20s(wall), 1072.85s(cpu)
        *  Thank you very much for using Q-Chem.  Have a nice day.  *
