 Q-Chem 4.4, Q-Chem, Inc., Pleasanton, CA (2016)
 Q-Chem 4.4.2 for Intel X86 Linux

User input:
--------------------------------------------------------------
$comment
SP
$end

$rem
MEM_STATIC 5000
MEM_TOTAL 20000
JOBTYPE SP
EXCHANGE B3LYP
BASIS 6-31g(d,p)
$end

$molecule
0 1
C          21.154000     11.858000     -6.000000
C          22.411000     11.428000     -6.339000
N          20.099000     11.788000     -6.788000
C          22.543000     10.879000     -7.577000
C          20.215000     11.253000     -8.013000
C          21.479000     10.749000     -8.475000
C          21.691000     10.118000     -9.815000
C          22.981000     10.037000    -10.338000
C          20.703000      9.429000    -10.616000
N          23.319000      9.331000    -11.415000
N          19.349000      9.533000    -10.467000
C          21.022000      8.694000    -11.778000
C          22.412000      8.706000    -12.170000
S          18.641000      8.561000    -11.546000
N          19.939000      8.094000    -12.389000
C          22.844000      7.812000    -13.279000
S          21.854000      7.168000    -14.522000
C          24.136000      7.339000    -13.503000
C          23.168000      6.412000    -15.446000
S          25.603000      7.510000    -12.554000
C          24.313000      6.617000    -14.679000
C          23.052000      5.648000    -16.608000
C          26.494000      6.677000    -13.902000
C          25.657000      6.201000    -14.865000
N          24.061000      5.660000    -17.443000
S          21.478000      5.011000    -17.236000
C          23.755000      5.058000    -18.533000
C          22.394000      4.921000    -18.747000
C          20.774000     12.615000     -4.722000
H          23.286000     11.568000     -5.712000
H          23.471000     10.431000     -7.919000
H          19.297000     11.355000     -8.589000
H          23.820000     10.602000     -9.935000
H          27.569000      6.581000    -13.824000
H          25.914000      5.683000    -15.782000
H          24.431000      5.117000    -19.376000
H          21.802000      4.770000    -19.640000
H          21.134000     13.639000     -4.880000
C          21.283000     11.996000     -3.379000
H          19.696000     12.664000     -4.522000
H          21.084000     12.613000     -2.494000
H          22.375000     11.937000     -3.465000
C          20.754000     10.600000     -3.074000
H          19.687000     10.770000     -2.886000
C          21.467000      9.997000     -1.821000
H          20.830000      9.949000     -3.954000
H          21.158000     10.689000     -1.029000
H          22.562000      9.963000     -1.887000
C          20.952000      8.581000     -1.513000
H          19.860000      8.501000     -1.584000
C          21.436000      8.307000     -0.074000
H          21.379000      7.799000     -2.154000
H          21.005000      7.400000      0.366000
H          21.193000      9.179000      0.546000
H          22.488000      8.056000      0.108000
C          26.593000      1.643000      1.221000
C          26.606000      1.153000     -0.075000
N          26.850000      2.935000      1.547000
C          26.944000      2.078000     -1.100000
C          27.087000      3.814000      0.581000
C          27.243000      3.433000     -0.777000
C          27.611000      4.342000     -1.840000
C          28.419000      3.889000     -2.902000
C          27.136000      5.680000     -1.939000
N          28.618000      4.589000     -4.049000
N          26.404000      6.285000     -1.048000
C          27.453000      6.393000     -3.105000
C          28.159000      5.821000     -4.221000
S          25.962000      7.726000     -1.758000
N          26.804000      7.576000     -3.131000
C          28.411000      6.385000     -5.577000
S          28.023000      8.039000     -6.102000
C          29.113000      5.775000     -6.652000
C          28.392000      7.648000     -7.778000
S          29.841000      4.197000     -6.740000
C          29.025000      6.488000     -7.831000
C          27.978000      8.441000     -8.889000
C          30.045000      4.425000     -8.431000
C          29.524000      5.668000     -8.888000
N          28.529000      8.445000    -10.085000
S          26.537000      9.459000     -8.698000
C          27.881000      9.364000    -10.914000
C          26.803000      9.912000    -10.340000
C          26.096000      0.702000      2.320000
H          26.460000      0.093000     -0.260000
H          26.905000      1.710000     -2.121000
H          27.358000      4.834000      0.848000
H          28.781000      2.866000     -2.804000
H          30.548000      3.655000     -9.002000
H          29.549000      5.921000     -9.941000
H          28.313000      9.565000    -11.886000
H          26.077000     10.542000    -10.837000
H          25.325000      1.169000      2.946000
C          27.202000      0.289000      3.413000
H          25.551000     -0.187000      1.979000
H          27.366000      1.215000      3.977000
H          28.090000      0.030000      2.823000
C          26.677000     -0.911000      4.394000
H          25.732000     -0.559000      4.826000
C          27.719000     -1.309000      5.455000
H          26.512000     -1.825000      3.809000
H          27.070000     -1.592000      6.292000
H          28.263000     -0.389000      5.701000
C          28.556000     -2.556000      5.088000
H          28.950000     -2.869000      6.062000
C          29.514000     -2.423000      3.950000
H          27.996000     -3.468000      4.845000
H          30.211000     -1.657000      4.313000
H          29.007000     -2.124000      3.025000
H          30.131000     -3.317000      3.793000
$end

--------------------------------------------------------------

             Standard Nuclear Orientation (Angstroms)
    I     Atom           X                Y                Z
 ----------------------------------------------------------------
    1      C       1.8395807931     6.2097133327     0.8034127694
    2      C       1.6666562003     5.0016695096     1.4283905343
    3      N       2.8140142597     6.4849052300    -0.0413462725
    4      C       2.5713953319     4.0329518536     1.1209784221
    5      C       3.7158945400     5.5408656896    -0.3507122471
    6      C       3.6281123438     4.2275554385     0.2260602127
    7      C       4.5766965356     3.1118507979    -0.0806908033
    8      C       4.6761451652     2.0352548748     0.7997870150
    9      C       5.3414322255     2.9320178744    -1.2953123263
   10      N       5.3280699204     0.9033674736     0.5420390283
   11      N       5.6053415338     3.9049447236    -2.2173200395
   12      C       6.0658896672     1.7567829841    -1.5889351592
   13      C       6.0503842081     0.7348884508    -0.5684455005
   14      S       6.4533343954     3.2467914260    -3.4248097262
   15      N       6.7134576720     1.7751834469    -2.8081673365
   16      C       6.6441811192    -0.5928499510    -0.8850793027
   17      S       7.8243661694    -0.9292086551    -2.0825395607
   18      C       6.3435960487    -1.8022099214    -0.2603665067
   19      C       8.0585314826    -2.6355384091    -1.6518269226
   20      S       5.1456624545    -2.1985480988     0.9602080109
   21      C       7.1232380026    -2.8865928474    -0.6500600958
   22      C       8.8905983232    -3.5596248583    -2.2851712263
   23      C       5.8522590640    -3.8726024429     1.0162194772
   24      C       6.7929824483    -4.0745865712     0.0524996392
   25      N       9.3787186879    -4.5326556811    -1.5568858925
   26      S       9.6736160426    -3.2677641907    -3.8912003674
   27      C      10.2500102831    -5.2014194133    -2.2185096729
   28      C      10.7652112590    -4.5368717095    -3.3184325355
   29      C       1.0337703015     7.4865305911     1.0701338601
   30      H       0.9094445771     4.8161658616     2.1837533308
   31      H       2.4838664632     3.0161768418     1.4915985409
   32      H       4.5180467385     5.9341744824    -0.9726158119
   33      H       4.2710738289     2.0571862149     1.8102281210
   34      H       5.4606171633    -4.5706653659     1.7444019936
   35      H       7.3836617982    -4.9644239243    -0.1333750245
   36      H      10.8504909383    -5.9399850608    -1.7036798301
   37      H      11.6833973369    -4.6472310829    -3.8800989267
   38      H       1.4163774500     7.8706313215     2.0236633032
   39      C      -0.5224767598     7.3318823565     1.0617667879
   40      H       1.1591136772     8.2733670541     0.3153740183
   41      H      -1.0672719409     8.2373518895     1.3564498981
   42      H      -0.7580754453     6.5780978089     1.8231097561
   43      C      -1.1148982857     6.8699833331    -0.2638907952
   44      H      -0.9418894157     7.7246296025    -0.9290078414
   45      C      -2.6393488588     6.5609739919    -0.1137219656
   46      H      -0.5526806226     6.0206475690    -0.6719558135
   47      H      -3.0456863840     7.5447707059     0.1482758231
   48      H      -2.8856446596     5.8302797859     0.6672782621
   49      C      -3.2448288234     6.0784702165    -1.4425293705
   50      H      -2.9127852442     6.6740889452    -2.3021167085
   51      C      -4.7678696997     6.2073966149    -1.2332987017
   52      H      -3.0365374805     5.0260855830    -1.6745537217
   53      H      -5.3481890653     6.0640796072    -2.1523741444
   54      H      -4.9771225029     7.1958656719    -0.8055427110
   55      H      -5.2984025516     5.4655858397    -0.6241347936
   56      C      -9.5188964561    -0.8386437433    -1.9127323128
   57      C      -8.5102181088    -1.7191447694    -2.2693426530
   58      N      -9.4586220771    -0.0087237971    -0.8407300357
   59      C      -7.3693660447    -1.7542444978    -1.4221599236
   60      C      -8.3590991572     0.0136322685    -0.0974161350
   61      C      -7.2969820664    -0.9101770065    -0.2767055902
   62      C      -6.1350670806    -0.9905714183     0.5807116387
   63      C      -5.5401417681    -2.2413881830     0.8404004791
   64      C      -5.4778246639     0.1442263071     1.1338269324
   65      N      -4.3253602808    -2.3901236760     1.4298016084
   66      N      -5.8884651020     1.3754761798     1.0283367360
   67      C      -4.2733469618    -0.0773107802     1.8183477751
   68      C      -3.6411780101    -1.3660686852     1.9210194789
   69      S      -4.6531497076     2.2985611027     1.6590942975
   70      N      -3.6862703134     1.0944078286     2.1405007054
   71      C      -2.2961647186    -1.7259706398     2.4518168308
   72      S      -1.1728639726    -0.6176344534     3.2713724006
   73      C      -1.7125220928    -3.0198981081     2.5269300276
   74      C       0.1164794937    -1.8152075509     3.2335557123
   75      S      -2.3474834930    -4.5493203354     1.9926045923
   76      C      -0.3872149340    -2.9953282178     2.9130792933
   77      C       1.4943075171    -1.5065500921     3.4357598444
   78      C      -0.7967050297    -5.2428557544     2.2517875016
   79      C       0.1657853962    -4.2938811486     2.6972068293
   80      N       2.4299288908    -2.3533796354     3.8119584219
   81      S       2.0439947226     0.1405126376     3.0692706351
   82      C       3.6568961430    -1.6967389308     3.9347604863
   83      C       3.6076623933    -0.4225023955     3.5276225610
   84      C     -10.6891788492    -0.6839250794    -2.8857648176
   85      H      -8.6517812764    -2.4053638828    -3.0989233893
   86      H      -6.5555364198    -2.4054396479    -1.7271389691
   87      H      -8.3385729956     0.6306036967     0.7992749675
   88      H      -6.0625301085    -3.0988375746     0.4172362528
   89      H      -0.6683036718    -6.3048684822     2.0856789307
   90      H       1.1954299263    -4.5892028854     2.8586385903
   91      H       4.4865264469    -2.2448413385     4.3626697167
   92      H       4.4601147103     0.2329410725     3.4063628916
   93      H     -10.8947761358     0.3682527935    -3.1204081204
   94      C     -12.1121782018    -1.1797436170    -2.3221241341
   95      H     -10.5258806957    -1.0757215869    -3.8974249432
   96      H     -12.3625903191    -0.4322991139    -1.5598325321
   97      H     -11.9023209408    -2.1522860645    -1.8596891466
   98      C     -13.2532165467    -1.2283310497    -3.4941551733
   99      H     -13.2741314425    -0.2260902768    -3.9398333086
  100      C     -14.6250839181    -1.6880722813    -2.9683159246
  101      H     -12.9795812104    -1.9761515487    -4.2496246988
  102      H     -15.3010175979    -1.1164289563    -3.6149971207
  103      H     -14.6919260232    -1.3155099775    -1.9389561903
  104      C     -14.9280541510    -3.1854078249    -3.2059339121
  105      H     -16.0187327621    -3.2234383493    -3.1017473175
  106      C     -14.1121435761    -4.1755017878    -2.4414073409
  107      H     -14.8569901548    -3.5414859694    -4.2415744209
  108      H     -14.3767107790    -3.9498617093    -1.4005304268
  109      H     -13.0399938689    -4.0557141538    -2.6369090753
  110      H     -14.4299665978    -5.2145017727    -2.5964607459
 ----------------------------------------------------------------

   10   -5663.4964895841      5.73E-06 Convergence criterion met
 Total energy in the final basis set = -5663.4964895841

                    Orbital Energies (a.u.)
 --------------------------------------------------------------

 Alpha MOs
 -- Occupied --
-88.993 -88.987 -88.928 -88.925 -88.924 -88.922 -88.910 -88.905
-14.389 -14.388 -14.380 -14.378 -14.352 -14.348 -14.344 -14.344
-14.329 -14.322 -10.271 -10.269 -10.268 -10.268 -10.262 -10.260
-10.258 -10.253 -10.249 -10.242 -10.241 -10.239 -10.238 -10.235
-10.233 -10.232 -10.231 -10.230 -10.227 -10.227 -10.227 -10.226
-10.226 -10.226 -10.224 -10.224 -10.223 -10.220 -10.219 -10.215
-10.213 -10.209 -10.204 -10.203 -10.200 -10.199 -10.198 -10.193
-10.184 -10.184 -10.182 -10.181 -10.180 -10.180 -10.178 -10.177
-10.176 -10.174 -10.171 -10.169  -8.049  -8.043  -7.988  -7.985
 -7.984  -7.982  -7.971  -7.964  -6.014  -6.008  -6.008  -6.007
 -6.002  -6.000  -5.952  -5.949  -5.949  -5.949  -5.946  -5.946
 -5.945  -5.945  -5.942  -5.942  -5.941  -5.938  -5.935  -5.931
 -5.929  -5.927  -5.925  -5.921  -1.042  -1.037  -0.996  -0.968
 -0.965  -0.959  -0.948  -0.939  -0.919  -0.915  -0.910  -0.897
 -0.850  -0.843  -0.835  -0.835  -0.814  -0.807  -0.807  -0.806
 -0.805  -0.803  -0.799  -0.795  -0.788  -0.787  -0.773  -0.765
 -0.751  -0.751  -0.741  -0.739  -0.722  -0.721  -0.710  -0.710
 -0.695  -0.693  -0.677  -0.676  -0.654  -0.652  -0.650  -0.646
 -0.636  -0.636  -0.628  -0.624  -0.613  -0.613  -0.600  -0.594
 -0.592  -0.591  -0.589  -0.580  -0.579  -0.578  -0.569  -0.560
 -0.556  -0.555  -0.543  -0.542  -0.529  -0.525  -0.518  -0.514
 -0.510  -0.505  -0.503  -0.500  -0.490  -0.487  -0.480  -0.479
 -0.475  -0.472  -0.470  -0.467  -0.465  -0.460  -0.456  -0.451
 -0.446  -0.445  -0.444  -0.441  -0.439  -0.438  -0.436  -0.433
 -0.432  -0.428  -0.425  -0.423  -0.420  -0.420  -0.416  -0.414
 -0.414  -0.414  -0.408  -0.404  -0.403  -0.399  -0.398  -0.397
 -0.395  -0.394  -0.392  -0.389  -0.388  -0.387  -0.384  -0.383
 -0.382  -0.378  -0.378  -0.377  -0.365  -0.360  -0.360  -0.356
 -0.352  -0.350  -0.349  -0.349  -0.347  -0.346  -0.340  -0.338
 -0.336  -0.334  -0.333  -0.329  -0.329  -0.324  -0.324  -0.319
 -0.313  -0.312  -0.308  -0.305  -0.302  -0.302  -0.301  -0.300
 -0.298  -0.295  -0.294  -0.290  -0.289  -0.288  -0.284  -0.281
 -0.277  -0.274  -0.272  -0.268  -0.256  -0.251  -0.248  -0.247
 -0.246  -0.242  -0.234  -0.229  -0.195  -0.192

          Ground-State Mulliken Net Atomic Charges

     Atom                 Charge (a.u.)
  ----------------------------------------
      1 C                     0.267980
      2 C                    -0.109343
      3 N                    -0.474517
      4 C                    -0.083738
      5 C                     0.073398
      6 C                     0.030800
      7 C                     0.067437
      8 C                     0.040259
      9 C                     0.202470
     10 N                    -0.530001
     11 N                    -0.540034
     12 C                     0.196667
     13 C                     0.315595
     14 S                     0.622468
     15 N                    -0.558591
     16 C                    -0.233835
     17 S                     0.326135
     18 C                    -0.122978
     19 C                    -0.217265
     20 S                     0.277762
     21 C                     0.146105
     22 C                     0.020971
     23 C                    -0.328507
     24 C                    -0.029674
     25 N                    -0.373124
     26 S                     0.249453
     27 C                     0.120914
     28 C                    -0.303833
     29 C                    -0.220947
     30 H                     0.101376
     31 H                     0.104479
     32 H                     0.128259
     33 H                     0.101567
     34 H                     0.129445
     35 H                     0.121330
     36 H                     0.107380
     37 H                     0.136415
     38 H                     0.108864
     39 C                    -0.192845
     40 H                     0.116707
     41 H                     0.089259
     42 H                     0.079685
     43 C                    -0.178279
     44 H                     0.093337
     45 C                    -0.162940
     46 H                     0.095500
     47 H                     0.094312
     48 H                     0.092688
     49 C                    -0.174039
     50 H                     0.100172
     51 C                    -0.325434
     52 H                     0.097372
     53 H                     0.092698
     54 H                     0.101121
     55 H                     0.100780
     56 C                     0.282894
     57 C                    -0.113837
     58 N                    -0.487811
     59 C                    -0.094198
     60 C                     0.105548
     61 C                     0.024035
     62 C                     0.025183
     63 C                     0.061800
     64 C                     0.276606
     65 N                    -0.542811
     66 N                    -0.582326
     67 C                     0.164364
     68 C                     0.348930
     69 S                     0.590025
     70 N                    -0.540503
     71 C                    -0.218420
     72 S                     0.298635
     73 C                    -0.132352
     74 C                    -0.244956
     75 S                     0.300130
     76 C                     0.222316
     77 C                     0.063341
     78 C                    -0.306231
     79 C                    -0.084876
     80 N                    -0.448601
     81 S                     0.257091
     82 C                     0.121131
     83 C                    -0.289722
     84 C                    -0.242443
     85 H                     0.097805
     86 H                     0.104143
     87 H                     0.115110
     88 H                     0.113066
     89 H                     0.132237
     90 H                     0.117527
     91 H                     0.120753
     92 H                     0.143739
     93 H                     0.114804
     94 C                    -0.192098
     95 H                     0.093794
     96 H                     0.117697
     97 H                     0.097338
     98 C                    -0.184015
     99 H                     0.092404
    100 C                    -0.171399
    101 H                     0.092529
    102 H                     0.090965
    103 H                     0.097969
    104 C                    -0.183566
    105 H                     0.091607
    106 C                    -0.306783
    107 H                     0.088833
    108 H                     0.102827
    109 H                     0.108900
    110 H                     0.099642
  ----------------------------------------
  Sum of atomic charges =     0.000000

                    Cartesian Multipole Moments
 -----------------------------------------------------------------
    Charge (ESU x 10^10)
                 0.0000
    Dipole Moment (Debye)
         X       1.8539      Y      -2.0110      Z      -2.0058
       Tot       3.3918
    Quadrupole Moments (Debye-Ang)
        XX    -416.4267     XY      -8.6925     YY    -434.4978
        XZ       0.7312     YZ      14.1132     ZZ    -435.3923

 Total job time:  89.89s(wall), 1060.45s(cpu)
        *  Thank you very much for using Q-Chem.  Have a nice day.  *
