 Q-Chem 4.4, Q-Chem, Inc., Pleasanton, CA (2016)
 Q-Chem 4.4.2 for Intel X86 Linux

User input:
--------------------------------------------------------------
$comment
SP
$end

$rem
MEM_STATIC 5000
MEM_TOTAL 20000
JOBTYPE SP
EXCHANGE B3LYP
BASIS 6-31g(d,p)
$end

$molecule
0 1
C          17.173000     14.436000    -13.546000
C          17.800000     13.222000    -13.490000
N          17.549000     15.458000    -12.756000
C          18.966000     13.064000    -12.726000
C          18.645000     15.308000    -11.969000
C          19.432000     14.171000    -11.963000
C          20.678000     14.157000    -11.126000
C          20.580000     14.642000     -9.771000
C          21.909000     13.640000    -11.528000
N          21.699000     14.620000     -9.003000
N          22.151000     13.096000    -12.743000
C          22.974000     13.571000    -10.642000
C          22.858000     14.054000     -9.349000
S          23.682000     12.794000    -12.890000
N          24.134000     13.190000    -11.365000
C          23.865000     13.825000     -8.294000
S          25.343000     12.684000     -8.355000
C          23.811000     14.476000     -7.095000
C          25.599000     13.043000     -6.621000
S          22.713000     15.665000     -6.423000
C          24.749000     14.012000     -6.189000
C          26.668000     12.420000     -5.887000
C          23.543000     15.503000     -4.834000
C          24.656000     14.654000     -4.939000
N          27.758000     12.123000     -6.512000
S          26.490000     11.695000     -4.344000
C          28.635000     11.426000     -5.749000
C          28.102000     11.033000     -4.518000
C          15.915000     14.664000    -14.417000
H          17.439000     12.411000    -14.116000
H          19.477000     12.107000    -12.772000
H          18.934000     16.143000    -11.333000
H          19.763000     15.237000     -9.365000
H          23.196000     16.046000     -3.965000
H          25.192000     14.350000     -4.047000
H          29.626000     11.214000     -6.126000
H          28.612000     10.587000     -3.674000
H          15.539000     13.660000    -14.649000
C          16.267000     15.221000    -15.815000
H          15.113000     15.180000    -13.876000
H          17.290000     14.909000    -16.061000
H          16.325000     16.307000    -15.672000
C          15.215000     14.933000    -16.879000
H          15.074000     13.846000    -16.914000
C          15.424000     15.692000    -18.245000
H          14.379000     15.405000    -16.348000
H          16.272000     15.321000    -18.833000
H          15.744000     16.712000    -17.999000
C          14.105000     15.771000    -18.985000
H          13.411000     16.268000    -18.296000
C          13.594000     14.474000    -19.522000
H          14.265000     16.510000    -19.780000
H          14.441000     14.067000    -20.088000
H          12.847000     14.607000    -20.315000
H          13.380000     13.795000    -18.688000
C          26.593000      1.643000      1.221000
C          26.606000      1.153000     -0.075000
N          26.850000      2.935000      1.547000
C          26.944000      2.078000     -1.100000
C          27.087000      3.814000      0.581000
C          27.243000      3.433000     -0.777000
C          27.611000      4.342000     -1.840000
C          28.419000      3.889000     -2.902000
C          27.136000      5.680000     -1.939000
N          28.618000      4.589000     -4.049000
N          26.404000      6.285000     -1.048000
C          27.453000      6.393000     -3.105000
C          28.159000      5.821000     -4.221000
S          25.962000      7.726000     -1.758000
N          26.804000      7.576000     -3.131000
C          28.411000      6.385000     -5.577000
S          28.023000      8.039000     -6.102000
C          29.113000      5.775000     -6.652000
C          28.392000      7.648000     -7.778000
S          29.841000      4.197000     -6.740000
C          29.025000      6.488000     -7.831000
C          27.978000      8.441000     -8.889000
C          30.045000      4.425000     -8.431000
C          29.524000      5.668000     -8.888000
N          28.529000      8.445000    -10.085000
S          26.537000      9.459000     -8.698000
C          27.881000      9.364000    -10.914000
C          26.803000      9.912000    -10.340000
C          26.096000      0.702000      2.320000
H          26.460000      0.093000     -0.260000
H          26.905000      1.710000     -2.121000
H          27.358000      4.834000      0.848000
H          28.781000      2.866000     -2.804000
H          30.548000      3.655000     -9.002000
H          29.549000      5.921000     -9.941000
H          28.313000      9.565000    -11.886000
H          26.077000     10.542000    -10.837000
H          25.325000      1.169000      2.946000
C          27.202000      0.289000      3.413000
H          25.551000     -0.187000      1.979000
H          27.366000      1.215000      3.977000
H          28.090000      0.030000      2.823000
C          26.677000     -0.911000      4.394000
H          25.732000     -0.559000      4.826000
C          27.719000     -1.309000      5.455000
H          26.512000     -1.825000      3.809000
H          27.070000     -1.592000      6.292000
H          28.263000     -0.389000      5.701000
C          28.556000     -2.556000      5.088000
H          28.950000     -2.869000      6.062000
C          29.514000     -2.423000      3.950000
H          27.996000     -3.468000      4.845000
H          30.211000     -1.657000      4.313000
H          29.007000     -2.124000      3.025000
H          30.131000     -3.317000      3.793000
$end

--------------------------------------------------------------

             Standard Nuclear Orientation (Angstroms)
    I     Atom           X                Y                Z
 ----------------------------------------------------------------
    1      C     -10.9018929074    -3.1306080738    -0.2830520195
    2      C      -9.8678147939    -3.0225966088    -1.1713520694
    3      N     -10.8114214372    -2.6343198535     0.9641339792
    4      C      -8.7472224727    -2.2385701968    -0.8586358482
    5      C      -9.7107913627    -1.9160948046     1.3045032170
    6      C      -8.6859574028    -1.6239814588     0.4232772823
    7      C      -7.5665897114    -0.7357358160     0.8829691893
    8      C      -6.9841782362    -1.0064467826     2.1746217920
    9      C      -6.9903184309     0.2850042979     0.1278168661
   10      N      -5.9623055660    -0.2164480513     2.5919313300
   11      N      -7.3801050607     0.6262337444    -1.1221246717
   12      C      -5.8846650557     0.9785666221     0.5973740153
   13      C      -5.3507640459     0.7074169473     1.8463822481
   14      S      -6.6279965808     1.9254933236    -1.5727147077
   15      N      -5.6367583024     2.0696894959    -0.2752559842
   16      C      -4.0615719922     1.2467196965     2.3224614365
   17      S      -2.7763197489     2.1731463755     1.3325390761
   18      C      -3.6636422818     1.1164759275     3.6220792673
   19      C      -1.7081996774     2.0734591683     2.7644451392
   20      S      -4.3987307422     0.3858030500     5.0351153962
   21      C      -2.3655778284     1.5486481800     3.8323928876
   22      C      -0.3741574953     2.6108849211     2.7305185013
   23      C      -2.8669886697     0.6498620842     5.9429171642
   24      C      -1.9450308964     1.3667983815     5.1640775082
   25      N      -0.1407971604     3.6438088231     1.9919082070
   26      S       1.0187156747     1.7823858080     3.2887761049
   27      C       1.1725071664     3.9751422005     1.9413420321
   28      C       2.0020269076     3.0313440107     2.5537479236
   29      C     -12.1765785422    -3.9433935888    -0.6112977185
   30      H      -9.9664835807    -3.4726762018    -2.1550241847
   31      H      -7.9854879033    -2.1146374689    -1.6224991375
   32      H      -9.6512319936    -1.5243977102     2.3185387528
   33      H      -7.4224251079    -1.6298072045     2.9528964632
   34      H      -2.7559540357     0.3057822410     6.9625736610
   35      H      -0.9278543484     1.5008347551     5.5144517663
   36      H       1.4791310725     4.8846539349     1.4434221740
   37      H       3.0597902324     3.1035761664     2.7711674818
   38      H     -11.9015419729    -4.5806314541    -1.4607085665
   39      C     -13.2955388346    -3.0581904323    -1.2053517867
   40      H     -12.4702959079    -4.6175119254     0.2019891788
   41      H     -12.8271472082    -2.1907509309    -1.6875830546
   42      H     -13.8188315257    -2.6522801131    -0.3309316519
   43      C     -14.3034138254    -3.8218934619    -2.0554633592
   44      H     -13.7431346183    -4.3309399719    -2.8489580729
   45      C     -15.5835496243    -3.0001698894    -2.4698794624
   46      H     -14.5926536564    -4.5396549352    -1.2777746120
   47      H     -15.3874737484    -2.2201738644    -3.2152984398
   48      H     -15.8832254643    -2.4109468808    -1.5944786187
   49      C     -16.7081671282    -3.9558885936    -2.8096429513
   50      H     -16.8434255563    -4.5793702600    -1.9172631166
   51      C     -16.5239380085    -4.7389944905    -4.0684136952
   52      H     -17.6129572859    -3.3360869761    -2.8404118550
   53      H     -16.2920823349    -3.9786945741    -4.8244566727
   54      H     -17.4653717916    -5.1496107250    -4.4552518267
   55      H     -15.6521934292    -5.3957532041    -3.9629509980
   56      C      10.7873405191    -3.2226343042    -0.1092056969
   57      C      10.2103786201    -3.0453439758    -1.3564298574
   58      N      10.3523703709    -2.6127642757     1.0223633547
   59      C       9.1181345954    -2.1384519333    -1.4274496693
   60      C       9.2829116833    -1.8283962187     0.9676745373
   61      C       8.6621455839    -1.4674932083    -0.2562778584
   62      C       7.5669512455    -0.5294998743    -0.3675966197
   63      C       7.4746194656     0.3103820283    -1.4954220636
   64      C       6.4969169232    -0.4454573927     0.5670869687
   65      N       6.3727942492     1.0440068477    -1.8003578223
   66      N       6.4170126045    -1.1173377957     1.6797064112
   67      C       5.4263379591     0.4034212023     0.2482142466
   68      C       5.3235352577     1.1234056502    -0.9936110226
   69      S       4.8883366656    -0.8051691659     2.2642110051
   70      N       4.4212480188     0.2566206163     1.1368141565
   71      C       4.1848523988     1.9105931954    -1.5450392733
   72      S       2.6780624570     2.2990259276    -0.6844644168
   73      C       4.1305109304     2.6024561653    -2.7855640153
   74      C       1.9423078911     2.9308622493    -2.1532959529
   75      S       5.3280632256     2.7075273870    -4.0435944357
   76      C       2.8734520518     3.0925247849    -3.0784628441
   77      C       0.5405193125     3.1402411762    -2.3136556920
   78      C       4.1420676839     3.4190755801    -5.0634938151
   79      C       2.8669224131     3.5222956461    -4.4400444137
   80      N      -0.0264143072     3.9505431665    -3.1831555226
   81      S      -0.5677819222     2.1681804681    -1.3257020732
   82      C      -1.4156117337     3.9215699725    -3.0382518846
   83      C      -1.8272004172     3.0034138572    -2.1553883031
   84      C      11.8692103063    -4.2970672155     0.0150628944
   85      H      10.6512947366    -3.5094858368    -2.2335309411
   86      H       8.6312829499    -2.0363205719    -2.3928152272
   87      H       8.9758925867    -1.2885493521     1.8617856238
   88      H       8.3072647179     0.2391821141    -2.1945711579
   89      H       4.4352491684     3.7420448550    -6.0542942313
   90      H       2.0176663128     3.9141774565    -4.9865201430
   91      H      -2.0007736899     4.6373214177    -3.6013632001
   92      H      -2.8551071095     2.7126798770    -1.9825687883
   93      H      11.6755116035    -4.9835970031     0.8490674887
   94      C      13.3367710669    -3.7456422060     0.3765181099
   95      H      11.9282844398    -5.0151713958    -0.8122602788
   96      H      13.2388781199    -3.4138921386     1.4171077810
   97      H      13.4825155431    -2.8889318253    -0.2932063643
   98      C      14.4806617895    -4.9073842044     0.2356084085
   99      H      14.1481346716    -5.7397743132     0.8681472790
  100      C      15.8896539151    -4.3993354283     0.5913001726
  101      H      14.5568290586    -5.2301502484    -0.8107503387
  102      H      16.3372923509    -5.3030916210     1.0210717108
  103      H      15.7476764117    -3.6458387053     1.3754794104
  104      C      16.7503000730    -4.0036273253    -0.6305714607
  105      H      17.7657971600    -4.0215148265    -0.2178649019
  106      C      16.3244285520    -2.7980750894    -1.4024356028
  107      H      16.8825267991    -4.7693413447    -1.4055496110
  108      H      16.4199546832    -1.9942077073    -0.6614862183
  109      H      15.3006991637    -2.8992570842    -1.7816655377
  110      H      17.0204145417    -2.5272724773    -2.2067013844
 ----------------------------------------------------------------

    9   -5663.4966259049      6.95E-06 Convergence criterion met
 Total energy in the final basis set = -5663.4966259049

                    Orbital Energies (a.u.)
 --------------------------------------------------------------

 Alpha MOs
 -- Occupied --
-88.998 -88.987 -88.928 -88.928 -88.922 -88.918 -88.912 -88.909
-14.388 -14.383 -14.379 -14.375 -14.348 -14.348 -14.339 -14.338
-14.329 -14.327 -10.268 -10.263 -10.263 -10.262 -10.258 -10.254
-10.253 -10.253 -10.248 -10.246 -10.242 -10.240 -10.239 -10.233
-10.232 -10.232 -10.231 -10.230 -10.229 -10.228 -10.228 -10.227
-10.227 -10.225 -10.223 -10.222 -10.219 -10.219 -10.215 -10.214
-10.213 -10.213 -10.206 -10.205 -10.200 -10.200 -10.197 -10.196
-10.186 -10.185 -10.184 -10.182 -10.181 -10.180 -10.178 -10.178
-10.177 -10.173 -10.171 -10.171  -8.054  -8.043  -7.990  -7.984
 -7.981  -7.979  -7.971  -7.969  -6.019  -6.013  -6.012  -6.008
 -6.003  -6.000  -5.953  -5.950  -5.949  -5.947  -5.946  -5.945
 -5.942  -5.942  -5.941  -5.939  -5.938  -5.936  -5.935  -5.933
 -5.932  -5.930  -5.927  -5.926  -1.043  -1.041  -0.982  -0.963
 -0.960  -0.959  -0.939  -0.937  -0.917  -0.912  -0.910  -0.888
 -0.847  -0.836  -0.835  -0.835  -0.812  -0.809  -0.807  -0.805
 -0.801  -0.800  -0.797  -0.794  -0.790  -0.786  -0.772  -0.763
 -0.755  -0.749  -0.744  -0.740  -0.725  -0.720  -0.710  -0.710
 -0.693  -0.693  -0.676  -0.675  -0.657  -0.655  -0.653  -0.646
 -0.635  -0.635  -0.629  -0.624  -0.613  -0.612  -0.605  -0.596
 -0.593  -0.589  -0.585  -0.581  -0.579  -0.577  -0.566  -0.560
 -0.553  -0.549  -0.542  -0.541  -0.524  -0.524  -0.519  -0.510
 -0.505  -0.505  -0.501  -0.497  -0.491  -0.487  -0.478  -0.478
 -0.474  -0.472  -0.470  -0.470  -0.464  -0.460  -0.457  -0.454
 -0.450  -0.445  -0.445  -0.440  -0.437  -0.435  -0.433  -0.433
 -0.432  -0.427  -0.427  -0.421  -0.420  -0.418  -0.416  -0.414
 -0.413  -0.411  -0.411  -0.404  -0.404  -0.399  -0.397  -0.395
 -0.394  -0.394  -0.393  -0.392  -0.391  -0.387  -0.386  -0.383
 -0.379  -0.378  -0.377  -0.377  -0.370  -0.365  -0.360  -0.358
 -0.356  -0.355  -0.349  -0.347  -0.346  -0.346  -0.339  -0.338
 -0.334  -0.332  -0.328  -0.327  -0.326  -0.324  -0.321  -0.319
 -0.316  -0.313  -0.307  -0.305  -0.303  -0.302  -0.301  -0.298
 -0.296  -0.295  -0.294  -0.285  -0.283  -0.282  -0.278  -0.275
 -0.273  -0.271  -0.267  -0.260  -0.255  -0.252  -0.251  -0.250
 -0.249  -0.243  -0.237  -0.229  -0.196  -0.191

          Ground-State Mulliken Net Atomic Charges

     Atom                 Charge (a.u.)
  ----------------------------------------
      1 C                     0.275555
      2 C                    -0.117658
      3 N                    -0.491678
      4 C                    -0.054185
      5 C                     0.069329
      6 C                     0.047343
      7 C                    -0.020444
      8 C                     0.065163
      9 C                     0.234027
     10 N                    -0.517412
     11 N                    -0.541404
     12 C                     0.163525
     13 C                     0.306068
     14 S                     0.629239
     15 N                    -0.563616
     16 C                    -0.218159
     17 S                     0.341359
     18 C                    -0.106336
     19 C                    -0.232182
     20 S                     0.280170
     21 C                     0.179612
     22 C                     0.044085
     23 C                    -0.306310
     24 C                    -0.083926
     25 N                    -0.406349
     26 S                     0.271216
     27 C                     0.117416
     28 C                    -0.297139
     29 C                    -0.224374
     30 H                     0.088623
     31 H                     0.108283
     32 H                     0.100668
     33 H                     0.129007
     34 H                     0.134090
     35 H                     0.105265
     36 H                     0.123914
     37 H                     0.139009
     38 H                     0.089742
     39 C                    -0.188647
     40 H                     0.116274
     41 H                     0.092069
     42 H                     0.107046
     43 C                    -0.172398
     44 H                     0.091879
     45 C                    -0.177919
     46 H                     0.098192
     47 H                     0.090815
     48 H                     0.092471
     49 C                    -0.171029
     50 H                     0.091570
     51 C                    -0.309051
     52 H                     0.083939
     53 H                     0.099912
     54 H                     0.104028
     55 H                     0.109079
     56 C                     0.282980
     57 C                    -0.113806
     58 N                    -0.487869
     59 C                    -0.094450
     60 C                     0.105480
     61 C                     0.023558
     62 C                     0.023876
     63 C                     0.061152
     64 C                     0.275713
     65 N                    -0.542750
     66 N                    -0.583394
     67 C                     0.161777
     68 C                     0.348013
     69 S                     0.586388
     70 N                    -0.541682
     71 C                    -0.231727
     72 S                     0.318766
     73 C                    -0.135034
     74 C                    -0.257080
     75 S                     0.295941
     76 C                     0.224972
     77 C                     0.062857
     78 C                    -0.308168
     79 C                    -0.085040
     80 N                    -0.447916
     81 S                     0.279796
     82 C                     0.120526
     83 C                    -0.301756
     84 C                    -0.242377
     85 H                     0.097616
     86 H                     0.104109
     87 H                     0.113976
     88 H                     0.112794
     89 H                     0.131140
     90 H                     0.119840
     91 H                     0.115219
     92 H                     0.135931
     93 H                     0.114615
     94 C                    -0.192182
     95 H                     0.093783
     96 H                     0.117520
     97 H                     0.097347
     98 C                    -0.183954
     99 H                     0.092416
    100 C                    -0.171505
    101 H                     0.092478
    102 H                     0.091083
    103 H                     0.097818
    104 C                    -0.183841
    105 H                     0.091787
    106 C                    -0.307252
    107 H                     0.089022
    108 H                     0.102861
    109 H                     0.109004
    110 H                     0.099866
  ----------------------------------------
  Sum of atomic charges =     0.000000

                    Cartesian Multipole Moments
 -----------------------------------------------------------------
    Charge (ESU x 10^10)
                 0.0000
    Dipole Moment (Debye)
         X       0.4771      Y      -1.3757      Z      -1.9630
       Tot       2.4441
    Quadrupole Moments (Debye-Ang)
        XX    -431.8170     XY      -5.2102     YY    -448.1653
        XZ       9.7520     YZ       4.4805     ZZ    -421.7578

 Total job time:  80.44s(wall), 945.62s(cpu)
        *  Thank you very much for using Q-Chem.  Have a nice day.  *
