 Q-Chem 4.4, Q-Chem, Inc., Pleasanton, CA (2016)
 Q-Chem 4.4.2 for Intel X86 Linux

User input:
--------------------------------------------------------------
$comment
SP
$end

$rem
MEM_STATIC 5000
MEM_TOTAL 20000
JOBTYPE SP
EXCHANGE B3LYP
BASIS 6-31g(d,p)
$end

$molecule
0 1
C          13.337000     -0.656000     -7.454000
C          12.165000     -0.266000     -8.087000
N          14.334000      0.218000     -7.062000
C          12.173000      1.039000     -8.600000
C          14.256000      1.457000     -7.475000
C          13.244000      1.924000     -8.344000
C          13.172000      3.288000     -8.929000
C          12.070000      4.053000     -8.798000
C          14.341000      3.929000     -9.497000
N          12.014000      5.397000     -9.102000
N          15.496000      3.311000     -9.776000
C          14.265000      5.298000     -9.767000
C          13.061000      6.055000     -9.615000
S          16.437000      4.491000    -10.280000
N          15.439000      5.751000    -10.280000
C          12.941000      7.518000     -9.862000
S          14.301000      8.620000    -10.325000
C          11.843000      8.258000     -9.572000
C          13.232000     10.026000    -10.200000
S          10.281000      7.788000     -9.022000
C          11.982000      9.657000     -9.762000
C          13.608000     11.443000    -10.070000
C           9.882000      9.512000     -8.893000
C          10.913000     10.398000     -9.220000
N          12.726000     12.390000    -10.428000
S          15.231000     11.946000     -9.860000
C          13.402000     13.580000    -10.604000
C          14.751000     13.454000    -10.437000
C          13.453000     -1.978000     -6.784000
H          11.303000     -0.919000     -8.179000
H          11.308000      1.436000     -9.122000
H          15.056000      2.134000     -7.179000
H          11.128000      3.639000     -8.442000
H           8.906000      9.843000     -8.565000
H          10.785000     11.469000     -9.115000
H          12.909000     14.520000    -10.813000
H          15.415000     14.248000    -10.750000
H          14.483000     -2.302000     -6.591000
C          12.852000     -3.187000     -7.628000
H          12.891000     -1.960000     -5.841000
H          13.064000     -3.007000     -8.689000
H          11.767000     -3.324000     -7.552000
C          13.670000     -4.501000     -7.280000
H          13.283000     -5.224000     -8.009000
C          13.427000     -5.224000     -5.899000
H          14.734000     -4.450000     -7.543000
H          12.359000     -5.244000     -5.649000
H          13.833000     -4.579000     -5.111000
C          13.996000     -6.594000     -5.654000
H          13.758000     -6.778000     -4.599000
C          15.552000     -6.779000     -5.740000
H          13.513000     -7.271000     -6.371000
H          15.762000     -7.706000     -5.192000
H          16.078000     -5.943000     -5.263000
H          15.800000     -6.757000     -6.808000
C          10.022000      0.316000     -5.542000
C           9.915000     -1.075000     -5.354000
N           9.164000      0.963000     -6.374000
C           8.991000     -1.770000     -6.180000
C           8.386000      0.316000     -7.180000
C           8.224000     -1.083000     -7.154000
C           7.269000     -1.890000     -8.122000
C           7.176000     -1.613000     -9.517000
C           6.419000     -2.879000     -7.702000
N           6.417000     -2.226000    -10.445000
N           6.221000     -3.132000     -6.402000
C           5.619000     -3.573000     -8.600000
C           5.577000     -3.173000     -9.977000
S           5.320000     -4.580000     -6.365000
N           4.966000     -4.609000     -7.987000
C           4.655000     -3.786000    -10.960000
S           3.235000     -4.872000    -10.570000
C           4.677000     -3.505000    -12.326000
C           2.871000     -5.086000    -12.298000
S           5.788000     -2.584000    -13.325000
C           3.782000     -4.368000    -13.033000
C           1.973000     -6.063000    -12.839000
C           4.928000     -3.254000    -14.749000
C           3.972000     -4.228000    -14.433000
N           2.399000     -6.668000    -13.963000
S           0.367000     -6.456000    -12.139000
C           1.383000     -7.457000    -14.361000
C           0.222000     -7.505000    -13.537000
C          11.144000      1.028000     -4.796000
H          10.550000     -1.643000     -4.681000
H           8.896000     -2.849000     -6.096000
H           7.910000      0.892000     -7.972000
H           7.853000     -0.849000     -9.897000
H           5.313000     -2.978000    -15.722000
H           3.287000     -4.682000    -15.139000
H           1.450000     -8.089000    -15.236000
H          -0.617000     -8.188000    -13.526000
H          12.115000      0.683000     -5.172000
C          11.251000      0.882000     -3.304000
H          11.032000      2.105000     -4.971000
H          12.106000      1.483000     -2.970000
H          11.473000     -0.130000     -2.946000
C           9.869000      1.416000     -2.817000
H           9.868000      2.439000     -3.215000
C           9.744000      1.457000     -1.311000
H           9.078000      0.760000     -3.202000
H           8.773000      1.933000     -1.127000
H          10.485000      2.147000     -0.890000
C           9.759000      0.035000     -0.692000
H           8.971000     -0.507000     -1.230000
C           9.363000      0.017000      0.816000
H          10.699000     -0.528000     -0.739000
H           8.343000     -0.378000      0.896000
H           9.258000      1.021000      1.246000
H          10.045000     -0.623000      1.389000
$end

--------------------------------------------------------------

             Standard Nuclear Orientation (Angstroms)
    I     Atom           X                Y                Z
 ----------------------------------------------------------------
    1      C       0.8419906279     3.4802375092     2.1009449721
    2      C       0.4539731611     2.2468390480     1.5964217502
    3      N       2.1532247541     3.9140846378     2.1641172379
    4      C       1.4917400607     1.3174784170     1.4364633820
    5      C       3.0964266155     3.0443065113     1.9079332041
    6      C       2.8425996308     1.6815500937     1.6325047958
    7      C       3.8782203046     0.6327223587     1.4444750049
    8      C       3.9000350100    -0.1460075680     0.3445232697
    9      C       5.0166152499     0.5269608400     2.3349453580
   10      N       4.9508636937    -0.9664077587    -0.0084506737
   11      N       5.1336655624     1.1592978520     3.5097811455
   12      C       6.0795482958    -0.2883736910     1.9371515139
   13      C       6.0391984524    -1.0994886206     0.7597673534
   14      S       6.5930916463     0.7608310551     4.0029309376
   15      N       7.0703690537    -0.2713985163     2.8670117555
   16      C       7.1566951928    -1.9590826955     0.2821932108
   17      S       8.7904630917    -2.0820977362     1.0529349006
   18      C       7.1730091113    -2.6053856376    -0.9091633114
   19      C       9.3582053758    -3.1170729165    -0.2668063903
   20      S       5.9533170715    -2.7835217618    -2.1107717540
   21      C       8.3878303299    -3.2642238096    -1.2297310421
   22      C      10.7467686522    -3.4222301094    -0.6475111515
   23      C       7.1594657753    -3.6098556055    -3.1159561566
   24      C       8.4416036513    -3.7061943337    -2.5666590453
   25      N      11.0025008120    -4.5347879196    -1.3544150923
   26      S      12.0892690286    -2.6537880377     0.0862650553
   27      C      12.3478570072    -4.8240215719    -1.2523729332
   28      C      13.0150347539    -3.9631801435    -0.4293347266
   29      C      -0.1274711059     4.5978436771     2.2463423596
   30      H      -0.5752299078     2.0150090538     1.3416416554
   31      H       1.2908306758     0.3201099224     1.0580330645
   32      H       4.1270576820     3.3886175924     1.9800059757
   33      H       3.0589184942    -0.1804318377    -0.3460083925
   34      H       6.9105270956    -3.9945459309    -4.0956315555
   35      H       9.2602135630    -4.1401725257    -3.1287895828
   36      H      12.8282793422    -5.6245605813    -1.7988724067
   37      H      14.0164703736    -4.1960058977    -0.0943423868
   38      H       0.1996310460     5.3999059898     2.9192652591
   39      C      -1.5287417463     4.1635543987     2.8652538354
   40      H      -0.3520464402     5.0174554677     1.2569441261
   41      H      -1.3471603744     3.3950503085     3.6264993075
   42      H      -2.2446479357     3.7296269352     2.1574718883
   43      C      -2.1234527332     5.3898816628     3.6772047473
   44      H      -2.9950401692     4.9470435455     4.1753701248
   45      C      -2.7437728032     6.6114619123     2.8949747909
   46      H      -1.5052643991     5.7081443559     4.5259791824
   47      H      -3.3397276086     6.2683899379     2.0401862262
   48      H      -1.9209872624     7.1410727379     2.4006658519
   49      C      -3.5327321076     7.6576387006     3.6323643377
   50      H      -3.7326910203     8.4101451272     2.8595283195
   51      C      -2.8183467771     8.4570111700     4.7784072054
   52      H      -4.4193713754     7.1560492038     4.0422250282
   53      H      -3.4195868907     9.3647230546     4.9136937910
   54      H      -1.7960053637     8.7327295446     4.4922282188
   55      H      -2.7472347573     7.7675892200     5.6282615785
   56      C      -0.0644684953     2.8392813543    -1.6881525544
   57      C      -1.2548952033     3.5094415983    -1.3483827787
   58      N      -0.0806017441     1.5069321645    -1.9557013438
   59      C      -2.4127800076     2.7101807853    -1.1494809619
   60      C      -1.1153637411     0.7764823590    -1.6925669841
   61      C      -2.3563446284     1.2999830085    -1.2802145776
   62      C      -3.6353396252     0.4248321737    -0.9662387591
   63      C      -3.5721066019    -0.7904508380    -0.2242874222
   64      C      -4.8931596990     0.7259725510    -1.4181504043
   65      N      -4.5780534136    -1.6175567531     0.1177664000
   66      N      -5.1076952429     1.7124043038    -2.2980026063
   67      C      -5.9864107754    -0.0653181297    -1.0914989957
   68      C      -5.7917936040    -1.2927394426    -0.3749418959
   69      S      -6.8030845209     1.8910508589    -2.3581241864
   70      N      -7.1567350447     0.5006968813    -1.5221288971
   71      C      -6.8937059085    -2.2437523334    -0.1038224487
   72      S      -8.5538827237    -2.2128405119    -0.8724272897
   73      C      -6.7602648341    -3.3806863003     0.6930311354
   74      C      -9.0740622713    -3.6107434254     0.0968800314
   75      S      -5.4586573916    -3.9581293037     1.7191600959
   76      C      -8.0306084702    -4.0051734047     0.8976915925
   77      C     -10.4265659909    -4.0637959128     0.2350506941
   78      C      -6.6083152858    -5.1865780118     2.3400276324
   79      C      -7.9217002021    -5.0237654323     1.8807019030
   80      N     -10.7763843395    -4.4429119645     1.4779405293
   81      S     -11.5954373076    -4.1832750984    -1.1225757528
   82      C     -12.0287713611    -4.9264841797     1.3737020482
   83      C     -12.6536453221    -4.8718792585     0.0947369058
   84      C       1.2121309384     3.6711955993    -1.7117443882
   85      H      -1.3117576472     4.5760168574    -1.1535446942
   86      H      -3.3479268299     3.1773163371    -0.8534965082
   87      H      -0.9722464929    -0.3028092436    -1.7087870311
   88      H      -2.5934886669    -1.0546805128     0.1743535392
   89      H      -6.2434293673    -5.8414243144     3.1205175981
   90      H      -8.7372255443    -5.7125737596     2.0657383975
   91      H     -12.5822909855    -5.2879953641     2.2295429732
   92      H     -13.6863212398    -5.0018231009    -0.2006036547
   93      H       1.4428560493     4.0230127777    -0.6987129986
   94      C       1.2724754045     4.9118726608    -2.5578578408
   95      H       2.0220519783     3.0315869283    -2.0832637781
   96      H       2.2744693616     5.3444814690    -2.4454312921
   97      H       0.5926279644     5.7179242790    -2.2583912368
   98      C       0.9755884279     4.3568258717    -3.9847531366
   99      H       1.7853542349     3.6277424483    -4.1176090719
  100      C       1.0607972140     5.4124520529    -5.0635185553
  101      H      -0.0398830670     3.9411381603    -4.0009818036
  102      H       0.9224478526     4.8609527264    -6.0015915520
  103      H       2.0791015615     5.8157762360    -5.1165077914
  104      C      -0.0518473715     6.4823912396    -4.9127798307
  105      H      -0.9841088493     5.9050750142    -4.8709885311
  106      C      -0.1672301222     7.4272021524    -6.1477790858
  107      H       0.0085132406     7.1579863657    -4.0509760119
  108      H      -1.0587869646     7.1371908528    -6.7168527567
  109      H       0.6353659555     7.2780611659    -6.8809485764
  110      H      -0.2650729515     8.4722595319    -5.8294477266
 ----------------------------------------------------------------

   10   -5663.4922019391      3.88E-06 Convergence criterion met
 Total energy in the final basis set = -5663.4922019391

                    Orbital Energies (a.u.)
 --------------------------------------------------------------

 Alpha MOs
 -- Occupied --
-88.987 -88.985 -88.937 -88.927 -88.926 -88.924 -88.916 -88.906
-14.391 -14.382 -14.380 -14.377 -14.358 -14.356 -14.345 -14.340
-14.329 -14.326 -10.277 -10.271 -10.264 -10.264 -10.259 -10.254
-10.252 -10.249 -10.248 -10.243 -10.243 -10.240 -10.238 -10.237
-10.236 -10.236 -10.236 -10.231 -10.228 -10.228 -10.226 -10.225
-10.224 -10.224 -10.223 -10.221 -10.218 -10.218 -10.216 -10.215
-10.211 -10.208 -10.207 -10.203 -10.202 -10.201 -10.196 -10.192
-10.188 -10.182 -10.182 -10.179 -10.179 -10.178 -10.177 -10.177
-10.175 -10.171 -10.171 -10.169  -8.042  -8.042  -7.998  -7.989
 -7.985  -7.982  -7.975  -7.966  -6.008  -6.007  -6.002  -6.001
 -6.000  -5.999  -5.961  -5.958  -5.955  -5.952  -5.950  -5.949
 -5.947  -5.946  -5.946  -5.943  -5.942  -5.939  -5.939  -5.936
 -5.931  -5.930  -5.927  -5.922  -1.049  -1.023  -0.976  -0.967
 -0.962  -0.951  -0.948  -0.938  -0.910  -0.907  -0.906  -0.894
 -0.838  -0.837  -0.832  -0.827  -0.815  -0.814  -0.813  -0.805
 -0.803  -0.801  -0.796  -0.795  -0.786  -0.783  -0.766  -0.764
 -0.746  -0.745  -0.740  -0.739  -0.721  -0.718  -0.708  -0.705
 -0.697  -0.691  -0.674  -0.669  -0.658  -0.652  -0.643  -0.641
 -0.634  -0.632  -0.626  -0.624  -0.611  -0.611  -0.600  -0.595
 -0.593  -0.585  -0.585  -0.582  -0.581  -0.575  -0.560  -0.555
 -0.552  -0.547  -0.539  -0.538  -0.522  -0.522  -0.514  -0.506
 -0.505  -0.504  -0.498  -0.497  -0.493  -0.486  -0.477  -0.476
 -0.473  -0.470  -0.469  -0.467  -0.466  -0.464  -0.451  -0.448
 -0.447  -0.444  -0.441  -0.438  -0.435  -0.432  -0.432  -0.429
 -0.428  -0.424  -0.422  -0.420  -0.419  -0.414  -0.413  -0.410
 -0.408  -0.407  -0.402  -0.400  -0.400  -0.398  -0.396  -0.396
 -0.394  -0.390  -0.389  -0.387  -0.387  -0.386  -0.385  -0.382
 -0.381  -0.379  -0.378  -0.372  -0.365  -0.365  -0.358  -0.354
 -0.353  -0.352  -0.349  -0.347  -0.346  -0.344  -0.344  -0.341
 -0.337  -0.336  -0.333  -0.331  -0.329  -0.328  -0.317  -0.317
 -0.315  -0.309  -0.308  -0.304  -0.304  -0.303  -0.302  -0.299
 -0.298  -0.296  -0.293  -0.291  -0.288  -0.286  -0.283  -0.283
 -0.282  -0.269  -0.268  -0.263  -0.253  -0.251  -0.248  -0.246
 -0.245  -0.243  -0.233  -0.230  -0.197  -0.192

          Ground-State Mulliken Net Atomic Charges

     Atom                 Charge (a.u.)
  ----------------------------------------
      1 C                     0.236666
      2 C                    -0.092509
      3 N                    -0.475495
      4 C                    -0.091584
      5 C                     0.107326
      6 C                     0.046177
      7 C                     0.026558
      8 C                     0.052346
      9 C                     0.209481
     10 N                    -0.553184
     11 N                    -0.531202
     12 C                     0.168651
     13 C                     0.349579
     14 S                     0.601920
     15 N                    -0.546097
     16 C                    -0.224039
     17 S                     0.318211
     18 C                    -0.096301
     19 C                    -0.217848
     20 S                     0.293621
     21 C                     0.134778
     22 C                     0.024358
     23 C                    -0.310756
     24 C                    -0.046588
     25 N                    -0.421432
     26 S                     0.287544
     27 C                     0.115243
     28 C                    -0.305364
     29 C                    -0.217092
     30 H                     0.106097
     31 H                     0.097653
     32 H                     0.099222
     33 H                     0.127899
     34 H                     0.120787
     35 H                     0.129603
     36 H                     0.116015
     37 H                     0.127692
     38 H                     0.121256
     39 C                    -0.201188
     40 H                     0.115525
     41 H                     0.103302
     42 H                     0.094285
     43 C                    -0.199123
     44 H                     0.084112
     45 C                    -0.171529
     46 H                     0.099327
     47 H                     0.082956
     48 H                     0.085891
     49 C                    -0.176867
     50 H                     0.092496
     51 C                    -0.316422
     52 H                     0.092939
     53 H                     0.106673
     54 H                     0.103180
     55 H                     0.107402
     56 C                     0.276614
     57 C                    -0.112199
     58 N                    -0.476218
     59 C                    -0.072521
     60 C                     0.076697
     61 C                     0.037613
     62 C                     0.014688
     63 C                     0.054901
     64 C                     0.234198
     65 N                    -0.521897
     66 N                    -0.570001
     67 C                     0.234628
     68 C                     0.316045
     69 S                     0.586387
     70 N                    -0.567870
     71 C                    -0.224303
     72 S                     0.312069
     73 C                    -0.112169
     74 C                    -0.229903
     75 S                     0.297655
     76 C                     0.161591
     77 C                     0.035788
     78 C                    -0.321001
     79 C                    -0.036114
     80 N                    -0.409614
     81 S                     0.285118
     82 C                     0.125456
     83 C                    -0.309604
     84 C                    -0.244037
     85 H                     0.098706
     86 H                     0.103117
     87 H                     0.098756
     88 H                     0.103742
     89 H                     0.130778
     90 H                     0.114831
     91 H                     0.113240
     92 H                     0.136360
     93 H                     0.123265
     94 C                    -0.181351
     95 H                     0.113328
     96 H                     0.098979
     97 H                     0.090159
     98 C                    -0.170844
     99 H                     0.093480
    100 C                    -0.178416
    101 H                     0.103459
    102 H                     0.088886
    103 H                     0.088293
    104 C                    -0.174275
    105 H                     0.096698
    106 C                    -0.330921
    107 H                     0.096191
    108 H                     0.102680
    109 H                     0.105688
    110 H                     0.101021
  ----------------------------------------
  Sum of atomic charges =     0.000000

                    Cartesian Multipole Moments
 -----------------------------------------------------------------
    Charge (ESU x 10^10)
                 0.0000
    Dipole Moment (Debye)
         X      -2.6795      Y      -0.2077      Z      -0.2755
       Tot       2.7016
    Quadrupole Moments (Debye-Ang)
        XX    -350.6837     XY       6.8120     YY    -432.0115
        XZ       2.9567     YZ      -3.4809     ZZ    -445.9659

 Total job time:  91.16s(wall), 1084.21s(cpu)
        *  Thank you very much for using Q-Chem.  Have a nice day.  *
