 Q-Chem 4.4, Q-Chem, Inc., Pleasanton, CA (2016)
 Q-Chem 4.4.2 for Intel X86 Linux

User input:
--------------------------------------------------------------
$comment
SP
$end

$rem
MEM_STATIC 5000
MEM_TOTAL 20000
JOBTYPE SP
EXCHANGE B3LYP
BASIS 6-31g(d,p)
$end

$molecule
0 1
C          -2.822000    -12.674000    -12.821000
C          -3.128000    -11.312000    -12.782000
N          -1.764000    -13.162000    -12.128000
C          -2.371000    -10.386000    -12.073000
C          -0.917000    -12.263000    -11.546000
C          -1.157000    -10.901000    -11.433000
C          -0.198000     -9.978000    -10.762000
C          -0.722000     -8.901000     -9.954000
C           1.170000    -10.150000    -10.763000
N           0.080000     -8.142000     -9.160000
N           1.826000    -11.113000    -11.447000
C           2.000000     -9.400000     -9.956000
C           1.373000     -8.449000     -9.092000
S           3.399000    -11.087000    -10.982000
N           3.292000     -9.791000     -9.982000
C           2.064000     -7.686000     -7.967000
S           1.128000     -6.425000     -7.105000
C           3.112000     -8.026000     -7.170000
C           2.108000     -6.701000     -5.590000
S           4.320000     -9.293000     -7.418000
C           3.205000     -7.484000     -5.908000
C           1.624000     -6.448000     -4.285000
C           4.786000     -9.106000     -5.696000
C           4.163000     -8.060000     -5.012000
N           2.475000     -6.078000     -3.408000
S          -0.049000     -6.744000     -3.745000
C           1.986000     -6.210000     -2.122000
C           0.634000     -6.486000     -2.132000
C          -3.709000    -13.756000    -13.521000
H          -3.911000    -10.842000    -13.370000
H          -2.642000     -9.334000    -12.076000
H          -0.053000    -12.674000    -11.026000
H          -1.784000     -8.665000     -9.907000
H           5.477000     -9.849000     -5.322000
H           4.289000     -7.779000     -3.972000
H           2.653000     -6.061000     -1.283000
H          -0.016000     -6.620000     -1.278000
H          -3.011000    -14.339000    -14.134000
C          -4.750000    -13.201000    -14.582000
H          -4.195000    -14.374000    -12.755000
H          -4.220000    -12.932000    -15.504000
H          -5.333000    -12.423000    -14.074000
C          -5.755000    -14.335000    -14.963000
H          -5.150000    -15.115000    -15.443000
C          -6.862000    -13.990000    -15.927000
H          -6.181000    -14.779000    -14.055000
H          -7.272000    -13.010000    -15.652000
H          -7.693000    -14.703000    -15.868000
C          -6.300000    -14.020000    -17.423000
H          -5.394000    -13.429000    -17.607000
C          -7.459000    -13.532000    -18.315000
H          -6.178000    -15.054000    -17.766000
H          -8.218000    -14.315000    -18.194000
H          -7.249000    -13.379000    -19.380000
H          -7.896000    -12.604000    -17.927000
C          10.022000      0.316000     -5.542000
C           9.915000     -1.075000     -5.354000
N           9.164000      0.963000     -6.374000
C           8.991000     -1.770000     -6.180000
C           8.386000      0.316000     -7.180000
C           8.224000     -1.083000     -7.154000
C           7.269000     -1.890000     -8.122000
C           7.176000     -1.613000     -9.517000
C           6.419000     -2.879000     -7.702000
N           6.417000     -2.226000    -10.445000
N           6.221000     -3.132000     -6.402000
C           5.619000     -3.573000     -8.600000
C           5.577000     -3.173000     -9.977000
S           5.320000     -4.580000     -6.365000
N           4.966000     -4.609000     -7.987000
C           4.655000     -3.786000    -10.960000
S           3.235000     -4.872000    -10.570000
C           4.677000     -3.505000    -12.326000
C           2.871000     -5.086000    -12.298000
S           5.788000     -2.584000    -13.325000
C           3.782000     -4.368000    -13.033000
C           1.973000     -6.063000    -12.839000
C           4.928000     -3.254000    -14.749000
C           3.972000     -4.228000    -14.433000
N           2.399000     -6.668000    -13.963000
S           0.367000     -6.456000    -12.139000
C           1.383000     -7.457000    -14.361000
C           0.222000     -7.505000    -13.537000
C          11.144000      1.028000     -4.796000
H          10.550000     -1.643000     -4.681000
H           8.896000     -2.849000     -6.096000
H           7.910000      0.892000     -7.972000
H           7.853000     -0.849000     -9.897000
H           5.313000     -2.978000    -15.722000
H           3.287000     -4.682000    -15.139000
H           1.450000     -8.089000    -15.236000
H          -0.617000     -8.188000    -13.526000
H          12.115000      0.683000     -5.172000
C          11.251000      0.882000     -3.304000
H          11.032000      2.105000     -4.971000
H          12.106000      1.483000     -2.970000
H          11.473000     -0.130000     -2.946000
C           9.869000      1.416000     -2.817000
H           9.868000      2.439000     -3.215000
C           9.744000      1.457000     -1.311000
H           9.078000      0.760000     -3.202000
H           8.773000      1.933000     -1.127000
H          10.485000      2.147000     -0.890000
C           9.759000      0.035000     -0.692000
H           8.971000     -0.507000     -1.230000
C           9.363000      0.017000      0.816000
H          10.699000     -0.528000     -0.739000
H           8.343000     -0.378000      0.896000
H           9.258000      1.021000      1.246000
H          10.045000     -0.623000      1.389000
$end

--------------------------------------------------------------

             Standard Nuclear Orientation (Angstroms)
    I     Atom           X                Y                Z
 ----------------------------------------------------------------
    1      C      -9.3124047161     1.1278608635     0.4387455366
    2      C      -8.6662565858     0.6901607183    -0.7193184412
    3      N      -8.5983751195     1.6137195090     1.4836666397
    4      C      -7.2832763855     0.6955757408    -0.8626447933
    5      C      -7.2391092514     1.4942364418     1.4341278008
    6      C      -6.5147326565     1.1008054564     0.3179272774
    7      C      -5.0266366441     1.0150285456     0.3259009495
    8      C      -4.3021854460     1.4219640358    -0.8560224695
    9      C      -4.2773638284     0.6809154467     1.4340379830
   10      N      -2.9487858681     1.5562065833    -0.8591081157
   11      N      -4.7889647057     0.2948201767     2.6234731367
   12      C      -2.9053934089     0.8217996821     1.4563494197
   13      C      -2.2927295169     1.3593905960     0.2817580163
   14      S      -3.5595639283     0.2200536301     3.7070845486
   15      N      -2.3474688154     0.5789181629     2.6615671243
   16      C      -0.8403069174     1.8100184562     0.1691608410
   17      S      -0.2352703010     2.3093318736    -1.4413911774
   18      C       0.0084155734     2.3274151656     1.0971068410
   19      C       0.9691885417     3.4391608505    -0.6638525099
   20      S      -0.1229978092     2.2793255547     2.8596263195
   21      C       1.0239666359     3.1639324611     0.6921971551
   22      C       1.4730566373     4.6024031982    -1.2917650696
   23      C       1.1425437617     3.5484511842     2.9312759426
   24      C       1.7245342880     3.8905652763     1.7088414964
   25      N       2.6651332658     4.9541256308    -0.9994046031
   26      S       0.5227777542     5.6841277419    -2.3429487148
   27      C       2.9253046768     6.2612545245    -1.3655546983
   28      C       1.9116278055     6.7659261142    -2.1541900939
   29      C     -10.8655600063     1.2329490982     0.5941743220
   30      H      -9.1670095971     0.2209581251    -1.5612378840
   31      H      -6.8223950530     0.3391918909    -1.7795597015
   32      H      -6.6865093283     1.8565749945     2.2996687288
   33      H      -4.7991990014     1.6789121350    -1.7902088535
   34      H       1.3148721787     3.9730128568     3.9107943462
   35      H       2.4927968173     4.6336662137     1.5244216410
   36      H       3.8509774625     6.7257402132    -1.0518766171
   37      H       1.8537717918     7.7491730161    -2.6010124429
   38      H     -11.0873414004     0.7389083773     1.5479032034
   39      C     -11.7131516795     0.3973115948    -0.4549802512
   40      H     -11.1557199490     2.2915190461     0.6047984981
   41      H     -11.6831681756    -0.6647561600    -0.1821101840
   42      H     -11.3552394256     0.6864685420    -1.4507332720
   43      C     -13.2112695591     0.8336079976    -0.3747913014
   44      H     -13.5426359266     0.5629047790     0.6360207969
   45      C     -14.1774491394     0.1876691114    -1.3355357908
   46      H     -13.2884464068     1.9250573814    -0.4513287218
   47      H     -13.7071693222     0.1416147848    -2.3259099083
   48      H     -15.0939604638     0.7780956948    -1.4530706444
   49      C     -14.5945400317    -1.2551832916    -0.7887523504
   50      H     -13.7671088346    -1.9251724858    -0.5233374040
   51      C     -15.4712485087    -1.8826887053    -1.8908903644
   52      H     -15.3108761426    -1.1603649347     0.0356025825
   53      H     -16.3538131534    -1.2312371656    -1.9132854385
   54      H     -15.7820600932    -2.9255987787    -1.7587210117
   55      H     -14.9923978778    -1.8019420102    -2.8741904430
   56      C      10.1392090676    -1.7517034050     0.2513746938
   57      C       9.3318649343    -0.9844013318     1.1122562064
   58      N       9.5756710793    -2.4820121268    -0.7466589262
   59      C       7.9247712030    -1.1365688703     0.9857284560
   60      C       8.2984416550    -2.6798779531    -0.8020043172
   61      C       7.3708376310    -2.0326296591     0.0374844681
   62      C       5.8060530408    -2.2518151124    -0.0233836134
   63      C       5.2153944182    -3.5407187365    -0.1691671492
   64      C       4.8929171904    -1.2308547904     0.0056670236
   65      N       3.9092939660    -3.8633540600    -0.2243219925
   66      N       5.2689336704     0.0522630875    -0.0680426655
   67      C       3.5276694697    -1.4821176261    -0.0260449397
   68      C       3.0516486217    -2.8213060834    -0.2206507673
   69      S       3.8566383064     0.9475435226     0.2692535652
   70      N       2.8058588155    -0.3336612620     0.1623996387
   71      C       1.6163557196    -3.1431778031    -0.3893957853
   72      S       0.2745575523    -1.9396533815    -0.7040426426
   73      C       1.1143339978    -4.4427181705    -0.4569977407
   74      C      -0.9465933685    -3.2329509323    -0.6828796136
   75      S       1.8593165337    -6.0117014972    -0.2043015959
   76      C      -0.3158826978    -4.4316189383    -0.4568949652
   77      C      -2.3639302850    -3.0308988099    -0.6200703393
   78      C       0.2075276193    -6.7084151024    -0.2538952917
   79      C      -0.8148062808    -5.7519443918    -0.3035458361
   80      N      -3.0245349632    -3.8758553323     0.1926577421
   81      S      -3.2504851383    -1.7910851787    -1.5690527689
   82      C      -4.3309754334    -3.5932442273     0.0297919657
   83      C      -4.6708765963    -2.5203385433    -0.8434443097
   84      C      11.6398850334    -1.7339878792     0.5159532380
   85      H       9.7241051222    -0.3578047438     1.9074306218
   86      H       7.2600526463    -0.5911099220     1.6497659369
   87      H       7.9505248168    -3.4593000799    -1.4780745961
   88      H       5.9056637084    -4.3832997106    -0.1724242870
   89      H       0.1257475010    -7.7744774725    -0.0867036793
   90      H      -1.8681154224    -5.9707104234    -0.4318356470
   91      H      -5.1068824543    -4.1064199663     0.5812962322
   92      H      -5.5984201755    -1.9812849202    -0.9834982287
   93      H      11.8499065401    -2.2026107547     1.4852445086
   94      C      12.3664917452    -0.4196582788     0.5743431997
   95      H      12.1287386876    -2.2958811608    -0.2892771917
   96      H      13.4276485506    -0.6323170970     0.7546331366
   97      H      12.0769227040     0.2406272163     1.4000337201
   98      C      12.0692376880     0.1881046700    -0.8308305346
   99      H      12.4831699185    -0.5764838872    -1.5009039982
  100      C      12.7704266917     1.5059223318    -1.0696455081
  101      H      10.9894271622     0.3605881045    -0.9230297384
  102      H      12.5428311021     1.7550620349    -2.1133900438
  103      H      13.8575020274     1.3652124769    -1.0398134605
  104      C      12.2364858514     2.6213774769    -0.1336236076
  105      H      11.1503087099     2.6141107633    -0.2895672264
  106      C      12.7342888183     4.0453209334    -0.5283149287
  107      H      12.4611769708     2.5353373889     0.9363712541
  108      H      11.9012993564     4.5785357973    -1.0022721687
  109      H      13.4868085199     4.0328246320    -1.3267502367
  110      H      13.0625228784     4.6015503955     0.3582087243
 ----------------------------------------------------------------

   10   -5663.4740230577      3.54E-06 Convergence criterion met
 Total energy in the final basis set = -5663.4740230577

                    Orbital Energies (a.u.)
 --------------------------------------------------------------

 Alpha MOs
 -- Occupied --
-88.996 -88.977 -88.931 -88.928 -88.919 -88.914 -88.909 -88.908
-14.389 -14.380 -14.379 -14.366 -14.354 -14.349 -14.349 -14.342
-14.334 -14.321 -10.272 -10.271 -10.265 -10.261 -10.260 -10.254
-10.249 -10.248 -10.241 -10.241 -10.238 -10.238 -10.238 -10.235
-10.234 -10.234 -10.233 -10.232 -10.232 -10.230 -10.230 -10.229
-10.228 -10.228 -10.226 -10.222 -10.222 -10.222 -10.219 -10.217
-10.213 -10.212 -10.206 -10.205 -10.204 -10.203 -10.195 -10.194
-10.194 -10.192 -10.186 -10.184 -10.179 -10.179 -10.177 -10.176
-10.172 -10.170 -10.169 -10.168  -8.050  -8.031  -7.991  -7.989
 -7.977  -7.973  -7.968  -7.968  -6.016  -6.010  -6.008  -5.996
 -5.991  -5.989  -5.954  -5.953  -5.952  -5.949  -5.948  -5.946
 -5.941  -5.938  -5.937  -5.934  -5.933  -5.932  -5.932  -5.929
 -5.929  -5.929  -5.924  -5.924  -1.039  -1.012  -0.980  -0.969
 -0.963  -0.953  -0.939  -0.935  -0.913  -0.901  -0.899  -0.884
 -0.840  -0.832  -0.831  -0.817  -0.812  -0.812  -0.808  -0.807
 -0.804  -0.797  -0.796  -0.787  -0.786  -0.779  -0.768  -0.758
 -0.751  -0.744  -0.741  -0.733  -0.720  -0.714  -0.712  -0.705
 -0.696  -0.690  -0.678  -0.666  -0.657  -0.649  -0.645  -0.634
 -0.633  -0.628  -0.625  -0.617  -0.611  -0.607  -0.600  -0.594
 -0.594  -0.589  -0.586  -0.581  -0.580  -0.575  -0.568  -0.558
 -0.553  -0.547  -0.545  -0.529  -0.528  -0.515  -0.515  -0.509
 -0.506  -0.505  -0.497  -0.489  -0.486  -0.483  -0.478  -0.475
 -0.473  -0.470  -0.469  -0.463  -0.463  -0.460  -0.455  -0.455
 -0.444  -0.441  -0.439  -0.437  -0.434  -0.432  -0.430  -0.426
 -0.425  -0.425  -0.422  -0.421  -0.420  -0.413  -0.412  -0.410
 -0.409  -0.406  -0.405  -0.402  -0.401  -0.400  -0.398  -0.397
 -0.393  -0.391  -0.391  -0.388  -0.387  -0.386  -0.382  -0.380
 -0.379  -0.377  -0.376  -0.372  -0.363  -0.360  -0.360  -0.355
 -0.351  -0.346  -0.346  -0.343  -0.342  -0.341  -0.338  -0.337
 -0.336  -0.334  -0.327  -0.326  -0.325  -0.324  -0.323  -0.318
 -0.316  -0.307  -0.307  -0.305  -0.302  -0.301  -0.300  -0.295
 -0.295  -0.293  -0.291  -0.289  -0.286  -0.285  -0.283  -0.280
 -0.277  -0.274  -0.272  -0.257  -0.256  -0.253  -0.246  -0.243
 -0.240  -0.239  -0.236  -0.225  -0.195  -0.190

          Ground-State Mulliken Net Atomic Charges

     Atom                 Charge (a.u.)
  ----------------------------------------
      1 C                     0.249202
      2 C                    -0.109773
      3 N                    -0.484954
      4 C                    -0.090910
      5 C                     0.092495
      6 C                     0.038942
      7 C                     0.028921
      8 C                     0.046088
      9 C                     0.237587
     10 N                    -0.499941
     11 N                    -0.572098
     12 C                     0.274955
     13 C                     0.290168
     14 S                     0.623394
     15 N                    -0.580886
     16 C                    -0.219232
     17 S                     0.283894
     18 C                    -0.105985
     19 C                    -0.230034
     20 S                     0.288646
     21 C                     0.142380
     22 C                     0.054665
     23 C                    -0.320778
     24 C                    -0.043193
     25 N                    -0.410101
     26 S                     0.270487
     27 C                     0.113081
     28 C                    -0.304576
     29 C                    -0.215870
     30 H                     0.090483
     31 H                     0.100061
     32 H                     0.111061
     33 H                     0.116975
     34 H                     0.127770
     35 H                     0.126390
     36 H                     0.120324
     37 H                     0.129524
     38 H                     0.125067
     39 C                    -0.190201
     40 H                     0.125468
     41 H                     0.105226
     42 H                     0.096697
     43 C                    -0.181121
     44 H                     0.092153
     45 C                    -0.170131
     46 H                     0.084055
     47 H                     0.090822
     48 H                     0.095269
     49 C                    -0.188272
     50 H                     0.097212
     51 C                    -0.314349
     52 H                     0.103334
     53 H                     0.099693
     54 H                     0.094940
     55 H                     0.099161
     56 C                     0.269690
     57 C                    -0.110646
     58 N                    -0.474303
     59 C                    -0.064738
     60 C                     0.080403
     61 C                     0.041223
     62 C                     0.015192
     63 C                     0.053149
     64 C                     0.230236
     65 N                    -0.523259
     66 N                    -0.573849
     67 C                     0.233160
     68 C                     0.314788
     69 S                     0.603317
     70 N                    -0.570050
     71 C                    -0.228802
     72 S                     0.324342
     73 C                    -0.112707
     74 C                    -0.237342
     75 S                     0.293229
     76 C                     0.163422
     77 C                     0.030856
     78 C                    -0.321902
     79 C                    -0.036886
     80 N                    -0.413186
     81 S                     0.280741
     82 C                     0.124214
     83 C                    -0.316868
     84 C                    -0.232532
     85 H                     0.092340
     86 H                     0.101292
     87 H                     0.097284
     88 H                     0.104969
     89 H                     0.127704
     90 H                     0.112576
     91 H                     0.111555
     92 H                     0.131066
     93 H                     0.102943
     94 C                    -0.180206
     95 H                     0.114143
     96 H                     0.094496
     97 H                     0.090516
     98 C                    -0.170013
     99 H                     0.092595
    100 C                    -0.178312
    101 H                     0.107280
    102 H                     0.089041
    103 H                     0.086723
    104 C                    -0.174007
    105 H                     0.098681
    106 C                    -0.331245
    107 H                     0.095236
    108 H                     0.102758
    109 H                     0.105281
    110 H                     0.100228
  ----------------------------------------
  Sum of atomic charges =     0.000000

                    Cartesian Multipole Moments
 -----------------------------------------------------------------
    Charge (ESU x 10^10)
                 0.0000
    Dipole Moment (Debye)
         X      -3.4010      Y       3.7097      Z       1.1095
       Tot       5.1536
    Quadrupole Moments (Debye-Ang)
        XX    -420.2644     XY      25.9497     YY    -423.9105
        XZ      31.0980     YZ      -4.3489     ZZ    -438.6068

 Total job time:  95.24s(wall), 1130.59s(cpu)
        *  Thank you very much for using Q-Chem.  Have a nice day.  *
