 Q-Chem 4.4, Q-Chem, Inc., Pleasanton, CA (2016)
 Q-Chem 4.4.2 for Intel X86 Linux

User input:
--------------------------------------------------------------
$comment
SP
$end

$rem
MEM_STATIC 5000
MEM_TOTAL 20000
JOBTYPE SP
EXCHANGE B3LYP
BASIS 6-31g(d,p)
$end

$molecule
0 1
C          -2.822000    -12.674000    -12.821000
C          -3.128000    -11.312000    -12.782000
N          -1.764000    -13.162000    -12.128000
C          -2.371000    -10.386000    -12.073000
C          -0.917000    -12.263000    -11.546000
C          -1.157000    -10.901000    -11.433000
C          -0.198000     -9.978000    -10.762000
C          -0.722000     -8.901000     -9.954000
C           1.170000    -10.150000    -10.763000
N           0.080000     -8.142000     -9.160000
N           1.826000    -11.113000    -11.447000
C           2.000000     -9.400000     -9.956000
C           1.373000     -8.449000     -9.092000
S           3.399000    -11.087000    -10.982000
N           3.292000     -9.791000     -9.982000
C           2.064000     -7.686000     -7.967000
S           1.128000     -6.425000     -7.105000
C           3.112000     -8.026000     -7.170000
C           2.108000     -6.701000     -5.590000
S           4.320000     -9.293000     -7.418000
C           3.205000     -7.484000     -5.908000
C           1.624000     -6.448000     -4.285000
C           4.786000     -9.106000     -5.696000
C           4.163000     -8.060000     -5.012000
N           2.475000     -6.078000     -3.408000
S          -0.049000     -6.744000     -3.745000
C           1.986000     -6.210000     -2.122000
C           0.634000     -6.486000     -2.132000
C          -3.709000    -13.756000    -13.521000
H          -3.911000    -10.842000    -13.370000
H          -2.642000     -9.334000    -12.076000
H          -0.053000    -12.674000    -11.026000
H          -1.784000     -8.665000     -9.907000
H           5.477000     -9.849000     -5.322000
H           4.289000     -7.779000     -3.972000
H           2.653000     -6.061000     -1.283000
H          -0.016000     -6.620000     -1.278000
H          -3.011000    -14.339000    -14.134000
C          -4.750000    -13.201000    -14.582000
H          -4.195000    -14.374000    -12.755000
H          -4.220000    -12.932000    -15.504000
H          -5.333000    -12.423000    -14.074000
C          -5.755000    -14.335000    -14.963000
H          -5.150000    -15.115000    -15.443000
C          -6.862000    -13.990000    -15.927000
H          -6.181000    -14.779000    -14.055000
H          -7.272000    -13.010000    -15.652000
H          -7.693000    -14.703000    -15.868000
C          -6.300000    -14.020000    -17.423000
H          -5.394000    -13.429000    -17.607000
C          -7.459000    -13.532000    -18.315000
H          -6.178000    -15.054000    -17.766000
H          -8.218000    -14.315000    -18.194000
H          -7.249000    -13.379000    -19.380000
H          -7.896000    -12.604000    -17.927000
C           1.818000    -10.691000     -3.690000
C           0.505000    -10.795000     -3.285000
N           2.198000    -10.751000     -4.930000
C          -0.515000    -10.983000     -4.249000
C           1.277000    -10.864000     -5.896000
C          -0.091000    -11.016000     -5.577000
C          -1.200000    -11.238000     -6.558000
C          -1.384000    -12.466000     -7.252000
C          -2.020000    -10.176000     -7.027000
N          -2.396000    -12.727000     -8.092000
N          -1.928000     -8.941000     -6.528000
C          -2.988000    -10.412000     -8.016000
C          -3.218000    -11.698000     -8.513000
S          -3.010000     -8.139000     -7.491000
N          -3.627000     -9.269000     -8.444000
C          -4.270000    -12.015000     -9.532000
S          -5.309000    -10.871000    -10.437000
C          -4.798000    -13.275000     -9.693000
C          -6.229000    -12.182000    -11.225000
S          -4.346000    -14.769000     -9.013000
C          -5.830000    -13.374000    -10.596000
C          -7.313000    -11.958000    -12.124000
C          -5.625000    -15.569000     -9.959000
C          -6.360000    -14.701000    -10.698000
N          -7.762000    -12.956000    -12.856000
S          -8.004000    -10.364000    -12.443000
C          -8.829000    -12.515000    -13.635000
C          -9.180000    -11.256000    -13.394000
C           2.997000    -10.400000     -2.729000
H           0.268000    -10.785000     -2.225000
H          -1.573000    -11.067000     -4.018000
H           1.645000    -10.997000     -6.912000
H          -0.734000    -13.329000     -7.115000
H          -5.851000    -16.622000     -9.860000
H          -7.088000    -14.997000    -11.445000
H          -9.366000    -13.234000    -14.239000
H         -10.045000    -10.782000    -13.838000
H           3.941000    -10.488000     -3.279000
C           2.888000    -11.331000     -1.463000
H           2.931000     -9.340000     -2.455000
H           2.769000    -12.386000     -1.741000
H           2.048000    -11.072000     -0.807000
C           4.118000    -11.203000     -0.537000
H           4.996000    -11.125000     -1.190000
C           4.401000    -12.264000      0.471000
H           4.052000    -10.295000      0.075000
H           4.687000    -13.177000     -0.066000
H           3.529000    -12.528000      1.081000
C           5.525000    -11.864000      1.487000
H           6.519000    -11.923000      1.025000
C           5.464000    -12.893000      2.685000
H           5.294000    -10.829000      1.767000
H           6.192000    -12.498000      3.404000
H           5.746000    -13.880000      2.299000
H           4.473000    -13.085000      3.112000
$end

--------------------------------------------------------------

             Standard Nuclear Orientation (Angstroms)
    I     Atom           X                Y                Z
 ----------------------------------------------------------------
    1      C      -4.7624910249    -1.0692056803     1.6155357019
    2      C      -4.6057433201    -1.5259780869     0.3051960033
    3      N      -3.6944197856    -0.9788291265     2.4454832342
    4      C      -3.3820395194    -1.9355954562    -0.2124608509
    5      C      -2.5117400177    -1.5111090332     2.0185398335
    6      C      -2.2587026877    -1.9565319492     0.7289726443
    7      C      -0.9335158243    -2.5054009445     0.3234191917
    8      C      -0.4252165360    -2.1898398338    -0.9916557184
    9      C      -0.0958654258    -3.2051780477     1.1658340632
   10      N       0.8494243874    -2.4881738347    -1.3604488045
   11      N      -0.4018448604    -3.5690009579     2.4305753315
   12      C       1.2040895164    -3.5065527014     0.8166357438
   13      C       1.6568608927    -3.0341203702    -0.4545179736
   14      S       0.9540278077    -4.1724813089     3.1296109342
   15      N       1.9224164294    -4.0737222494     1.8091810324
   16      C       3.1020178527    -3.0513642238    -0.9408296130
   17      S       3.4286796938    -2.5532603417    -2.6303400641
   18      C       4.2746809903    -2.9577425886    -0.2587671855
   19      C       5.0955006008    -1.9754006641    -2.1617386804
   20      S       4.5683450334    -3.2011918981     1.4676600106
   21      C       5.3823768013    -2.4355012332    -0.8875206803
   22      C       5.7945873682    -0.9552007727    -2.8485864607
   23      C       6.1659086086    -2.4156898591     1.2481465261
   24      C       6.5129124531    -2.1108087027    -0.0697065812
   25      N       7.0682951532    -1.0386794455    -2.8790789154
   26      S       5.0414765239     0.5024459502    -3.5458920517
   27      C       7.6584483382     0.1576611909    -3.2407822469
   28      C       6.7161506274     1.0572962643    -3.6956577892
   29      C      -6.1004491769    -0.5039709510     2.1968021504
   30      H      -5.4249002881    -1.6952481395    -0.3876694317
   31      H      -3.3073509521    -2.2905648135    -1.2364590801
   32      H      -1.6759235037    -1.4617425850     2.7148089688
   33      H      -1.0173958459    -1.6654071618    -1.7400159508
   34      H       6.7050040599    -2.2039582982     2.1613561627
   35      H       7.4179453638    -1.6286753243    -0.4231182901
   36      H       8.7334645048     0.2608819868    -3.1722497088
   37      H       6.8878946731     2.0601033352    -4.0626100495
   38      H      -6.2370543979    -1.0281830798     3.1504282080
   39      C      -7.4094496644    -0.8805155265     1.3830706798
   40      H      -6.0028462204     0.5803809051     2.3365544854
   41      H      -7.6756093784    -1.9249979616     1.5869344806
   42      H      -7.2287983011    -0.5858524678     0.3420251636
   43      C      -8.6034918359    -0.0111103312     1.8925212654
   44      H      -8.7500978392    -0.2988135449     2.9415963536
   45      C      -9.9344413395    -0.1841859859     1.2052162120
   46      H      -8.3224329854     1.0491165255     1.8915543077
   47      H      -9.7639522183    -0.2405175560     0.1226797398
   48      H     -10.5958893084     0.6743257412     1.3721149800
   49      C     -10.6691799847    -1.4833439511     1.7771495167
   50      H     -10.0796174111    -2.4087475773     1.7730142697
   51      C     -11.9470222532    -1.6479728319     0.9303287161
   52      H     -11.0871947031    -1.2813805885     2.7702071662
   53      H     -12.5337649512    -0.7557046358     1.1821252067
   54      H     -12.5506657407    -2.5483411732     1.0936853504
   55      H     -11.7240543001    -1.5888060884    -0.1418100754
   56      C       5.3396724089     1.3771475425     0.7218356035
   57      C       4.7655564929     2.4467146871     0.0697412559
   58      N       4.6671030597     0.3663414995     1.1817503933
   59      C       3.3633215614     2.4812385009    -0.1241280383
   60      C       3.3449560939     0.3067237598     0.9755002399
   61      C       2.6614313552     1.3738676292     0.3507707837
   62      C       1.1814935788     1.4644169663     0.1431389089
   63      C       0.2649854297     1.7021804512     1.2047213776
   64      C       0.5664610786     1.1094078377    -1.0880834684
   65      N      -1.0592764508     1.8496268418     1.0548713401
   66      N       1.2835660581     0.7915197744    -2.1685452344
   67      C      -0.8319979118     1.1207929054    -1.2106552122
   68      C      -1.6485341237     1.5435332677    -0.1579139331
   69      S       0.0784906386     0.3841657666    -3.2283343388
   70      N      -1.2814984071     0.6503840314    -2.4249940429
   71      C      -3.1421614829     1.6221544623    -0.2498379225
   72      S      -4.1957515657     1.0635634904    -1.5859539592
   73      C      -3.8995060837     2.4255974071     0.5706580190
   74      C      -5.6736316465     1.6998598066    -0.8132557872
   75      S      -3.4705768708     3.3395482991     1.9415896355
   76      C      -5.2438142834     2.4644735868     0.2850742186
   77      C      -6.9713648523     1.6151701913    -1.3981909936
   78      C      -5.1722803401     3.8295804852     2.1282196417
   79      C      -5.9754926696     3.3405443484     1.1507414523
   80      N      -8.0309934437     1.8681942343    -0.6588703041
   81      S      -7.2673155322     1.0290427450    -3.0379915338
   82      C      -9.1786633378     1.7486109364    -1.4388476429
   83      C      -8.9284019872     1.5012870328    -2.7204728389
   84      C       6.8665218847     1.1999947603     0.9104902354
   85      H       5.3871076763     3.2805044619    -0.2438472289
   86      H       2.8312620346     3.2799356301    -0.6328288891
   87      H       2.8102877098    -0.5133932797     1.4518475509
   88      H       0.5765819534     1.8380867332     2.2393590382
   89      H      -5.4968345881     4.5328721479     2.8830251645
   90      H      -7.0578462483     3.4041996036     1.1589718347
   91      H     -10.1351080658     2.0021471831    -1.0017219699
   92      H      -9.6945081297     1.4724866371    -3.4835514166
   93      H       7.0520589087     0.3379251625     1.5614833393
   94      C       7.4957024505     2.5515744745     1.4191768695
   95      H       7.2765205389     0.9076913063    -0.0639284602
   96      H       6.9650569442     2.9445849409     2.2957771889
   97      H       7.4949884381     3.3419310925     0.6586816976
   98      C       8.9909588010     2.4007456356     1.7772538271
   99      H       9.0987186826     1.4279426614     2.2726518300
  100      C       9.6533265558     3.4198294944     2.6401623079
  101      H       9.6106923431     2.4060305209     0.8721204630
  102      H       9.2284173242     3.3409214981     3.6486064923
  103      H       9.4737325688     4.4504836152     2.3120189197
  104      C      11.2108662547     3.2579782272     2.6993759346
  105      H      11.4995186731     2.4116908405     3.3361164159
  106      C      11.7980199588     4.5843246242     3.3269281339
  107      H      11.5131934664     3.0760643968     1.6608714255
  108      H      12.8836226027     4.4542976041     3.2401532903
  109      H      11.4627827731     4.6435925296     4.3694214647
  110      H      11.4259137491     5.5268680973     2.9092886123
 ----------------------------------------------------------------

   10   -5663.4831467166      4.73E-06 Convergence criterion met
 Total energy in the final basis set = -5663.4831467166

                    Orbital Energies (a.u.)
 --------------------------------------------------------------

 Alpha MOs
 -- Occupied --
-88.991 -88.988 -88.930 -88.924 -88.921 -88.906 -88.906 -88.899
-14.394 -14.386 -14.385 -14.374 -14.350 -14.349 -14.346 -14.335
-14.322 -14.321 -10.274 -10.266 -10.266 -10.258 -10.256 -10.255
-10.255 -10.248 -10.245 -10.243 -10.240 -10.240 -10.234 -10.230
-10.229 -10.229 -10.229 -10.229 -10.226 -10.225 -10.224 -10.223
-10.221 -10.221 -10.221 -10.221 -10.220 -10.214 -10.212 -10.211
-10.210 -10.209 -10.208 -10.202 -10.197 -10.194 -10.193 -10.189
-10.186 -10.186 -10.184 -10.180 -10.178 -10.177 -10.176 -10.174
-10.174 -10.173 -10.167 -10.163  -8.046  -8.043  -7.992  -7.983
 -7.982  -7.967  -7.965  -7.958  -6.011  -6.008  -6.005  -6.003
 -6.003  -6.001  -5.955  -5.952  -5.948  -5.947  -5.945  -5.944
 -5.942  -5.939  -5.938  -5.931  -5.929  -5.927  -5.926  -5.923
 -5.923  -5.921  -5.919  -5.914  -1.045  -1.035  -0.975  -0.973
 -0.958  -0.952  -0.949  -0.923  -0.918  -0.913  -0.904  -0.895
 -0.846  -0.832  -0.830  -0.824  -0.810  -0.807  -0.806  -0.803
 -0.797  -0.797  -0.795  -0.788  -0.784  -0.775  -0.767  -0.759
 -0.751  -0.742  -0.741  -0.734  -0.724  -0.711  -0.709  -0.703
 -0.695  -0.687  -0.674  -0.672  -0.654  -0.648  -0.642  -0.640
 -0.637  -0.635  -0.625  -0.616  -0.612  -0.602  -0.595  -0.593
 -0.591  -0.587  -0.583  -0.579  -0.578  -0.571  -0.571  -0.556
 -0.554  -0.545  -0.538  -0.537  -0.524  -0.521  -0.513  -0.508
 -0.508  -0.502  -0.499  -0.497  -0.495  -0.480  -0.478  -0.475
 -0.473  -0.468  -0.467  -0.465  -0.463  -0.459  -0.454  -0.447
 -0.445  -0.444  -0.437  -0.434  -0.433  -0.429  -0.428  -0.426
 -0.425  -0.422  -0.420  -0.419  -0.418  -0.416  -0.414  -0.413
 -0.407  -0.405  -0.404  -0.403  -0.401  -0.397  -0.395  -0.394
 -0.393  -0.391  -0.389  -0.389  -0.388  -0.387  -0.384  -0.382
 -0.380  -0.378  -0.375  -0.366  -0.358  -0.356  -0.355  -0.354
 -0.350  -0.349  -0.347  -0.344  -0.344  -0.342  -0.339  -0.335
 -0.333  -0.332  -0.330  -0.328  -0.327  -0.325  -0.319  -0.318
 -0.315  -0.311  -0.307  -0.305  -0.302  -0.301  -0.296  -0.295
 -0.293  -0.292  -0.290  -0.286  -0.285  -0.284  -0.280  -0.275
 -0.272  -0.271  -0.264  -0.257  -0.256  -0.248  -0.246  -0.245
 -0.243  -0.238  -0.234  -0.224  -0.197  -0.187

          Ground-State Mulliken Net Atomic Charges

     Atom                 Charge (a.u.)
  ----------------------------------------
      1 C                     0.253712
      2 C                    -0.107924
      3 N                    -0.485666
      4 C                    -0.078693
      5 C                     0.098057
      6 C                     0.028224
      7 C                     0.025342
      8 C                     0.042306
      9 C                     0.232922
     10 N                    -0.515171
     11 N                    -0.567820
     12 C                     0.261723
     13 C                     0.289604
     14 S                     0.615308
     15 N                    -0.583564
     16 C                    -0.232666
     17 S                     0.269669
     18 C                    -0.109320
     19 C                    -0.227414
     20 S                     0.276108
     21 C                     0.160484
     22 C                     0.050114
     23 C                    -0.291046
     24 C                    -0.036693
     25 N                    -0.409848
     26 S                     0.276469
     27 C                     0.110491
     28 C                    -0.310340
     29 C                    -0.219882
     30 H                     0.089570
     31 H                     0.104570
     32 H                     0.105733
     33 H                     0.121957
     34 H                     0.123176
     35 H                     0.122030
     36 H                     0.117301
     37 H                     0.123667
     38 H                     0.117475
     39 C                    -0.193051
     40 H                     0.134045
     41 H                     0.097401
     42 H                     0.102592
     43 C                    -0.174381
     44 H                     0.080389
     45 C                    -0.172330
     46 H                     0.099093
     47 H                     0.095204
     48 H                     0.083947
     49 C                    -0.188863
     50 H                     0.097867
     51 C                    -0.313582
     52 H                     0.100598
     53 H                     0.095740
     54 H                     0.092813
     55 H                     0.095956
     56 C                     0.291296
     57 C                    -0.108286
     58 N                    -0.480426
     59 C                    -0.048710
     60 C                     0.095158
     61 C                     0.019318
     62 C                    -0.056616
     63 C                     0.066465
     64 C                     0.271750
     65 N                    -0.510883
     66 N                    -0.534952
     67 C                     0.185400
     68 C                     0.281546
     69 S                     0.622536
     70 N                    -0.548564
     71 C                    -0.197730
     72 S                     0.309653
     73 C                    -0.103937
     74 C                    -0.230258
     75 S                     0.289169
     76 C                     0.141662
     77 C                     0.059198
     78 C                    -0.309975
     79 C                    -0.055195
     80 N                    -0.434686
     81 S                     0.258166
     82 C                     0.125938
     83 C                    -0.296141
     84 C                    -0.225934
     85 H                     0.085158
     86 H                     0.107680
     87 H                     0.103497
     88 H                     0.117771
     89 H                     0.126153
     90 H                     0.129176
     91 H                     0.121765
     92 H                     0.127478
     93 H                     0.116066
     94 C                    -0.193587
     95 H                     0.116497
     96 H                     0.101180
     97 H                     0.094659
     98 C                    -0.173848
     99 H                     0.087237
    100 C                    -0.172385
    101 H                     0.082012
    102 H                     0.087390
    103 H                     0.084516
    104 C                    -0.179943
    105 H                     0.099373
    106 C                    -0.321220
    107 H                     0.092470
    108 H                     0.101488
    109 H                     0.106524
    110 H                     0.104526
  ----------------------------------------
  Sum of atomic charges =     0.000000

                    Cartesian Multipole Moments
 -----------------------------------------------------------------
    Charge (ESU x 10^10)
                 0.0000
    Dipole Moment (Debye)
         X      -0.9165      Y       3.8509      Z      -1.4119
       Tot       4.2027
    Quadrupole Moments (Debye-Ang)
        XX    -402.3281     XY      15.1743     YY    -444.1655
        XZ      19.5310     YZ      -9.7568     ZZ    -439.1396

 Total job time:  118.62s(wall), 1417.51s(cpu)
        *  Thank you very much for using Q-Chem.  Have a nice day.  *
