 Q-Chem 4.4, Q-Chem, Inc., Pleasanton, CA (2016)
 Q-Chem 4.4.2 for Intel X86 Linux

User input:
--------------------------------------------------------------
$comment
SP
$end

$rem
MEM_STATIC 5000
MEM_TOTAL 20000
JOBTYPE SP
EXCHANGE B3LYP
BASIS 6-31g(d,p)
$end

$molecule
0 1
C         -21.589000     -3.196000      2.155000
C         -22.912000     -3.369000      1.640000
N         -21.049000     -4.060000      3.029000
C         -23.615000     -4.526000      1.981000
C         -21.855000     -5.076000      3.456000
C         -23.148000     -5.431000      3.010000
C         -23.877000     -6.591000      3.553000
C         -25.312000     -6.539000      3.884000
C         -23.225000     -7.820000      4.059000
N         -26.033000     -7.626000      4.302000
N         -21.896000     -8.085000      4.031000
C         -23.952000     -8.797000      4.620000
C         -25.373000     -8.754000      4.594000
S         -21.594000     -9.549000      4.834000
N         -23.191000     -9.875000      5.099000
C         -26.325000     -9.875000      4.905000
S         -27.951000     -9.741000      5.687000
C         -26.082000    -11.128000      4.488000
C         -28.192000    -11.405000      5.498000
S         -25.051000    -11.761000      3.208000
C         -27.144000    -11.989000      4.786000
C         -29.507000    -11.981000      5.661000
C         -25.978000    -13.228000      3.173000
C         -27.014000    -13.244000      4.070000
N         -29.531000    -13.277000      5.849000
S         -31.006000    -11.080000      5.753000
C         -30.810000    -13.590000      6.066000
C         -31.730000    -12.572000      6.119000
C         -20.800000     -2.054000      1.696000
H         -23.262000     -2.555000      1.011000
H         -24.563000     -4.813000      1.535000
H         -21.274000     -5.770000      4.062000
H         -25.907000     -5.627000      3.880000
H         -25.736000    -13.973000      2.426000
H         -27.735000    -14.046000      4.179000
H         -31.099000    -14.601000      6.320000
H         -32.794000    -12.582000      6.316000
H         -19.769000     -2.264000      2.007000
C         -21.286000     -0.585000      2.162000
H         -20.739000     -2.101000      0.602000
H         -21.103000     -0.523000      3.242000
H         -22.344000     -0.467000      1.899000
C         -20.538000      0.549000      1.407000
H         -20.576000      1.392000      2.108000
C         -21.041000      0.885000     -0.049000
H         -19.493000      0.215000      1.372000
H         -22.057000      1.289000      0.041000
H         -21.076000      0.004000     -0.702000
C         -20.180000      1.997000     -0.749000
H         -20.286000      2.957000     -0.229000
C         -20.566000      2.250000     -2.202000
H         -19.115000      1.748000     -0.660000
H         -19.781000      2.902000     -2.605000
H         -21.544000      2.747000     -2.221000
H         -20.538000      1.316000     -2.776000
C         -22.012000    -13.940000     -3.621000
C         -21.523000    -13.034000     -2.719000
N         -23.282000    -14.267000     -3.614000
C         -22.404000    -12.526000     -1.686000
C         -24.196000    -13.654000     -2.774000
C         -23.784000    -12.764000     -1.727000
C         -24.762000    -11.892000     -0.855000
C         -26.096000    -12.356000     -0.682000
C         -24.447000    -10.633000     -0.278000
N         -27.048000    -11.655000     -0.056000
N         -23.287000     -9.936000     -0.462000
C         -25.472000     -9.880000      0.341000
C         -26.788000    -10.412000      0.450000
S         -23.425000     -8.561000      0.353000
N         -24.999000     -8.703000      0.831000
C         -27.914000     -9.692000      1.057000
S         -27.980000     -7.958000      1.512000
C         -29.113000    -10.279000      1.396000
C         -29.529000     -8.112000      2.204000
S         -29.579000    -11.985000      1.480000
C         -30.061000     -9.393000      2.026000
C         -30.093000     -7.085000      3.090000
C         -31.032000    -11.525000      2.451000
C         -31.217000    -10.156000      2.592000
N         -30.974000     -7.458000      4.032000
S         -29.156000     -5.698000      3.375000
C         -30.959000     -6.458000      5.032000
C         -30.004000     -5.450000      4.823000
C         -21.109000    -14.471000     -4.730000
H         -20.471000    -12.771000     -2.781000
H         -21.977000    -11.899000     -0.908000
H         -25.237000    -13.905000     -2.974000
H         -26.393000    -13.320000     -1.092000
H         -31.724000    -12.320000      2.697000
H         -32.026000     -9.617000      3.071000
H         -31.628000     -6.482000      5.882000
H         -29.948000     -4.616000      5.509000
H         -20.059000    -14.273000     -4.481000
C         -21.483000    -13.746000     -6.088000
H         -21.217000    -15.550000     -4.893000
H         -21.188000    -12.690000     -6.072000
H         -22.574000    -13.718000     -6.198000
C         -20.766000    -14.429000     -7.286000
H         -19.685000    -14.575000     -7.173000
C         -21.178000    -13.802000     -8.659000
H         -21.256000    -15.411000     -7.264000
H         -20.982000    -12.723000     -8.686000
H         -22.271000    -13.842000     -8.741000
C         -20.421000    -14.500000     -9.868000
H         -20.392000    -13.774000    -10.690000
C         -21.040000    -15.802000    -10.360000
H         -19.358000    -14.688000     -9.677000
H         -21.981000    -15.540000    -10.860000
H         -21.294000    -16.404000     -9.478000
H         -20.409000    -16.309000    -11.100000
$end

--------------------------------------------------------------

             Standard Nuclear Orientation (Angstroms)
    I     Atom           X                Y                Z
 ----------------------------------------------------------------
    1      C       0.8943994974     6.9524227105    -0.8745280958
    2      C       1.0977909581     6.1607085731     0.2990577077
    3      N       0.9755398566     6.4277557940    -2.1074566699
    4      C       1.2827977879     4.7847246122     0.1521576997
    5      C       1.3324071481     5.1121838816    -2.1857974620
    6      C       1.5057991920     4.1754936597    -1.1420845575
    7      C       1.8597151579     2.7680332570    -1.3983826338
    8      C       2.8614186968     2.0454550563    -0.5946657907
    9      C       1.4611793184     2.0182161702    -2.6110344887
   10      N       3.1416504407     0.7139561868    -0.7518756190
   11      N       0.6682911894     2.4811703169    -3.6081562831
   12      C       1.8968782466     0.7664525436    -2.8136011869
   13      C       2.6108296517     0.0707976112    -1.7996467470
   14      S       0.5889218023     1.3273407719    -4.8498031256
   15      N       1.4790765174     0.2037882865    -4.0299467993
   16      C       2.9118815552    -1.4008628033    -1.7426434518
   17      S       4.3912313808    -2.1867886676    -1.0591226918
   18      C       1.9940473315    -2.3117537256    -2.1043132812
   19      C       3.7404939480    -3.7157230831    -1.3778676475
   20      S       0.2408790207    -2.2206230041    -2.2462501174
   21      C       2.4383465784    -3.6175608503    -1.8688670403
   22      C       4.3149319849    -4.8989051163    -0.7798114477
   23      C       0.1304451360    -3.9478766155    -2.1157038841
   24      C       1.3446112830    -4.5656334682    -1.9662447312
   25      N       3.9857581876    -6.0308076162    -1.3507557023
   26      S       5.4825765105    -4.9123005358     0.5254443988
   27      C       4.6828445835    -6.9752668979    -0.7159594975
   28      C       5.5716444054    -6.5867048956     0.2559393897
   29      C       0.5686450905     8.3691018023    -0.7187384388
   30      H       1.0921496055     6.7221464412     1.2293763066
   31      H       1.3074439772     4.0842991636     0.9820888753
   32      H       1.2485908458     4.7742032737    -3.2178715564
   33      H       3.5018759806     2.5159468709     0.1498051087
   34      H      -0.8521864099    -4.4008225937    -2.0861541649
   35      H       1.4919986737    -5.6304308564    -1.8269268244
   36      H       4.6459963776    -8.0061514046    -1.0416546673
   37      H       6.2584998083    -7.1601620894     0.8645291551
   38      H       0.2103193924     8.6989768594    -1.7018799041
   39      C       1.7285390427     9.3348465477    -0.1414204099
   40      H      -0.3295966537     8.4443990215    -0.0940320296
   41      H       2.4982628893     9.3995018138    -0.9205724467
   42      H       2.1031959363     8.9088921743     0.7970102395
   43      C       1.1905787540    10.7462044415     0.2248481024
   44      H       2.0712573143    11.3916588250     0.1186035160
   45      C       0.4401438536    10.8843776883     1.6045569899
   46      H       0.5098023233    11.0040999060    -0.5966379783
   47      H       1.1753097163    10.6969411847     2.3970030205
   48      H      -0.3806561947    10.1651185523     1.7174665820
   49      C      -0.1204631664    12.3311544442     1.8503654268
   50      H       0.6979789819    13.0551074591     1.9467006861
   51      C      -0.9588934672    12.4587849175     3.1172352279
   52      H      -0.6830677684    12.6623598201     0.9683642586
   53      H      -1.4233811038    13.4512849676     3.0630791024
   54      H      -0.2926214711    12.3786402173     3.9852861793
   55      H      -1.7700922314    11.7208337086     3.1179957150
   56      C      -7.4182880158    -1.9847927925    -0.8677192264
   57      C      -6.6240694805    -1.0286930879    -1.4410003730
   58      N      -6.8941275725    -2.9204431383    -0.1129396162
   59      C      -5.1855468507    -1.1299649938    -1.2936550480
   60      C      -5.5493586246    -2.9344424320     0.2159456170
   61      C      -4.6096247594    -2.0428899930    -0.4005667598
   62      C      -3.1102734928    -1.8715669119     0.0464748281
   63      C      -2.4763535197    -2.9698321544     0.6920287955
   64      C      -2.3478418673    -0.6794721702    -0.0753576118
   65      N      -1.2455157658    -2.9120288342     1.2128725339
   66      N      -2.8147768799     0.5283978133    -0.5092778774
   67      C      -1.0660039078    -0.6145156204     0.5191733733
   68      C      -0.5164592524    -1.7565569752     1.1676355662
   69      S      -1.5949799657     1.5670715495    -0.4247417449
   70      N      -0.4818135219     0.5959743403     0.3127910874
   71      C       0.7946805993    -1.7710121380     1.8275055062
   72      S       1.8334665455    -0.3614220218     2.2175266112
   73      C       1.4430772621    -2.9171196640     2.2313746761
   74      C       3.0957103617    -1.3462350008     2.7996476852
   75      S       1.1022793799    -4.6190623905     1.8822389441
   76      C       2.7445652160    -2.6998076096     2.8140448887
   77      C       4.4550409974    -0.8298795471     3.0080181923
   78      C       2.7636052907    -5.0520972393     2.4462664592
   79      C       3.4813742617    -3.9911673893     2.9824591089
   80      N       5.4916042522    -1.6753995263     2.8927507487
   81      S       4.7245240482     0.8151644819     2.6852612743
   82      C       6.6367832240    -0.8916014615     2.6198941633
   83      C       6.3709518311     0.4774368989     2.4560721918
   84      C      -8.9356067786    -1.8859389994    -0.9910995319
   85      H      -7.1048686714    -0.2560528638    -2.0339390057
   86      H      -4.5612276539    -0.4343015789    -1.8477488611
   87      H      -5.2731095044    -3.6710845424     0.9694221095
   88      H      -3.0072383116    -3.9138806877     0.8040051526
   89      H       3.0053848834    -6.1064403882     2.4824348576
   90      H       4.4648637680    -3.9863368951     3.4376162876
   91      H       7.6260034523    -1.3229271623     2.5421865070
   92      H       7.1891005214     1.1649420243     2.2909739696
   93      H      -9.1982724973    -1.1935945081    -1.8006492991
   94      C      -9.5288274408    -1.3569175606     0.3792619399
   95      H      -9.4133753469    -2.8493117070    -1.2058650348
   96      H      -9.2683714158    -0.3052559237     0.5483402073
   97      H      -9.0524985987    -1.8883943229     1.2122134903
   98      C     -11.0784523665    -1.4769686569     0.3849473588
   99      H     -11.5917691325    -1.0515072450    -0.4857618261
  100      C     -11.7009743696    -1.0499982907     1.7554088366
  101      H     -11.1830406348    -2.5692114270     0.3537219625
  102      H     -11.4152484448    -0.0265879671     2.0281321495
  103      H     -11.2274560186    -1.6426378334     2.5475778487
  104      C     -13.2849942111    -1.1613263418     1.7348855118
  105      H     -13.6651297444    -0.4642812711     2.4920025078
  106      C     -13.8439727059    -2.5536964042     1.9980919929
  107      H     -13.7444239379    -0.7869581516     0.8126237353
  108      H     -13.6583702294    -2.7782369162     3.0560420291
  109      H     -13.2569222254    -3.2658769137     1.4039416288
  110      H     -14.9282205376    -2.6032188841     1.8407256574
 ----------------------------------------------------------------

   10   -5663.4901899918      7.18E-06 Convergence criterion met
 Total energy in the final basis set = -5663.4901899918

                    Orbital Energies (a.u.)
 --------------------------------------------------------------

 Alpha MOs
 -- Occupied --
-88.994 -88.989 -88.931 -88.923 -88.922 -88.921 -88.906 -88.904
-14.387 -14.381 -14.378 -14.377 -14.352 -14.351 -14.348 -14.337
-14.327 -14.323 -10.269 -10.264 -10.263 -10.259 -10.258 -10.257
-10.255 -10.254 -10.248 -10.242 -10.240 -10.240 -10.239 -10.236
-10.234 -10.233 -10.232 -10.230 -10.230 -10.229 -10.226 -10.224
-10.221 -10.220 -10.219 -10.219 -10.219 -10.219 -10.219 -10.218
-10.217 -10.213 -10.207 -10.204 -10.203 -10.201 -10.194 -10.193
-10.192 -10.188 -10.186 -10.185 -10.184 -10.182 -10.179 -10.179
-10.177 -10.176 -10.176 -10.168  -8.048  -8.044  -7.994  -7.983
 -7.983  -7.981  -7.965  -7.965  -6.013  -6.009  -6.008  -6.006
 -6.003  -6.002  -5.958  -5.954  -5.951  -5.947  -5.947  -5.945
 -5.944  -5.943  -5.942  -5.941  -5.939  -5.938  -5.930  -5.929
 -5.926  -5.926  -5.921  -5.921  -1.032  -1.019  -0.981  -0.966
 -0.953  -0.952  -0.933  -0.932  -0.911  -0.903  -0.893  -0.880
 -0.846  -0.836  -0.825  -0.824  -0.818  -0.816  -0.810  -0.803
 -0.802  -0.796  -0.790  -0.787  -0.783  -0.775  -0.762  -0.761
 -0.747  -0.745  -0.735  -0.733  -0.728  -0.721  -0.710  -0.704
 -0.691  -0.687  -0.672  -0.671  -0.661  -0.646  -0.644  -0.636
 -0.633  -0.630  -0.625  -0.624  -0.605  -0.601  -0.593  -0.592
 -0.588  -0.585  -0.582  -0.578  -0.577  -0.575  -0.570  -0.566
 -0.547  -0.544  -0.536  -0.535  -0.522  -0.520  -0.509  -0.508
 -0.502  -0.499  -0.497  -0.495  -0.483  -0.482  -0.475  -0.473
 -0.469  -0.468  -0.462  -0.460  -0.460  -0.455  -0.450  -0.448
 -0.444  -0.440  -0.438  -0.436  -0.434  -0.433  -0.429  -0.428
 -0.427  -0.426  -0.424  -0.419  -0.418  -0.415  -0.412  -0.411
 -0.408  -0.407  -0.406  -0.404  -0.401  -0.400  -0.400  -0.397
 -0.391  -0.390  -0.388  -0.387  -0.386  -0.381  -0.378  -0.378
 -0.375  -0.374  -0.368  -0.367  -0.363  -0.361  -0.355  -0.353
 -0.351  -0.348  -0.346  -0.346  -0.341  -0.341  -0.339  -0.339
 -0.336  -0.335  -0.332  -0.331  -0.330  -0.328  -0.324  -0.323
 -0.321  -0.311  -0.305  -0.305  -0.304  -0.300  -0.300  -0.297
 -0.295  -0.294  -0.294  -0.292  -0.289  -0.285  -0.283  -0.279
 -0.275  -0.268  -0.266  -0.259  -0.250  -0.249  -0.247  -0.244
 -0.242  -0.240  -0.228  -0.225  -0.193  -0.187

          Ground-State Mulliken Net Atomic Charges

     Atom                 Charge (a.u.)
  ----------------------------------------
      1 C                     0.282822
      2 C                    -0.103327
      3 N                    -0.483532
      4 C                    -0.100098
      5 C                     0.054800
      6 C                     0.047608
      7 C                     0.008206
      8 C                     0.062756
      9 C                     0.289903
     10 N                    -0.485826
     11 N                    -0.596888
     12 C                     0.192695
     13 C                     0.262769
     14 S                     0.615492
     15 N                    -0.544145
     16 C                    -0.209997
     17 S                     0.314547
     18 C                    -0.098550
     19 C                    -0.200803
     20 S                     0.249860
     21 C                     0.118081
     22 C                     0.036758
     23 C                    -0.305723
     24 C                    -0.033241
     25 N                    -0.411118
     26 S                     0.303109
     27 C                     0.118774
     28 C                    -0.318478
     29 C                    -0.255876
     30 H                     0.091802
     31 H                     0.099105
     32 H                     0.120152
     33 H                     0.117735
     34 H                     0.136474
     35 H                     0.119128
     36 H                     0.100281
     37 H                     0.130501
     38 H                     0.117743
     39 C                    -0.184130
     40 H                     0.108387
     41 H                     0.109341
     42 H                     0.093777
     43 C                    -0.179890
     44 H                     0.093999
     45 C                    -0.173412
     46 H                     0.096602
     47 H                     0.091833
     48 H                     0.093595
     49 C                    -0.181095
     50 H                     0.094171
     51 C                    -0.313736
     52 H                     0.093348
     53 H                     0.103121
     54 H                     0.105616
     55 H                     0.102354
     56 C                     0.295476
     57 C                    -0.120726
     58 N                    -0.493992
     59 C                    -0.091457
     60 C                     0.050390
     61 C                     0.044602
     62 C                     0.031462
     63 C                     0.056761
     64 C                     0.207759
     65 N                    -0.529675
     66 N                    -0.546676
     67 C                     0.225964
     68 C                     0.321136
     69 S                     0.619608
     70 N                    -0.588687
     71 C                    -0.215128
     72 S                     0.345054
     73 C                    -0.119876
     74 C                    -0.233246
     75 S                     0.283262
     76 C                     0.115938
     77 C                     0.065768
     78 C                    -0.313268
     79 C                    -0.038720
     80 N                    -0.426899
     81 S                     0.300317
     82 C                     0.097722
     83 C                    -0.298913
     84 C                    -0.219105
     85 H                     0.085868
     86 H                     0.118451
     87 H                     0.105312
     88 H                     0.116117
     89 H                     0.132812
     90 H                     0.126371
     91 H                     0.118090
     92 H                     0.134870
     93 H                     0.092871
     94 C                    -0.184542
     95 H                     0.112224
     96 H                     0.090449
     97 H                     0.117244
     98 C                    -0.175032
     99 H                     0.093285
    100 C                    -0.184828
    101 H                     0.100668
    102 H                     0.089040
    103 H                     0.093987
    104 C                    -0.181001
    105 H                     0.086706
    106 C                    -0.311354
    107 H                     0.091107
    108 H                     0.102332
    109 H                     0.106114
    110 H                     0.100611
  ----------------------------------------
  Sum of atomic charges =     0.000000

                    Cartesian Multipole Moments
 -----------------------------------------------------------------
    Charge (ESU x 10^10)
                 0.0000
    Dipole Moment (Debye)
         X       2.7806      Y       2.1725      Z       1.7823
       Tot       3.9532
    Quadrupole Moments (Debye-Ang)
        XX    -419.5151     XY     -11.5566     YY    -420.9912
        XZ      20.9436     YZ       6.6264     ZZ    -450.2077

 Total job time:  108.24s(wall), 1274.90s(cpu)
        *  Thank you very much for using Q-Chem.  Have a nice day.  *
