 Q-Chem 4.4, Q-Chem, Inc., Pleasanton, CA (2016)
 Q-Chem 4.4.2 for Intel X86 Linux

User input:
--------------------------------------------------------------
$comment
SP
$end

$rem
MEM_STATIC 5000
MEM_TOTAL 20000
JOBTYPE SP
EXCHANGE B3LYP
BASIS 6-31g(d,p)
$end

$molecule
0 1
C          17.173000     14.436000    -13.546000
C          17.800000     13.222000    -13.490000
N          17.549000     15.458000    -12.756000
C          18.966000     13.064000    -12.726000
C          18.645000     15.308000    -11.969000
C          19.432000     14.171000    -11.963000
C          20.678000     14.157000    -11.126000
C          20.580000     14.642000     -9.771000
C          21.909000     13.640000    -11.528000
N          21.699000     14.620000     -9.003000
N          22.151000     13.096000    -12.743000
C          22.974000     13.571000    -10.642000
C          22.858000     14.054000     -9.349000
S          23.682000     12.794000    -12.890000
N          24.134000     13.190000    -11.365000
C          23.865000     13.825000     -8.294000
S          25.343000     12.684000     -8.355000
C          23.811000     14.476000     -7.095000
C          25.599000     13.043000     -6.621000
S          22.713000     15.665000     -6.423000
C          24.749000     14.012000     -6.189000
C          26.668000     12.420000     -5.887000
C          23.543000     15.503000     -4.834000
C          24.656000     14.654000     -4.939000
N          27.758000     12.123000     -6.512000
S          26.490000     11.695000     -4.344000
C          28.635000     11.426000     -5.749000
C          28.102000     11.033000     -4.518000
C          15.915000     14.664000    -14.417000
H          17.439000     12.411000    -14.116000
H          19.477000     12.107000    -12.772000
H          18.934000     16.143000    -11.333000
H          19.763000     15.237000     -9.365000
H          23.196000     16.046000     -3.965000
H          25.192000     14.350000     -4.047000
H          29.626000     11.214000     -6.126000
H          28.612000     10.587000     -3.674000
H          15.539000     13.660000    -14.649000
C          16.267000     15.221000    -15.815000
H          15.113000     15.180000    -13.876000
H          17.290000     14.909000    -16.061000
H          16.325000     16.307000    -15.672000
C          15.215000     14.933000    -16.879000
H          15.074000     13.846000    -16.914000
C          15.424000     15.692000    -18.245000
H          14.379000     15.405000    -16.348000
H          16.272000     15.321000    -18.833000
H          15.744000     16.712000    -17.999000
C          14.105000     15.771000    -18.985000
H          13.411000     16.268000    -18.296000
C          13.594000     14.474000    -19.522000
H          14.265000     16.510000    -19.780000
H          14.441000     14.067000    -20.088000
H          12.847000     14.607000    -20.315000
H          13.380000     13.795000    -18.688000
C          21.154000     11.858000     -6.000000
C          22.411000     11.428000     -6.339000
N          20.099000     11.788000     -6.788000
C          22.543000     10.879000     -7.577000
C          20.215000     11.253000     -8.013000
C          21.479000     10.749000     -8.475000
C          21.691000     10.118000     -9.815000
C          22.981000     10.037000    -10.338000
C          20.703000      9.429000    -10.616000
N          23.319000      9.331000    -11.415000
N          19.349000      9.533000    -10.467000
C          21.022000      8.694000    -11.778000
C          22.412000      8.706000    -12.170000
S          18.641000      8.561000    -11.546000
N          19.939000      8.094000    -12.389000
C          22.844000      7.812000    -13.279000
S          21.854000      7.168000    -14.522000
C          24.136000      7.339000    -13.503000
C          23.168000      6.412000    -15.446000
S          25.603000      7.510000    -12.554000
C          24.313000      6.617000    -14.679000
C          23.052000      5.648000    -16.608000
C          26.494000      6.677000    -13.902000
C          25.657000      6.201000    -14.865000
N          24.061000      5.660000    -17.443000
S          21.478000      5.011000    -17.236000
C          23.755000      5.058000    -18.533000
C          22.394000      4.921000    -18.747000
C          20.774000     12.615000     -4.722000
H          23.286000     11.568000     -5.712000
H          23.471000     10.431000     -7.919000
H          19.297000     11.355000     -8.589000
H          23.820000     10.602000     -9.935000
H          27.569000      6.581000    -13.824000
H          25.914000      5.683000    -15.782000
H          24.431000      5.117000    -19.376000
H          21.802000      4.770000    -19.640000
H          21.134000     13.639000     -4.880000
C          21.283000     11.996000     -3.379000
H          19.696000     12.664000     -4.522000
H          21.084000     12.613000     -2.494000
H          22.375000     11.937000     -3.465000
C          20.754000     10.600000     -3.074000
H          19.687000     10.770000     -2.886000
C          21.467000      9.997000     -1.821000
H          20.830000      9.949000     -3.954000
H          21.158000     10.689000     -1.029000
H          22.562000      9.963000     -1.887000
C          20.952000      8.581000     -1.513000
H          19.860000      8.501000     -1.584000
C          21.436000      8.307000     -0.074000
H          21.379000      7.799000     -2.154000
H          21.005000      7.400000      0.366000
H          21.193000      9.179000      0.546000
H          22.488000      8.056000      0.108000
$end

--------------------------------------------------------------

             Standard Nuclear Orientation (Angstroms)
    I     Atom           X                Y                Z
 ----------------------------------------------------------------
    1      C      -3.9900564579    -5.0905216918    -0.2531128595
    2      C      -3.8774086733    -3.7669240566    -0.5778601098
    3      N      -2.9870597875    -5.7536496258     0.3503927514
    4      C      -2.7742673738    -3.0223509100    -0.1341190788
    5      C      -1.8867646213    -5.0612537601     0.7415749499
    6      C      -1.7523289725    -3.6928770421     0.5944484267
    7      C      -0.5335222142    -3.0203108684     1.1560940696
    8      C       0.7479670565    -3.6279513623     0.8926319673
    9      C      -0.5321683090    -1.8101604034     1.8487613915
   10      N       1.8563288511    -3.0186452557     1.3853278173
   11      N      -1.6406261508    -1.0855554326     2.1262390469
   12      C       0.6593581954    -1.2122907957     2.2319043432
   13      C       1.8768634390    -1.8216765149     1.9771024064
   14      S      -1.2668655272     0.1098671033     3.0685988280
   15      N       0.3572451343    -0.1114295459     3.0747104935
   16      C       3.1818948545    -1.1561501091     2.1600849402
   17      S       3.5023434270     0.6488767559     2.5196356727
   18      C       4.3576614380    -1.8463604496     2.0859187276
   19      C       5.2439414184     0.3095868976     2.2896534376
   20      S       4.7444365761    -3.5315492669     1.8005196338
   21      C       5.4684863777    -1.0217062092     2.1305207100
   22      C       6.2215202236     1.3601514679     2.3911411872
   23      C       6.4879341327    -3.0940133796     1.7064791242
   24      C       6.6760995676    -1.7353002244     2.0049541333
   25      N       5.9961012216     2.3402821912     3.2007485234
   26      S       7.4839042861     1.6214657064     1.2614246973
   27      C       6.9214061702     3.3266774686     3.1116300144
   28      C       7.8130871766     3.1502964552     2.0497007697
   29      C      -5.2155775360    -5.9327647061    -0.6796263904
   30      H      -4.6950141388    -3.2793487092    -1.1010327232
   31      H      -2.7626782044    -1.9573581259    -0.3456422717
   32      H      -1.0825591517    -5.6130599407     1.2253161015
   33      H       0.9097050567    -4.6445973961     0.5367925917
   34      H       7.2390612326    -3.8390647630     1.4803696026
   35      H       7.6511557489    -1.2807492486     1.8706974628
   36      H       6.9008802532     4.1486522901     3.8138337453
   37      H       8.7152432392     3.7053871403     1.8275729462
   38      H      -5.7009566633    -5.3536001737    -1.4747311303
   39      C      -6.3042951134    -5.9744490700     0.4165092994
   40      H      -4.9345090610    -6.8956206221    -1.1224017254
   41      H      -6.2059169892    -5.0713791184     1.0322815034
   42      H      -6.0042980314    -6.8019260570     1.0711027509
   43      C      -7.7038510792    -6.2641521334    -0.1117512744
   44      H      -7.9341098955    -5.5005020432    -0.8644095083
   45      C      -8.7870677087    -6.5550455555     0.9962833598
   46      H      -7.4501988048    -7.2124276635    -0.6017258072
   47      H      -9.0753493948    -5.6708495282     1.5772997577
   48      H      -8.3067273238    -7.1828719875     1.7568246710
   49      C      -9.9337560850    -7.3352749322     0.3880483005
   50      H      -9.4797932496    -8.2354502945    -0.0443497351
   51      C     -10.7889543668    -6.5728905852    -0.5706513430
   52      H     -10.5101160462    -7.7123333239     1.2420870375
   53      H     -11.0621607369    -5.6640490375    -0.0203974739
   54      H     -11.7716272215    -7.0365810522    -0.7252223997
   55      H     -10.1878719881    -6.2806429491    -1.4399523801
   56      C       4.0587851031    -1.5807635402    -1.7809571714
   57      C       4.1394371983    -0.4302267488    -1.0395865952
   58      N       2.9425027849    -2.0765827302    -2.2778939046
   59      C       2.9695222313     0.2334756797    -0.8339970620
   60      C       1.7807348023    -1.4352502523    -2.0796672480
   61      C       1.7403176505    -0.2073925211    -1.3340883818
   62      C       0.4938815050     0.5821377913    -1.0856053420
   63      C       0.4637960931     1.5044182623    -0.0402902696
   64      C      -0.6941725116     0.6109379934    -1.9103260231
   65      N      -0.5046861219     2.3968713985     0.1551031770
   66      N      -1.0292784269    -0.3217326301    -2.8506251955
   67      C      -1.7518909120     1.5249281726    -1.7151754713
   68      C      -1.6124807718     2.4199287762    -0.5902547042
   69      S      -2.4116771481     0.1344480831    -3.5514546558
   70      N      -2.7866210536     1.4021914736    -2.6209785607
   71      C      -2.6021827695     3.5205475368    -0.4325546738
   72      S      -4.1929405775     3.5685053116    -1.0705786922
   73      C      -2.4085985306     4.7116679362     0.2652463986
   74      C      -4.6760672940     5.0811761095    -0.2766494554
   75      S      -0.9818756791     5.3621777537     1.0546954992
   76      C      -3.5285302038     5.5299298902     0.3738255025
   77      C      -5.8940960097     5.7501034368    -0.4044707313
   78      C      -2.0189635223     6.7276821187     1.6586165491
   79      C      -3.2734464119     6.7039162549     1.1292566872
   80      N      -6.3006588534     6.4662309084     0.6140174123
   81      S      -7.1260475403     5.3562075280    -1.6712660735
   82      C      -7.4985714184     6.8831498386     0.4260703660
   83      C      -8.2039853855     6.1792505598    -0.5350763140
   84      C       5.2046526099    -2.5639489583    -2.0475412864
   85      H       5.0518478596    -0.0794496468    -0.5675524758
   86      H       2.9266912011     1.1959808663    -0.3333961545
   87      H       0.9327356292    -2.0072254159    -2.4520189833
   88      H       1.2140291651     1.5303506203     0.7484003228
   89      H      -1.5734938106     7.4540137227     2.3256428881
   90      H      -4.0978580860     7.3801552163     1.3249816438
   91      H      -8.0258661549     7.3588220121     1.2426499666
   92      H      -9.2617354002     6.0444976345    -0.7187078893
   93      H       5.3269177522    -3.1196309135    -1.1097732982
   94      C       6.5437196792    -1.9373849875    -2.5576471328
   95      H       5.0084036166    -3.2903978264    -2.8464426411
   96      H       7.3728494178    -2.6509795103    -2.6403619045
   97      H       6.8488985925    -1.2088312984    -1.7964531018
   98      C       6.4460238734    -1.2145812186    -3.8954409290
   99      H       6.2590420634    -2.0269322972    -4.6080814610
  100      C       7.7775026780    -0.4636762391    -4.2199296109
  101      H       5.5726861950    -0.5508270086    -3.9216830354
  102      H       8.4913846597    -1.2916617417    -4.3000640214
  103      H       8.1056120267     0.2447583782    -3.4485661114
  104      C       7.6849002340     0.2829309340    -5.5612526578
  105      H       7.2159392208    -0.3177566095    -6.3506543573
  106      C       9.1503498298     0.6135649478    -5.9122393115
  107      H       7.1406590313     1.2346327143    -5.5083448654
  108      H       9.2787695893     0.9991499479    -6.9304939815
  109      H       9.7535424980    -0.2923452666    -5.7732490654
  110      H       9.6625723350     1.4333443458    -5.3941477715
 ----------------------------------------------------------------

   10   -5663.4872029922      3.53E-06 Convergence criterion met
 Total energy in the final basis set = -5663.4872029922

                    Orbital Energies (a.u.)
 --------------------------------------------------------------

 Alpha MOs
 -- Occupied --
-88.993 -88.992 -88.932 -88.929 -88.927 -88.921 -88.913 -88.906
-14.387 -14.380 -14.376 -14.370 -14.349 -14.345 -14.343 -14.341
-14.325 -14.315 -10.268 -10.267 -10.266 -10.261 -10.259 -10.259
-10.249 -10.248 -10.245 -10.243 -10.240 -10.240 -10.237 -10.236
-10.236 -10.235 -10.235 -10.231 -10.230 -10.228 -10.227 -10.226
-10.225 -10.224 -10.224 -10.222 -10.221 -10.220 -10.213 -10.212
-10.211 -10.209 -10.207 -10.204 -10.201 -10.194 -10.193 -10.190
-10.184 -10.179 -10.178 -10.178 -10.177 -10.176 -10.174 -10.173
-10.172 -10.171 -10.170 -10.168  -8.048  -8.048  -7.993  -7.988
 -7.986  -7.981  -7.972  -7.965  -6.013  -6.013  -6.007  -6.007
 -6.006  -6.006  -5.957  -5.954  -5.951  -5.950  -5.950  -5.949
 -5.947  -5.945  -5.945  -5.942  -5.941  -5.938  -5.936  -5.933
 -5.930  -5.928  -5.926  -5.921  -1.036  -1.035  -0.995  -0.985
 -0.962  -0.957  -0.941  -0.935  -0.915  -0.913  -0.896  -0.883
 -0.843  -0.838  -0.832  -0.831  -0.812  -0.812  -0.809  -0.806
 -0.805  -0.802  -0.801  -0.796  -0.788  -0.784  -0.771  -0.769
 -0.755  -0.748  -0.744  -0.738  -0.726  -0.720  -0.709  -0.707
 -0.692  -0.690  -0.675  -0.674  -0.654  -0.649  -0.648  -0.646
 -0.634  -0.634  -0.626  -0.623  -0.613  -0.610  -0.608  -0.597
 -0.596  -0.591  -0.580  -0.578  -0.576  -0.576  -0.565  -0.565
 -0.554  -0.549  -0.541  -0.538  -0.526  -0.522  -0.521  -0.517
 -0.506  -0.503  -0.499  -0.496  -0.488  -0.486  -0.478  -0.477
 -0.472  -0.470  -0.468  -0.465  -0.462  -0.460  -0.455  -0.453
 -0.452  -0.448  -0.444  -0.441  -0.441  -0.439  -0.437  -0.434
 -0.431  -0.429  -0.427  -0.420  -0.419  -0.418  -0.416  -0.415
 -0.413  -0.407  -0.406  -0.404  -0.402  -0.401  -0.396  -0.395
 -0.395  -0.394  -0.391  -0.389  -0.387  -0.385  -0.383  -0.381
 -0.380  -0.377  -0.375  -0.373  -0.368  -0.358  -0.357  -0.355
 -0.349  -0.347  -0.347  -0.347  -0.345  -0.343  -0.338  -0.335
 -0.334  -0.329  -0.328  -0.327  -0.325  -0.325  -0.320  -0.320
 -0.314  -0.309  -0.305  -0.304  -0.302  -0.301  -0.300  -0.299
 -0.297  -0.295  -0.294  -0.291  -0.287  -0.283  -0.281  -0.278
 -0.272  -0.271  -0.269  -0.260  -0.254  -0.252  -0.248  -0.248
 -0.242  -0.240  -0.236  -0.230  -0.197  -0.192

          Ground-State Mulliken Net Atomic Charges

     Atom                 Charge (a.u.)
  ----------------------------------------
      1 C                     0.275509
      2 C                    -0.118545
      3 N                    -0.491913
      4 C                    -0.053050
      5 C                     0.070186
      6 C                     0.047965
      7 C                    -0.022544
      8 C                     0.072735
      9 C                     0.236083
     10 N                    -0.521584
     11 N                    -0.546011
     12 C                     0.162425
     13 C                     0.312567
     14 S                     0.651477
     15 N                    -0.566928
     16 C                    -0.205069
     17 S                     0.325489
     18 C                    -0.100206
     19 C                    -0.232933
     20 S                     0.284672
     21 C                     0.172363
     22 C                     0.042187
     23 C                    -0.308629
     24 C                    -0.085725
     25 N                    -0.406912
     26 S                     0.267717
     27 C                     0.122512
     28 C                    -0.315685
     29 C                    -0.224276
     30 H                     0.087613
     31 H                     0.108810
     32 H                     0.100637
     33 H                     0.130071
     34 H                     0.136014
     35 H                     0.106118
     36 H                     0.120337
     37 H                     0.137306
     38 H                     0.089076
     39 C                    -0.188297
     40 H                     0.116026
     41 H                     0.092637
     42 H                     0.106802
     43 C                    -0.172064
     44 H                     0.091599
     45 C                    -0.178143
     46 H                     0.097844
     47 H                     0.091039
     48 H                     0.092468
     49 C                    -0.171020
     50 H                     0.091526
     51 C                    -0.308713
     52 H                     0.083591
     53 H                     0.099839
     54 H                     0.103498
     55 H                     0.109034
     56 C                     0.277538
     57 C                    -0.106700
     58 N                    -0.479392
     59 C                    -0.073826
     60 C                     0.075357
     61 C                     0.019898
     62 C                     0.065275
     63 C                     0.022184
     64 C                     0.200199
     65 N                    -0.523409
     66 N                    -0.542080
     67 C                     0.196310
     68 C                     0.309461
     69 S                     0.618314
     70 N                    -0.559297
     71 C                    -0.231874
     72 S                     0.323279
     73 C                    -0.113730
     74 C                    -0.218195
     75 S                     0.258583
     76 C                     0.147227
     77 C                     0.020914
     78 C                    -0.319245
     79 C                    -0.030691
     80 N                    -0.373270
     81 S                     0.247432
     82 C                     0.120809
     83 C                    -0.303946
     84 C                    -0.227290
     85 H                     0.101662
     86 H                     0.105064
     87 H                     0.125949
     88 H                     0.130085
     89 H                     0.128737
     90 H                     0.121659
     91 H                     0.107124
     92 H                     0.135897
     93 H                     0.122824
     94 C                    -0.193963
     95 H                     0.111601
     96 H                     0.083994
     97 H                     0.079000
     98 C                    -0.177324
     99 H                     0.092027
    100 C                    -0.161972
    101 H                     0.095108
    102 H                     0.092141
    103 H                     0.093718
    104 C                    -0.173028
    105 H                     0.099438
    106 C                    -0.323220
    107 H                     0.096916
    108 H                     0.089501
    109 H                     0.100095
    110 H                     0.099609
  ----------------------------------------
  Sum of atomic charges =     0.000000

                    Cartesian Multipole Moments
 -----------------------------------------------------------------
    Charge (ESU x 10^10)
                 0.0000
    Dipole Moment (Debye)
         X       0.2432      Y       2.9141      Z      -0.6775
       Tot       3.0016
    Quadrupole Moments (Debye-Ang)
        XX    -374.1196     XY      -2.8003     YY    -440.1689
        XZ       7.0948     YZ       5.4785     ZZ    -453.0423

 Total job time:  102.62s(wall), 1223.67s(cpu)
        *  Thank you very much for using Q-Chem.  Have a nice day.  *
