 Q-Chem 4.4, Q-Chem, Inc., Pleasanton, CA (2016)
 Q-Chem 4.4.2 for Intel X86 Linux

User input:
--------------------------------------------------------------
$comment
SP
$end

$rem
MEM_STATIC 5000
MEM_TOTAL 20000
JOBTYPE SP
EXCHANGE B3LYP
BASIS 6-31g(d,p)
$end

$molecule
0 1
C          -2.314000     18.947000     -3.181000
C          -2.544000     20.271000     -2.738000
N          -1.255000     18.624000     -3.950000
C          -1.733000     21.282000     -3.262000
C          -0.450000     19.581000     -4.410000
C          -0.639000     20.975000     -4.136000
C           0.350000     22.019000     -4.482000
C          -0.091000     23.158000     -5.273000
C           1.687000     21.928000     -4.162000
N           0.806000     24.108000     -5.616000
N           2.341000     20.933000     -3.525000
C           2.612000     22.965000     -4.496000
C           2.068000     24.085000     -5.134000
S           3.988000     21.192000     -3.605000
N           3.941000     22.654000     -4.340000
C           2.726000     25.389000     -5.241000
S           2.408000     26.686000     -6.430000
C           3.707000     25.863000     -4.392000
C           3.671000     27.744000     -5.782000
S           4.183000     25.294000     -2.820000
C           4.166000     27.145000     -4.704000
C           3.838000     29.154000     -6.002000
C           4.937000     26.848000     -2.448000
C           4.794000     27.734000     -3.548000
N           2.793000     29.990000     -5.958000
S           5.416000     29.917000     -6.112000
C           3.226000     31.259000     -5.854000
C           4.587000     31.462000     -6.015000
C          -3.185000     17.845000     -2.456000
H          -3.279000     20.454000     -1.960000
H          -1.971000     22.323000     -3.060000
H           0.308000     19.244000     -5.115000
H          -1.131000     23.113000     -5.593000
H           5.407000     26.989000     -1.483000
H           5.281000     28.702000     -3.502000
H           2.490000     32.051000     -5.894000
H           5.114000     32.406000     -6.044000
H          -3.523000     18.119000     -1.449000
C          -2.564000     16.399000     -2.504000
H          -4.140000     17.933000     -2.989000
H          -1.743000     16.356000     -1.778000
H          -2.073000     16.125000     -3.446000
C          -3.652000     15.352000     -2.071000
H          -4.018000     15.589000     -1.064000
C          -3.227000     13.923000     -2.247000
H          -4.504000     15.467000     -2.752000
H          -2.806000     13.784000     -3.250000
H          -4.145000     13.325000     -2.183000
C          -2.261000     13.248000     -1.317000
H          -1.519000     14.016000     -1.066000
C          -1.679000     11.901000     -1.787000
H          -2.749000     13.077000     -0.350000
H          -1.355000     12.068000     -2.822000
H          -2.505000     11.193000     -1.648000
H          -0.865000     11.520000     -1.157000
C           7.683000     20.016000     -2.905000
C           8.338000     20.424000     -1.732000
N           6.425000     19.475000     -2.880000
C           7.646000     20.234000     -0.499000
C           5.856000     19.230000     -1.683000
C           6.349000     19.637000     -0.444000
C           5.554000     19.345000      0.820000
C           4.131000     19.268000      0.761000
C           6.173000     18.951000      2.030000
N           3.407000     18.854000      1.800000
N           7.514000     19.011000      2.148000
C           5.439000     18.676000      3.143000
C           4.012000     18.542000      2.982000
S           7.711000     18.562000      3.744000
N           6.243000     18.414000      4.210000
C           3.156000     18.077000      4.100000
S           3.634000     17.112000      5.527000
C           1.822000     18.182000      4.088000
C           1.947000     17.016000      6.152000
S           0.755000     19.140000      3.014000
C           1.180000     17.587000      5.197000
C           1.516000     16.210000      7.237000
C          -0.591000     18.557000      3.976000
C          -0.241000     17.738000      5.045000
N           0.313000     16.403000      7.739000
S           2.428000     14.874000      7.851000
C           0.133000     15.610000      8.849000
C           1.170000     14.756000      9.089000
C           8.339000     20.077000     -4.297000
H           9.328000     20.871000     -1.749000
H           8.100000     20.660000      0.391000
H           4.832000     18.864000     -1.739000
H           3.630000     19.673000     -0.117000
H          -1.571000     18.879000      3.647000
H          -0.921000     17.182000      5.680000
H          -0.758000     15.663000      9.461000
H           1.271000     14.081000      9.929000
H           7.711000     20.511000     -5.084000
C           9.019000     18.829000     -4.791000
H           9.134000     20.831000     -4.239000
H           8.304000     18.078000     -5.148000
H           9.679000     18.250000     -4.134000
C           9.989000     19.242000     -6.026000
H           9.609000     19.946000     -6.776000
C          10.404000     18.051000     -6.906000
H          10.942000     19.695000     -5.727000
H           9.520000     17.649000     -7.416000
H          10.730000     17.181000     -6.323000
C          11.489000     18.399000     -7.982000
H          11.147000     19.247000     -8.587000
C          11.822000     17.222000     -8.859000
H          12.397000     18.687000     -7.438000
H          10.913000     16.837000     -9.338000
H          12.195000     16.396000     -8.240000
H          12.502000     17.564000     -9.649000
$end

--------------------------------------------------------------

             Standard Nuclear Orientation (Angstroms)
    I     Atom           X                Y                Z
 ----------------------------------------------------------------
    1      C      -0.9484662518     5.4351345976    -2.6348590027
    2      C      -0.4266332387     5.8183837338    -1.3767113937
    3      N      -0.3817304977     4.4639505082    -3.3783528155
    4      C       0.8045759775     5.2793532127    -0.9920193567
    5      C       0.7666872787     3.9119706855    -2.9885722538
    6      C       1.4641901613     4.2925429038    -1.7958076016
    7      C       2.6318767214     3.5591069854    -1.2606881281
    8      C       3.8546492917     4.3012364494    -0.9931921468
    9      C       2.6468390090     2.1935280141    -1.0784240250
   10      N       4.9364396833     3.6409316582    -0.5257682157
   11      N       1.6775872935     1.2915719821    -1.3440109754
   12      C       3.7868839376     1.5194313437    -0.5413567670
   13      C       4.8654560812     2.3357090702    -0.1839315240
   14      S       2.2799656529    -0.2563345411    -1.1790391373
   15      N       3.7686061162     0.1487269686    -0.6315423389
   16      C       5.9635228233     1.9331326692     0.6975505639
   17      S       7.6013895081     2.6420362936     0.8066485666
   18      C       5.9024991239     0.9312823242     1.6464499234
   19      C       8.1375155639     1.4951857823     2.0442833096
   20      S       4.5172769225     0.1351725199     2.3312050855
   21      C       7.0858038835     0.7494839389     2.3663722755
   22      C       9.2755226656     1.6057969467     2.9143948006
   23      C       5.4658329457    -0.3900722272     3.7262590007
   24      C       6.8049543132     0.0650190618     3.6034140497
   25      N       9.5683187383     2.7594097848     3.5278317406
   26      S      10.2211957671     0.2154758923     3.4214083613
   27      C      10.4428760400     2.5383810155     4.5253094643
   28      C      11.0003650127     1.2716075160     4.5880943860
   29      C      -2.3963376505     5.9869724724    -2.9476102979
   30      H      -1.0202969480     6.4488134775    -0.7216390782
   31      H       1.3054071674     5.6582789544    -0.1050512618
   32      H       1.2107509828     3.2219578811    -3.7040076153
   33      H       3.8157001276     5.3543869846    -1.2677498146
   34      H       4.9841711707    -0.9683849484     4.5044378561
   35      H       7.5310616870    -0.2512052617     4.3444128748
   36      H      10.8354350495     3.3961440487     5.0551207543
   37      H      11.7724676727     0.9235753050     5.2607288055
   38      H      -3.0012255016     6.2119521356    -2.0605568391
   39      C      -3.1908414281     5.1429431897    -4.0130863968
   40      H      -2.1763485402     7.0119235495    -3.2715517753
   41      H      -3.5474430287     4.2272444075    -3.5259549580
   42      H      -2.5973327634     4.7592149547    -4.8521460530
   43      C      -4.4444346369     5.9592483469    -4.4922439462
   44      H      -5.0804413068     6.2051921068    -3.6324874791
   45      C      -5.1813404663     5.3281833291    -5.6378305828
   46      H      -4.0784207209     6.9106652584    -4.8968791817
   47      H      -4.4700707717     5.0447759031    -6.4229080646
   48      H      -5.8347536292     6.1107345491    -6.0441418262
   49      C      -6.0728558603     4.1329949226    -5.4634574909
   50      H      -5.5680675010     3.5036209752    -4.7201768261
   51      C      -6.5114421728     3.4070552186    -6.7498037089
   52      H      -6.9815122876     4.4342196897    -4.9285919594
   53      H      -5.5944515790     3.2750599258    -7.3378474943
   54      H      -7.2707933389     4.0700221305    -7.1819167498
   55      H      -7.0282012472     2.4549582747    -6.5733710911
   56      C       1.8322698860    -4.1602414874    -1.4707239933
   57      C       1.4242331185    -4.9043948548    -0.3521714633
   58      N       1.1677720002    -3.0310025106    -1.8696373838
   59      C       0.2686424938    -4.4475895540     0.3486796088
   60      C       0.0285901818    -2.6979667439    -1.2309301247
   61      C      -0.4634040168    -3.2944068078    -0.0707491222
   62      C      -1.7325364329    -2.7593164253     0.5757539272
   63      C      -2.0640544764    -1.3777213695     0.4507343738
   64      C      -2.7122100970    -3.6106277314     1.1396737547
   65      N      -3.2397765352    -0.8988538305     0.8550319381
   66      N      -2.4523367658    -4.9241001449     1.2915324739
   67      C      -3.8493897952    -3.1094218553     1.6953400250
   68      C      -4.1478758012    -1.7183604485     1.4585695311
   69      S      -3.8371941847    -5.4316349382     2.0739673676
   70      N      -4.5976898240    -4.0969835344     2.2595367965
   71      C      -5.4434665190    -1.1314658205     1.8779552574
   72      S      -6.9910228843    -1.9752806334     2.1764244485
   73      C      -5.6661627471     0.1874241461     1.9187062813
   74      C      -7.8786120782    -0.4423067103     2.5050372509
   75      S      -4.5060434048     1.5507836905     1.8472719448
   76      C      -6.9941172510     0.5450961285     2.2422454422
   77      C      -9.2832713482    -0.3224916949     2.6637782259
   78      C      -5.8811406714     2.6181620303     2.0637436221
   79      C      -7.1066624105     1.9775342648     2.2177388593
   80      N      -9.7808554000     0.8067908052     3.1259396115
   81      S     -10.4064106863    -1.5303825873     2.1410989558
   82      C     -11.1377477799     0.6806232467     3.3163964746
   83      C     -11.6452332305    -0.5108225652     2.8860473199
   84      C       3.0057254083    -4.5801439655    -2.3753814125
   85      H       1.9595170316    -5.7898435094    -0.0210373327
   86      H       0.0273466009    -4.9505122804     1.2806329463
   87      H      -0.4084897782    -1.7546624384    -1.5546678204
   88      H      -1.2851014783    -0.6892064937     0.1265592782
   89      H      -5.6542753558     3.6767695198     2.0493452979
   90      H      -8.0819030625     2.4498889807     2.2411417023
   91      H     -11.7363910102     1.4657037170     3.7596897611
   92      H     -12.6686286809    -0.8500911788     2.9808342381
   93      H       3.7110541532    -3.7766363761    -2.6182721604
   94      C       2.6725909066    -5.3810593786    -3.6048105095
   95      H       3.6495872523    -5.2346004467    -1.7745206632
   96      H       2.2602498065    -4.7592000936    -4.4085149620
   97      H       1.9692711483    -6.2209623868    -3.5558793900
   98      C       4.0418425616    -6.0703094181    -4.1403273517
   99      H       4.9579635038    -5.4678636867    -4.1575772814
  100      C       3.9599455257    -6.5455832717    -5.6006402085
  101      H       4.3493342229    -6.9660527326    -3.5872344185
  102      H       3.8514217177    -5.6767307151    -6.2613048874
  103      H       3.0384879502    -7.0987024172    -5.8198208358
  104      C       5.1992099696    -7.3817360336    -6.0709350060
  105      H       6.1178676513    -6.8134868254    -5.8831747829
  106      C       5.1060366207    -7.7752128457    -7.5207079970
  107      H       5.2127371794    -8.2984848225    -5.4686620840
  108      H       4.9813312292    -6.8837606924    -8.1481700467
  109      H       4.1992262977    -8.3720020079    -7.6822744972
  110      H       6.0475013672    -8.2608103860    -7.8058450866
 ----------------------------------------------------------------

   10   -5663.4854350869      6.09E-06 Convergence criterion met
 Total energy in the final basis set = -5663.4854350869

                    Orbital Energies (a.u.)
 --------------------------------------------------------------

 Alpha MOs
 -- Occupied --
-88.996 -88.983 -88.929 -88.928 -88.923 -88.918 -88.907 -88.902
-14.394 -14.385 -14.379 -14.368 -14.357 -14.347 -14.342 -14.341
-14.335 -14.326 -10.274 -10.269 -10.267 -10.260 -10.258 -10.254
-10.250 -10.248 -10.246 -10.243 -10.242 -10.239 -10.238 -10.235
-10.231 -10.231 -10.231 -10.230 -10.229 -10.229 -10.229 -10.228
-10.226 -10.225 -10.225 -10.223 -10.223 -10.223 -10.219 -10.218
-10.212 -10.210 -10.208 -10.207 -10.202 -10.202 -10.196 -10.194
-10.191 -10.190 -10.190 -10.182 -10.177 -10.175 -10.174 -10.173
-10.170 -10.170 -10.166 -10.165  -8.053  -8.037  -7.990  -7.989
 -7.982  -7.976  -7.966  -7.963  -6.018  -6.012  -6.011  -6.002
 -5.996  -5.995  -5.953  -5.953  -5.950  -5.950  -5.947  -5.947
 -5.946  -5.942  -5.941  -5.938  -5.937  -5.933  -5.931  -5.928
 -5.927  -5.924  -5.923  -5.919  -1.058  -1.017  -0.973  -0.968
 -0.962  -0.950  -0.938  -0.933  -0.917  -0.912  -0.910  -0.887
 -0.839  -0.837  -0.831  -0.823  -0.818  -0.809  -0.805  -0.804
 -0.803  -0.800  -0.799  -0.791  -0.787  -0.780  -0.771  -0.761
 -0.753  -0.743  -0.740  -0.735  -0.722  -0.718  -0.712  -0.706
 -0.697  -0.689  -0.681  -0.671  -0.654  -0.652  -0.648  -0.640
 -0.636  -0.632  -0.627  -0.623  -0.611  -0.606  -0.599  -0.597
 -0.592  -0.589  -0.586  -0.583  -0.583  -0.573  -0.572  -0.554
 -0.553  -0.545  -0.542  -0.536  -0.526  -0.517  -0.516  -0.512
 -0.506  -0.502  -0.500  -0.496  -0.491  -0.484  -0.478  -0.477
 -0.472  -0.471  -0.466  -0.464  -0.458  -0.455  -0.455  -0.448
 -0.447  -0.441  -0.441  -0.439  -0.437  -0.433  -0.433  -0.431
 -0.429  -0.427  -0.427  -0.424  -0.417  -0.416  -0.414  -0.412
 -0.410  -0.410  -0.408  -0.405  -0.399  -0.398  -0.397  -0.396
 -0.394  -0.390  -0.389  -0.387  -0.385  -0.384  -0.381  -0.381
 -0.379  -0.376  -0.373  -0.368  -0.366  -0.362  -0.355  -0.355
 -0.353  -0.351  -0.349  -0.349  -0.340  -0.340  -0.337  -0.335
 -0.333  -0.332  -0.331  -0.327  -0.326  -0.325  -0.322  -0.319
 -0.314  -0.314  -0.307  -0.306  -0.305  -0.302  -0.300  -0.294
 -0.293  -0.290  -0.287  -0.285  -0.284  -0.283  -0.281  -0.281
 -0.276  -0.274  -0.271  -0.258  -0.255  -0.252  -0.248  -0.246
 -0.243  -0.239  -0.233  -0.226  -0.197  -0.192

          Ground-State Mulliken Net Atomic Charges

     Atom                 Charge (a.u.)
  ----------------------------------------
      1 C                     0.271862
      2 C                    -0.106594
      3 N                    -0.482696
      4 C                    -0.072605
      5 C                     0.105690
      6 C                    -0.001966
      7 C                    -0.017076
      8 C                     0.087526
      9 C                     0.290574
     10 N                    -0.505283
     11 N                    -0.591432
     12 C                     0.153718
     13 C                     0.273906
     14 S                     0.656812
     15 N                    -0.536905
     16 C                    -0.204924
     17 S                     0.329919
     18 C                    -0.116790
     19 C                    -0.200806
     20 S                     0.259454
     21 C                     0.132252
     22 C                    -0.000578
     23 C                    -0.301047
     24 C                    -0.080911
     25 N                    -0.382841
     26 S                     0.273920
     27 C                     0.118946
     28 C                    -0.307399
     29 C                    -0.242655
     30 H                     0.091743
     31 H                     0.096938
     32 H                     0.106097
     33 H                     0.125019
     34 H                     0.135045
     35 H                     0.108662
     36 H                     0.112258
     37 H                     0.133325
     38 H                     0.107411
     39 C                    -0.175553
     40 H                     0.113437
     41 H                     0.105650
     42 H                     0.120440
     43 C                    -0.180820
     44 H                     0.085361
     45 C                    -0.164749
     46 H                     0.093383
     47 H                     0.085680
     48 H                     0.080434
     49 C                    -0.182769
     50 H                     0.089462
     51 C                    -0.311629
     52 H                     0.083333
     53 H                     0.104637
     54 H                     0.105091
     55 H                     0.104209
     56 C                     0.249763
     57 C                    -0.112482
     58 N                    -0.479288
     59 C                    -0.076102
     60 C                     0.052232
     61 C                     0.061123
     62 C                     0.008195
     63 C                     0.067496
     64 C                     0.229309
     65 N                    -0.513956
     66 N                    -0.562517
     67 C                     0.206411
     68 C                     0.279765
     69 S                     0.612753
     70 N                    -0.511637
     71 C                    -0.221587
     72 S                     0.288815
     73 C                    -0.093750
     74 C                    -0.223106
     75 S                     0.286871
     76 C                     0.158939
     77 C                     0.053867
     78 C                    -0.309126
     79 C                    -0.051549
     80 N                    -0.438508
     81 S                     0.270527
     82 C                     0.133232
     83 C                    -0.308259
     84 C                    -0.219090
     85 H                     0.100078
     86 H                     0.113069
     87 H                     0.099339
     88 H                     0.130364
     89 H                     0.128844
     90 H                     0.118271
     91 H                     0.118197
     92 H                     0.128339
     93 H                     0.123110
     94 C                    -0.173086
     95 H                     0.098002
     96 H                     0.113429
     97 H                     0.103147
     98 C                    -0.188955
     99 H                     0.095006
    100 C                    -0.183140
    101 H                     0.091900
    102 H                     0.089111
    103 H                     0.082635
    104 C                    -0.178583
    105 H                     0.091783
    106 C                    -0.310249
    107 H                     0.092422
    108 H                     0.101538
    109 H                     0.102896
    110 H                     0.100027
  ----------------------------------------
  Sum of atomic charges =     0.000000

                    Cartesian Multipole Moments
 -----------------------------------------------------------------
    Charge (ESU x 10^10)
                 0.0000
    Dipole Moment (Debye)
         X      -1.9843      Y      -3.5241      Z       3.5190
       Tot       5.3610
    Quadrupole Moments (Debye-Ang)
        XX    -393.7606     XY     -17.9284     YY    -415.2798
        XZ      11.9804     YZ      -2.9242     ZZ    -443.7913

 Total job time:  88.50s(wall), 1037.25s(cpu)
        *  Thank you very much for using Q-Chem.  Have a nice day.  *
