 Q-Chem 4.4, Q-Chem, Inc., Pleasanton, CA (2016)
 Q-Chem 4.4.2 for Intel X86 Linux

User input:
--------------------------------------------------------------
$comment
SP
$end

$rem
MEM_STATIC 5000
MEM_TOTAL 20000
JOBTYPE SP
EXCHANGE B3LYP
BASIS 6-31g(d,p)
$end

$molecule
0 1
C           1.818000    -10.691000     -3.690000
C           0.505000    -10.795000     -3.285000
N           2.198000    -10.751000     -4.930000
C          -0.515000    -10.983000     -4.249000
C           1.277000    -10.864000     -5.896000
C          -0.091000    -11.016000     -5.577000
C          -1.200000    -11.238000     -6.558000
C          -1.384000    -12.466000     -7.252000
C          -2.020000    -10.176000     -7.027000
N          -2.396000    -12.727000     -8.092000
N          -1.928000     -8.941000     -6.528000
C          -2.988000    -10.412000     -8.016000
C          -3.218000    -11.698000     -8.513000
S          -3.010000     -8.139000     -7.491000
N          -3.627000     -9.269000     -8.444000
C          -4.270000    -12.015000     -9.532000
S          -5.309000    -10.871000    -10.437000
C          -4.798000    -13.275000     -9.693000
C          -6.229000    -12.182000    -11.225000
S          -4.346000    -14.769000     -9.013000
C          -5.830000    -13.374000    -10.596000
C          -7.313000    -11.958000    -12.124000
C          -5.625000    -15.569000     -9.959000
C          -6.360000    -14.701000    -10.698000
N          -7.762000    -12.956000    -12.856000
S          -8.004000    -10.364000    -12.443000
C          -8.829000    -12.515000    -13.635000
C          -9.180000    -11.256000    -13.394000
C           2.997000    -10.400000     -2.729000
H           0.268000    -10.785000     -2.225000
H          -1.573000    -11.067000     -4.018000
H           1.645000    -10.997000     -6.912000
H          -0.734000    -13.329000     -7.115000
H          -5.851000    -16.622000     -9.860000
H          -7.088000    -14.997000    -11.445000
H          -9.366000    -13.234000    -14.239000
H         -10.045000    -10.782000    -13.838000
H           3.941000    -10.488000     -3.279000
C           2.888000    -11.331000     -1.463000
H           2.931000     -9.340000     -2.455000
H           2.769000    -12.386000     -1.741000
H           2.048000    -11.072000     -0.807000
C           4.118000    -11.203000     -0.537000
H           4.996000    -11.125000     -1.190000
C           4.401000    -12.264000      0.471000
H           4.052000    -10.295000      0.075000
H           4.687000    -13.177000     -0.066000
H           3.529000    -12.528000      1.081000
C           5.525000    -11.864000      1.487000
H           6.519000    -11.923000      1.025000
C           5.464000    -12.893000      2.685000
H           5.294000    -10.829000      1.767000
H           6.192000    -12.498000      3.404000
H           5.746000    -13.880000      2.299000
H           4.473000    -13.085000      3.112000
C           6.527000    -14.380000    -17.137000
C           7.072000    -13.490000    -16.233000
N           5.626000    -15.269000    -16.743000
C           6.764000    -13.669000    -14.809000
C           5.252000    -15.370000    -15.427000
C           5.783000    -14.574000    -14.413000
C           5.356000    -14.531000    -12.949000
C           6.175000    -14.172000    -11.897000
C           3.978000    -14.717000    -12.537000
N           5.743000    -14.012000    -10.591000
N           3.021000    -14.936000    -13.450000
C           3.553000    -14.575000    -11.234000
C           4.457000    -14.254000    -10.245000
S           1.613000    -14.953000    -12.577000
N           2.257000    -14.783000    -11.043000
C           4.099000    -14.071000     -8.819000
S           2.409000    -14.262000     -8.155000
C           4.893000    -13.502000     -7.823000
C           2.988000    -13.965000     -6.566000
S           6.581000    -13.084000     -7.816000
C           4.219000    -13.476000     -6.590000
C           2.261000    -14.206000     -5.296000
C           6.287000    -12.507000     -6.104000
C           5.023000    -12.918000     -5.572000
N           1.083000    -14.636000     -5.409000
S           2.982000    -14.461000     -3.679000
C           0.509000    -15.014000     -4.136000
C           1.390000    -14.910000     -3.085000
C           6.617000    -14.326000    -18.644000
H           7.864000    -12.800000    -16.509000
H           7.306000    -13.086000    -14.071000
H           4.628000    -16.222000    -15.162000
H           7.228000    -13.943000    -12.049000
H           7.050000    -11.924000     -5.605000
H           4.597000    -12.871000     -4.577000
H          -0.527000    -15.310000     -4.041000
H           1.229000    -15.106000     -2.033000
H           5.675000    -13.973000    -19.083000
C           7.018000    -15.642000    -19.417000
H           7.355000    -13.589000    -18.984000
H           6.252000    -16.422000    -19.321000
H           7.897000    -16.017000    -18.880000
C           7.460000    -15.443000    -20.861000
H           6.559000    -15.104000    -21.385000
C           7.880000    -16.804000    -21.481000
H           8.256000    -14.689000    -20.897000
H           7.311000    -17.643000    -21.061000
H           8.912000    -17.114000    -21.272000
C           7.796000    -16.786000    -22.990000
H           8.210000    -17.694000    -23.446000
C           8.444000    -15.561000    -23.724000
H           6.763000    -16.978000    -23.306000
H           7.734000    -14.725000    -23.705000
H           8.762000    -15.861000    -24.730000
H           9.424000    -15.329000    -23.289000
$end

--------------------------------------------------------------

             Standard Nuclear Orientation (Angstroms)
    I     Atom           X                Y                Z
 ----------------------------------------------------------------
    1      C       5.4090896322    -2.8598384374    -1.4853183592
    2      C       6.2742816747    -1.8676405260    -1.0781377676
    3      N       4.1414433957    -2.6717785804    -1.6934205198
    4      C       5.7869487873    -0.5561436585    -0.8601409248
    5      C       3.6290937997    -1.4406735448    -1.5667544915
    6      C       4.4294066329    -0.3668782616    -1.1164745131
    7      C       3.9552678084     1.0283454377    -0.8517686312
    8      C       3.1409731740     1.3696291174     0.2635455391
    9      C       4.1039026968     2.0722417363    -1.8048652620
   10      N       2.7443964324     2.6131612023     0.5704980468
   11      N       4.7835722466     1.8982503860    -2.9408521955
   12      C       3.5628049562     3.3430873627    -1.5538560407
   13      C       2.9291641726     3.6348435138    -0.3426241447
   14      S       4.5413029446     3.3640760393    -3.6715763154
   15      N       3.6929404883     4.2151233062    -2.6124268018
   16      C       2.3772935282     4.9858314775    -0.0022944313
   17      S       2.2449646921     6.4223454186    -1.0635195611
   18      C       2.1678023165     5.4024786682     1.2918553091
   19      C       1.6250395442     7.4557812959     0.2532067197
   20      S       2.2590461129     4.5542706516     2.7652723343
   21      C       1.7591893510     6.7073419992     1.4353862529
   22      C       1.3124330242     8.8378996469     0.0936478678
   23      C       1.7564318730     6.0289294849     3.6275467982
   24      C       1.5880727812     7.0936252882     2.8042315108
   25      N       0.6219788513     9.4562203610     1.0287315697
   26      S       1.6601830802     9.7547275469    -1.3755609331
   27      C       0.4571690175    10.7930786861     0.6745303031
   28      C       1.0912978594    11.1299734234    -0.4438370552
   29      C       5.8525675439    -4.3022893693    -1.8330332583
   30      H       7.3134162732    -2.1112969609    -0.8763957843
   31      H       6.3993786314     0.2844584231    -0.5469336030
   32      H       2.5490770741    -1.3457741390    -1.6663886986
   33      H       2.8099359639     0.6412815452     1.0024380750
   34      H       1.7021621720     6.0833933031     4.7063306005
   35      H       1.1520405548     8.0388967712     3.1074586880
   36      H      -0.0223908173    11.4630466478     1.3754663166
   37      H       1.1500477416    12.1445362412    -0.8143066761
   38      H       4.9645900244    -4.9203243000    -2.0088421015
   39      C       6.8147878555    -4.8438202098    -0.7095233915
   40      H       6.3572291619    -4.2551027292    -2.8057213235
   41      H       6.3821435937    -4.7229028233     0.2918096841
   42      H       7.7929230232    -4.3476226647    -0.7020007626
   43      C       7.1705561209    -6.3332324764    -0.9140717757
   44      H       6.2544139492    -6.8310387582    -1.2550254776
   45      C       7.7170445337    -7.1279962100     0.2224030469
   46      H       7.9417824455    -6.4470458008    -1.6858363016
   47      H       6.9227777783    -7.2442904289     0.9703000825
   48      H       8.5513908518    -6.6356561914     0.7358692361
   49      C       8.2556493022    -8.5339341324    -0.2121949994
   50      H       7.4321327193    -9.2318490473    -0.4114340751
   51      C       9.1164490309    -9.0989929479     0.9867621984
   52      H       8.8265175051    -8.3438941760    -1.1292447853
   53      H       9.5495327483   -10.0222716195     0.5830729759
   54      H       8.4415293173    -9.2842371390     1.8310707734
   55      H       9.8520898921    -8.4138157204     1.4233841060
   56      C      -9.2472393366    -1.6521549812    -0.9033107736
   57      C      -8.4665643347    -2.4415522296    -1.7241271512
   58      N      -8.7314753036    -1.1032614347     0.1875885512
   59      C      -7.1173863119    -2.7974670174    -1.2683593085
   60      C      -7.4343893332    -1.3456061309     0.5627818796
   61      C      -6.5711884985    -2.1793077193    -0.1468652020
   62      C      -5.0894248031    -2.4235361642     0.1218406182
   63      C      -4.4051589461    -3.5756326961    -0.2110254479
   64      C      -4.2100100416    -1.3842897274     0.6216611068
   65      N      -3.0358157104    -3.7355151170    -0.0798892046
   66      N      -4.6842652256    -0.1543818324     0.8661761175
   67      C      -2.8501348490    -1.5509578256     0.7684916402
   68      C      -2.2644549636    -2.7559041488     0.4468374316
   69      S      -3.3458775289     0.7298704513     1.2805410195
   70      N      -2.2048964091    -0.4921256237     1.2395571601
   71      C      -0.8132160227    -3.0315879857     0.5609994144
   72      S       0.4145073172    -1.8217749724     1.1630997993
   73      C      -0.1221273865    -4.1160809011     0.0201809482
   74      C       1.6586261480    -2.9964885937     1.0196172465
   75      S      -0.7027757570    -5.5907537625    -0.6955734941
   76      C       1.2501084249    -4.0409159701     0.3143919453
   77      C       3.0259362473    -2.9165048122     1.5884543823
   78      C       1.0639827942    -6.0077026789    -0.9301514615
   79      C       1.9542773741    -5.1449653928    -0.2141200822
   80      N       3.3044980099    -1.8546032611     2.2049942758
   81      S       4.1155382900    -4.2859109540     1.9586559588
   82      C       4.5825532736    -1.9268222726     2.8789736206
   83      C       5.1845098961    -3.1596224835     2.7818661304
   84      C     -10.6100742830    -1.0774977796    -1.2107437085
   85      H      -8.8777094763    -2.9635376485    -2.5832143965
   86      H      -6.5509308644    -3.5433334140    -1.8170928908
   87      H      -7.1365077012    -0.9857393509     1.5462794312
   88      H      -4.9132978664    -4.4312983660    -0.6514628431
   89      H       1.3291973226    -6.8486491368    -1.5574706059
   90      H       3.0199430338    -5.1874174600    -0.0236876174
   91      H       5.0183842463    -1.0685276489     3.3722470764
   92      H       6.1403328727    -3.4886081995     3.1681456097
   93      H     -10.5426840529    -0.0081708496    -1.4488455222
   94      C     -11.7494900056    -1.2354908758    -0.1304863352
   95      H     -11.0459237348    -1.5187545491    -2.1155866334
   96      H     -11.5286209922    -0.6682021919     0.7826250644
   97      H     -11.7093472522    -2.2927992146     0.1560841377
   98      C     -13.1659394444    -0.9890964959    -0.6335388145
   99      H     -13.1936517375     0.0787250565    -0.8790732545
  100      C     -14.1870676355    -1.2346198718     0.5110731238
  101      H     -13.3513468753    -1.6117658044    -1.5174703824
  102      H     -13.7707689255    -0.9896150374     1.4963395929
  103      H     -14.4854550688    -2.2811415186     0.6544690179
  104      C     -15.4896151104    -0.5066912094     0.2703431129
  105      H     -16.2623482476    -0.7721882749     1.0025936212
  106      C     -16.1311430275    -0.6484414781    -1.1536069540
  107      H     -15.3970262178     0.5365890480     0.5971497858
  108      H     -15.6433700031     0.0637194309    -1.8305569643
  109      H     -17.2191318168    -0.5297514387    -1.0804422839
  110      H     -16.0878421388    -1.6915159418    -1.4906079870
 ----------------------------------------------------------------

   10   -5663.5002772479      3.45E-06 Convergence criterion met
 Total energy in the final basis set = -5663.5002772479

                    Orbital Energies (a.u.)
 --------------------------------------------------------------

 Alpha MOs
 -- Occupied --
-88.985 -88.982 -88.925 -88.923 -88.922 -88.919 -88.914 -88.903
-14.392 -14.385 -14.382 -14.382 -14.348 -14.346 -14.345 -14.341
-14.322 -14.321 -10.270 -10.269 -10.263 -10.258 -10.253 -10.252
-10.252 -10.246 -10.242 -10.240 -10.239 -10.238 -10.237 -10.236
-10.233 -10.232 -10.230 -10.228 -10.227 -10.225 -10.225 -10.225
-10.224 -10.224 -10.221 -10.220 -10.216 -10.216 -10.216 -10.215
-10.210 -10.208 -10.205 -10.204 -10.202 -10.196 -10.196 -10.189
-10.187 -10.185 -10.185 -10.182 -10.178 -10.176 -10.175 -10.173
-10.173 -10.173 -10.173 -10.172  -8.041  -8.038  -7.986  -7.984
 -7.980  -7.977  -7.972  -7.964  -6.006  -6.003  -6.000  -5.999
 -5.997  -5.995  -5.950  -5.948  -5.947  -5.945  -5.944  -5.943
 -5.941  -5.941  -5.940  -5.938  -5.937  -5.937  -5.934  -5.933
 -5.928  -5.928  -5.925  -5.920  -1.041  -1.034  -0.973  -0.969
 -0.950  -0.948  -0.946  -0.935  -0.915  -0.912  -0.910  -0.905
 -0.842  -0.835  -0.829  -0.827  -0.807  -0.805  -0.805  -0.802
 -0.802  -0.800  -0.793  -0.792  -0.783  -0.775  -0.764  -0.764
 -0.749  -0.746  -0.741  -0.740  -0.720  -0.717  -0.708  -0.704
 -0.693  -0.692  -0.672  -0.671  -0.656  -0.653  -0.644  -0.638
 -0.638  -0.634  -0.631  -0.628  -0.609  -0.608  -0.600  -0.594
 -0.592  -0.587  -0.583  -0.582  -0.576  -0.573  -0.571  -0.560
 -0.550  -0.543  -0.536  -0.533  -0.519  -0.516  -0.513  -0.508
 -0.508  -0.505  -0.498  -0.494  -0.493  -0.484  -0.480  -0.475
 -0.473  -0.471  -0.469  -0.468  -0.464  -0.462  -0.447  -0.445
 -0.443  -0.442  -0.438  -0.435  -0.435  -0.430  -0.430  -0.429
 -0.428  -0.424  -0.424  -0.423  -0.415  -0.414  -0.414  -0.411
 -0.411  -0.408  -0.404  -0.401  -0.400  -0.398  -0.394  -0.392
 -0.392  -0.389  -0.388  -0.386  -0.386  -0.384  -0.383  -0.380
 -0.379  -0.377  -0.372  -0.368  -0.364  -0.358  -0.357  -0.355
 -0.354  -0.351  -0.350  -0.348  -0.345  -0.344  -0.343  -0.338
 -0.337  -0.333  -0.331  -0.330  -0.327  -0.323  -0.322  -0.320
 -0.316  -0.316  -0.311  -0.307  -0.303  -0.303  -0.301  -0.299
 -0.292  -0.290  -0.290  -0.286  -0.284  -0.283  -0.282  -0.278
 -0.273  -0.268  -0.261  -0.256  -0.255  -0.253  -0.248  -0.246
 -0.244  -0.243  -0.238  -0.231  -0.196  -0.193

          Ground-State Mulliken Net Atomic Charges

     Atom                 Charge (a.u.)
  ----------------------------------------
      1 C                     0.288768
      2 C                    -0.109667
      3 N                    -0.487360
      4 C                    -0.050636
      5 C                     0.080987
      6 C                     0.032609
      7 C                    -0.064503
      8 C                     0.057057
      9 C                     0.255210
     10 N                    -0.513319
     11 N                    -0.540287
     12 C                     0.185904
     13 C                     0.280669
     14 S                     0.598600
     15 N                    -0.529451
     16 C                    -0.210838
     17 S                     0.309578
     18 C                    -0.109355
     19 C                    -0.228232
     20 S                     0.280878
     21 C                     0.146954
     22 C                     0.065871
     23 C                    -0.313143
     24 C                    -0.048535
     25 N                    -0.438269
     26 S                     0.260641
     27 C                     0.126046
     28 C                    -0.293419
     29 C                    -0.225192
     30 H                     0.084157
     31 H                     0.106922
     32 H                     0.114317
     33 H                     0.146469
     34 H                     0.124014
     35 H                     0.128295
     36 H                     0.116227
     37 H                     0.125180
     38 H                     0.119698
     39 C                    -0.194809
     40 H                     0.114133
     41 H                     0.103618
     42 H                     0.093363
     43 C                    -0.174304
     44 H                     0.087556
     45 C                    -0.174178
     46 H                     0.084739
     47 H                     0.085393
     48 H                     0.082572
     49 C                    -0.179432
     50 H                     0.099594
     51 C                    -0.321187
     52 H                     0.094184
     53 H                     0.102136
     54 H                     0.105791
     55 H                     0.103933
     56 C                     0.290214
     57 C                    -0.135665
     58 N                    -0.487740
     59 C                    -0.092147
     60 C                     0.089968
     61 C                     0.059449
     62 C                     0.063396
     63 C                     0.033251
     64 C                     0.218088
     65 N                    -0.558440
     66 N                    -0.547142
     67 C                     0.252199
     68 C                     0.330194
     69 S                     0.592518
     70 N                    -0.585163
     71 C                    -0.241086
     72 S                     0.341240
     73 C                    -0.105360
     74 C                    -0.226046
     75 S                     0.285072
     76 C                     0.159279
     77 C                     0.113154
     78 C                    -0.331607
     79 C                    -0.042865
     80 N                    -0.446287
     81 S                     0.248784
     82 C                     0.104250
     83 C                    -0.304469
     84 C                    -0.221080
     85 H                     0.089919
     86 H                     0.099713
     87 H                     0.112812
     88 H                     0.111773
     89 H                     0.127322
     90 H                     0.111031
     91 H                     0.122539
     92 H                     0.142676
     93 H                     0.119701
     94 C                    -0.182405
     95 H                     0.081765
     96 H                     0.114146
     97 H                     0.089360
     98 C                    -0.168070
     99 H                     0.095477
    100 C                    -0.171140
    101 H                     0.096673
    102 H                     0.093667
    103 H                     0.091233
    104 C                    -0.190632
    105 H                     0.083916
    106 C                    -0.317078
    107 H                     0.089330
    108 H                     0.112042
    109 H                     0.100568
    110 H                     0.101752
  ----------------------------------------
  Sum of atomic charges =     0.000000

                    Cartesian Multipole Moments
 -----------------------------------------------------------------
    Charge (ESU x 10^10)
                 0.0000
    Dipole Moment (Debye)
         X       3.3411      Y       0.1891      Z      -0.4671
       Tot       3.3789
    Quadrupole Moments (Debye-Ang)
        XX    -413.4803     XY      -1.6356     YY    -398.3225
        XZ      15.8465     YZ       3.1546     ZZ    -437.3122

 Total job time:  93.83s(wall), 1117.00s(cpu)
        *  Thank you very much for using Q-Chem.  Have a nice day.  *
