 Q-Chem 4.4, Q-Chem, Inc., Pleasanton, CA (2016)
 Q-Chem 4.4.2 for Intel X86 Linux

User input:
--------------------------------------------------------------
$comment
SP
$end

$rem
MEM_STATIC 5000
MEM_TOTAL 20000
JOBTYPE SP
EXCHANGE B3LYP
BASIS 6-31g(d,p)
$end

$molecule
0 1
C          14.923000     18.372000     15.135000
C          13.802000     19.062000     14.825000
N          15.753000     17.959000     14.178000
C          13.388000     19.313000     13.499000
C          15.400000     18.074000     12.940000
C          14.203000     18.764000     12.500000
C          13.809000     18.917000     11.091000
C          12.518000     18.559000     10.659000
C          14.677000     19.365000     10.128000
N          12.053000     18.717000      9.386000
N          15.815000     20.008000     10.334000
C          14.270000     19.467000      8.752000
C          12.929000     19.072000      8.387000
S          16.312000     20.628000      8.976000
N          15.115000     20.134000      7.952000
C          12.473000     18.890000      7.023000
S          13.043000     19.682000      5.613000
C          11.451000     18.083000      6.610000
C          11.926000     18.867000      4.523000
S          10.509000     16.970000      7.616000
C          11.177000     18.013000      5.278000
C          12.055000     18.851000      3.153000
C           9.705000     16.433000      6.109000
C          10.268000     16.949000      4.969000
N          11.189000     18.179000      2.391000
S          13.493000     19.288000      2.344000
C          11.619000     18.148000      1.064000
C          12.779000     18.915000      0.819000
C          15.299000     18.207000     16.580000
H          13.144000     19.419000     15.612000
H          12.417000     19.692000     13.195000
H          16.132000     17.831000     12.172000
H          11.737000     18.239000     11.347000
H           9.039000     15.581000      6.156000
H           9.973000     16.682000      3.961000
H          11.041000     17.810000      0.214000
H          13.215000     19.242000     -0.116000
H          16.177000     18.837000     16.765000
C          15.601000     16.738000     16.986000
H          14.450000     18.485000     17.218000
H          16.362000     16.356000     16.295000
H          14.688000     16.135000     16.907000
C          16.092000     16.701000     18.495000
H          16.948000     17.361000     18.681000
C          16.294000     15.233000     18.971000
H          15.266000     17.053000     19.126000
H          16.743000     14.622000     18.178000
H          15.269000     14.894000     19.170000
C          17.044000     15.009000     20.326000
H          18.088000     15.301000     20.160000
C          17.053000     13.563000     20.776000
H          16.577000     15.499000     21.189000
H          17.630000     13.035000     20.007000
H          16.062000     13.106000     20.892000
H          17.651000     13.471000     21.690000
C           7.683000     20.016000     -2.905000
C           8.338000     20.424000     -1.732000
N           6.425000     19.475000     -2.880000
C           7.646000     20.234000     -0.499000
C           5.856000     19.230000     -1.683000
C           6.349000     19.637000     -0.444000
C           5.554000     19.345000      0.820000
C           4.131000     19.268000      0.761000
C           6.173000     18.951000      2.030000
N           3.407000     18.854000      1.800000
N           7.514000     19.011000      2.148000
C           5.439000     18.676000      3.143000
C           4.012000     18.542000      2.982000
S           7.711000     18.562000      3.744000
N           6.243000     18.414000      4.210000
C           3.156000     18.077000      4.100000
S           3.634000     17.112000      5.527000
C           1.822000     18.182000      4.088000
C           1.947000     17.016000      6.152000
S           0.755000     19.140000      3.014000
C           1.180000     17.587000      5.197000
C           1.516000     16.210000      7.237000
C          -0.591000     18.557000      3.976000
C          -0.241000     17.738000      5.045000
N           0.313000     16.403000      7.739000
S           2.428000     14.874000      7.851000
C           0.133000     15.610000      8.849000
C           1.170000     14.756000      9.089000
C           8.339000     20.077000     -4.297000
H           9.328000     20.871000     -1.749000
H           8.100000     20.660000      0.391000
H           4.832000     18.864000     -1.739000
H           3.630000     19.673000     -0.117000
H          -1.571000     18.879000      3.647000
H          -0.921000     17.182000      5.680000
H          -0.758000     15.663000      9.461000
H           1.271000     14.081000      9.929000
H           7.711000     20.511000     -5.084000
C           9.019000     18.829000     -4.791000
H           9.134000     20.831000     -4.239000
H           8.304000     18.078000     -5.148000
H           9.679000     18.250000     -4.134000
C           9.989000     19.242000     -6.026000
H           9.609000     19.946000     -6.776000
C          10.404000     18.051000     -6.906000
H          10.942000     19.695000     -5.727000
H           9.520000     17.649000     -7.416000
H          10.730000     17.181000     -6.323000
C          11.489000     18.399000     -7.982000
H          11.147000     19.247000     -8.587000
C          11.822000     17.222000     -8.859000
H          12.397000     18.687000     -7.438000
H          10.913000     16.837000     -9.338000
H          12.195000     16.396000     -8.240000
H          12.502000     17.564000     -9.649000
$end

--------------------------------------------------------------

             Standard Nuclear Orientation (Angstroms)
    I     Atom           X                Y                Z
 ----------------------------------------------------------------
    1      C     -10.9110791160     0.4005383393    -0.8370998937
    2      C     -10.0475252492    -0.2955978488    -1.6107342561
    3      N     -10.5118674224     1.4927996953    -0.1867821606
    4      C      -8.6750431278     0.0174371974    -1.7154953485
    5      C      -9.2548007521     1.7923125365    -0.1632567625
    6      C      -8.2410170098     1.0918300399    -0.9275052794
    7      C      -6.8126375149     1.4434282368    -0.9214450424
    8      C      -5.8296088466     0.4676260219    -0.6705791924
    9      C      -6.3694809436     2.7277548339    -1.1101629408
   10      N      -4.4844866998     0.6947721476    -0.6983109065
   11      N      -7.0621679452     3.7297647633    -1.6269702736
   12      C      -4.9668452814     3.0433174750    -1.0605401763
   13      C      -4.0201161630     1.9860680771    -0.7895075452
   14      S      -6.0826221382     4.9112324445    -1.9736648515
   15      N      -4.6396534484     4.2707834320    -1.4908735689
   16      C      -2.6228664641     2.2020820771    -0.4692151307
   17      S      -1.6223272509     3.5023102403    -0.9678051490
   18      C      -1.8177433222     1.3679282046     0.2534646347
   19      C      -0.1824196567     2.9036842942    -0.1502923989
   20      S      -2.3063862897    -0.1213571418     1.0789500722
   21      C      -0.5298424384     1.7463041195     0.4822505183
   22      C       0.9451281737     3.6576167238     0.0821270100
   23      C      -0.6382618108    -0.2028369286     1.7243613886
   24      C       0.1124756426     0.9139869837     1.4561774500
   25      N       1.9865496249     3.1470762638     0.7431669480
   26      S       0.9749622108     5.3593684214    -0.0461114016
   27      C       2.9285569296     4.1378248033     1.0221464625
   28      C       2.6256631274     5.3938491298     0.4524340474
   29      C     -12.3627722261     0.0142615542    -0.8389327362
   30      H     -10.3866717661    -1.1694780074    -2.1594555957
   31      H      -7.9107313327    -0.6085638685    -2.1658820104
   32      H      -8.9607679078     2.7418252847     0.2802150264
   33      H      -6.0675710557    -0.5887810896    -0.5561982417
   34      H      -0.4102824249    -0.9546292704     2.4690107519
   35      H       1.1157050688     1.0857858464     1.8281907147
   36      H       3.9279677346     3.9780139413     1.4048559230
   37      H       3.2475883001     6.2701265768     0.3236050311
   38      H     -12.9109607557     0.7993905469    -1.3728529558
   39      C     -12.9613184624    -0.1832765839     0.5811806702
   40      H     -12.4842036196    -0.9686264398    -1.3125513675
   41      H     -12.7576898285     0.7297315823     1.1534371407
   42      H     -12.4864261780    -1.0436527895     1.0686733399
   43      C     -14.5163782775    -0.4771912112     0.4589752555
   44      H     -15.0526856956     0.2939286425    -0.1073113543
   45      C     -15.1268628163    -0.7938420347     1.8552004822
   46      H     -14.6380391654    -1.4234836706    -0.0833071522
   47      H     -14.6972350554    -0.1436792317     2.6275212166
   48      H     -14.8214649784    -1.8339049983     2.0288328302
   49      C     -16.6870218193    -0.8256239811     1.9717971945
   50      H     -17.0335400055     0.2067503133     1.8418569662
   51      C     -17.1790813388    -1.2926109940     3.3257903847
   52      H     -17.1767917579    -1.5462897334     1.3056708696
   53      H     -16.8273766427    -0.5281950406     4.0293854791
   54      H     -16.8259608674    -2.2856609100     3.6316396892
   55      H     -18.2725557439    -1.2238209627     3.3581270029
   56      C       8.4293026302     2.9500116317    -0.7286755179
   57      C       7.1159538447     3.0368157417    -1.2175497494
   58      N       8.9865065707     1.7541200845    -0.3609294425
   59      C       6.3690776572     1.8240624957    -1.2991495348
   60      C       8.2071572962     0.6545003382    -0.3677207398
   61      C       6.9155242189     0.5701990761    -0.8857905137
   62      C       6.1852448588    -0.7645953893    -0.8849009903
   63      C       6.9270529566    -1.9790187854    -0.9810028163
   64      C       4.8039352664    -0.8720163740    -0.5969052576
   65      N       6.3496595293    -3.1686858106    -0.8185152804
   66      N       4.0497600626     0.2407429517    -0.5031425517
   67      C       4.1763132668    -2.0799252877    -0.5828809293
   68      C       5.0050062738    -3.2600989850    -0.6086480507
   69      S       2.5353226519    -0.4227810869    -0.2711055305
   70      N       2.8377403293    -1.9363072050    -0.3800377947
   71      C       4.4200280398    -4.6101874255    -0.4244018336
   72      S       2.8808888383    -5.0453001327     0.3742003517
   73      C       5.0895601519    -5.7368686674    -0.6946630587
   74      C       3.1555185548    -6.8133184452     0.1632506761
   75      S       6.6091060396    -5.9777316429    -1.6126468943
   76      C       4.3991478872    -6.9216275074    -0.3544463690
   77      C       2.3687955291    -7.8429868882     0.7407208297
   78      C       6.3914979359    -7.6986912393    -1.3518907234
   79      C       5.2360468105    -8.0490798509    -0.6603832992
   80      N       2.5330522356    -9.0827879501     0.3255400721
   81      S       1.2999858677    -7.5878536239     2.0772046213
   82      C       1.6027509189    -9.9052282712     0.9183978782
   83      C       0.8302329841    -9.2784112919     1.8525293009
   84      C       9.3234952103     4.1831688343    -0.5018188600
   85      H       6.6765431312     3.9805402486    -1.5281946914
   86      H       5.4013456679     1.8739880042    -1.7897555278
   87      H       8.7320770217    -0.2694581968    -0.1301751495
   88      H       7.9626272309    -1.9241767794    -1.3134005853
   89      H       7.1781616078    -8.3310379499    -1.7438383026
   90      H       4.9791070805    -9.0362192725    -0.2939153778
   91      H       1.5094919944   -10.9529987359     0.6640087545
   92      H       0.0052773151    -9.7096580056     2.4047071853
   93      H      10.3439266871     4.0907866852    -0.8920676778
   94      C       9.3377278469     4.7760962589     0.8809951192
   95      H       8.9346013976     4.9790263024    -1.1493352635
   96      H       9.9477948317     4.1907124651     1.5794355878
   97      H       8.4050819513     4.9310041877     1.4365715469
   98      C       9.9652887112     6.2702594906     0.7793211380
   99      H      10.8502743610     6.4235577079     0.1501819991
  100      C      10.4486120263     6.8266841954     2.1290974606
  101      H       9.2694967095     7.0342502919     0.4118833256
  102      H      11.2976035208     6.2309314993     2.4861018964
  103      H       9.7242380344     6.6753002304     2.9386839075
  104      C      10.8773273559     8.3333817832     2.0825083526
  105      H      11.6271949028     8.4773240346     1.2956968820
  106      C      11.3990573860     8.8201601996     3.4077221274
  107      H       9.9794424929     8.9131167234     1.8354169281
  108      H      12.2344363003     8.1913119961     3.7403465500
  109      H      10.6233224275     8.7003759066     4.1748290283
  110      H      11.7765791540     9.8414474650     3.2738802942
 ----------------------------------------------------------------

   11   -5663.5152104176      4.91E-06 Convergence criterion met
 Total energy in the final basis set = -5663.5152104176

                    Orbital Energies (a.u.)
 --------------------------------------------------------------

 Alpha MOs
 -- Occupied --
-88.992 -88.985 -88.927 -88.927 -88.925 -88.918 -88.909 -88.903
-14.391 -14.383 -14.383 -14.374 -14.359 -14.351 -14.349 -14.337
-14.330 -14.326 -10.272 -10.267 -10.267 -10.265 -10.262 -10.258
-10.251 -10.247 -10.244 -10.244 -10.240 -10.239 -10.239 -10.237
-10.235 -10.234 -10.231 -10.230 -10.230 -10.227 -10.227 -10.226
-10.225 -10.225 -10.223 -10.221 -10.221 -10.219 -10.216 -10.215
-10.214 -10.211 -10.209 -10.202 -10.201 -10.200 -10.196 -10.190
-10.189 -10.187 -10.187 -10.183 -10.182 -10.182 -10.178 -10.178
-10.177 -10.174 -10.171 -10.169  -8.048  -8.040  -7.989  -7.988
 -7.986  -7.977  -7.968  -7.962  -6.013  -6.008  -6.006  -6.005
 -6.000  -5.999  -5.953  -5.952  -5.950  -5.949  -5.948  -5.947
 -5.946  -5.945  -5.943  -5.941  -5.937  -5.933  -5.933  -5.929
 -5.927  -5.924  -5.923  -5.918  -1.053  -1.047  -0.973  -0.969
 -0.959  -0.956  -0.955  -0.929  -0.927  -0.918  -0.909  -0.903
 -0.851  -0.845  -0.834  -0.822  -0.815  -0.811  -0.810  -0.808
 -0.805  -0.802  -0.801  -0.793  -0.788  -0.784  -0.773  -0.767
 -0.754  -0.749  -0.744  -0.735  -0.731  -0.717  -0.715  -0.709
 -0.699  -0.691  -0.682  -0.674  -0.658  -0.650  -0.647  -0.644
 -0.641  -0.633  -0.632  -0.618  -0.614  -0.606  -0.599  -0.596
 -0.594  -0.588  -0.586  -0.583  -0.580  -0.578  -0.574  -0.566
 -0.558  -0.549  -0.546  -0.537  -0.534  -0.518  -0.515  -0.512
 -0.508  -0.503  -0.499  -0.499  -0.494  -0.486  -0.484  -0.479
 -0.476  -0.475  -0.472  -0.472  -0.466  -0.463  -0.456  -0.452
 -0.449  -0.448  -0.442  -0.437  -0.436  -0.435  -0.434  -0.429
 -0.429  -0.428  -0.427  -0.425  -0.423  -0.420  -0.418  -0.417
 -0.411  -0.410  -0.408  -0.405  -0.405  -0.402  -0.401  -0.399
 -0.394  -0.393  -0.389  -0.387  -0.386  -0.385  -0.382  -0.382
 -0.378  -0.375  -0.374  -0.372  -0.367  -0.363  -0.358  -0.356
 -0.353  -0.351  -0.348  -0.348  -0.346  -0.344  -0.342  -0.340
 -0.339  -0.339  -0.332  -0.329  -0.327  -0.326  -0.324  -0.320
 -0.318  -0.315  -0.312  -0.311  -0.309  -0.304  -0.301  -0.301
 -0.301  -0.294  -0.293  -0.290  -0.290  -0.285  -0.280  -0.279
 -0.277  -0.270  -0.270  -0.268  -0.254  -0.252  -0.249  -0.249
 -0.247  -0.243  -0.240  -0.227  -0.201  -0.192

          Ground-State Mulliken Net Atomic Charges

     Atom                 Charge (a.u.)
  ----------------------------------------
      1 C                     0.299084
      2 C                    -0.131276
      3 N                    -0.469854
      4 C                    -0.069656
      5 C                     0.096551
      6 C                     0.019794
      7 C                     0.035232
      8 C                     0.049252
      9 C                     0.210319
     10 N                    -0.503674
     11 N                    -0.513828
     12 C                     0.182133
     13 C                     0.284547
     14 S                     0.605573
     15 N                    -0.550448
     16 C                    -0.205070
     17 S                     0.317440
     18 C                    -0.125962
     19 C                    -0.248650
     20 S                     0.271749
     21 C                     0.197434
     22 C                     0.066213
     23 C                    -0.300869
     24 C                    -0.071450
     25 N                    -0.456633
     26 S                     0.277601
     27 C                     0.106524
     28 C                    -0.304931
     29 C                    -0.225527
     30 H                     0.084336
     31 H                     0.103172
     32 H                     0.102808
     33 H                     0.117385
     34 H                     0.129177
     35 H                     0.134006
     36 H                     0.125750
     37 H                     0.140771
     38 H                     0.120433
     39 C                    -0.185524
     40 H                     0.096541
     41 H                     0.120603
     42 H                     0.094010
     43 C                    -0.181315
     44 H                     0.091890
     45 C                    -0.171879
     46 H                     0.090646
     47 H                     0.092159
     48 H                     0.089010
     49 C                    -0.180066
     50 H                     0.094132
     51 C                    -0.312613
     52 H                     0.091817
     53 H                     0.098021
     54 H                     0.101366
     55 H                     0.098757
     56 C                     0.251157
     57 C                    -0.120338
     58 N                    -0.475574
     59 C                    -0.075108
     60 C                     0.060705
     61 C                     0.054456
     62 C                     0.009138
     63 C                     0.066650
     64 C                     0.223451
     65 N                    -0.516232
     66 N                    -0.562104
     67 C                     0.203720
     68 C                     0.276256
     69 S                     0.632096
     70 N                    -0.519702
     71 C                    -0.220406
     72 S                     0.286723
     73 C                    -0.094767
     74 C                    -0.224151
     75 S                     0.281409
     76 C                     0.159308
     77 C                     0.054895
     78 C                    -0.309524
     79 C                    -0.052253
     80 N                    -0.439358
     81 S                     0.266276
     82 C                     0.132959
     83 C                    -0.308447
     84 C                    -0.215951
     85 H                     0.092612
     86 H                     0.114936
     87 H                     0.092995
     88 H                     0.121965
     89 H                     0.128366
     90 H                     0.117095
     91 H                     0.116670
     92 H                     0.126292
     93 H                     0.120801
     94 C                    -0.170689
     95 H                     0.093318
     96 H                     0.113759
     97 H                     0.097514
     98 C                    -0.187724
     99 H                     0.093904
    100 C                    -0.182856
    101 H                     0.089291
    102 H                     0.089272
    103 H                     0.081571
    104 C                    -0.178130
    105 H                     0.091436
    106 C                    -0.310181
    107 H                     0.091360
    108 H                     0.101598
    109 H                     0.102674
    110 H                     0.099856
  ----------------------------------------
  Sum of atomic charges =     0.000000

                    Cartesian Multipole Moments
 -----------------------------------------------------------------
    Charge (ESU x 10^10)
                 0.0000
    Dipole Moment (Debye)
         X      -2.9836      Y       1.5363      Z       0.2666
       Tot       3.3665
    Quadrupole Moments (Debye-Ang)
        XX    -454.1867     XY      32.6352     YY    -405.3111
        XZ       5.7161     YZ     -12.0130     ZZ    -444.8203

 Total job time:  97.34s(wall), 1147.13s(cpu)
        *  Thank you very much for using Q-Chem.  Have a nice day.  *
