 Q-Chem 4.4, Q-Chem, Inc., Pleasanton, CA (2016)
 Q-Chem 4.4.2 for Intel X86 Linux

User input:
--------------------------------------------------------------
$comment
SP
$end

$rem
MEM_STATIC 5000
MEM_TOTAL 20000
JOBTYPE SP
EXCHANGE B3LYP
BASIS 6-31g(d,p)
$end

$molecule
0 1
C          12.212000     29.930000      6.050000
C          12.413000     28.888000      5.198000
N          11.702000     29.723000      7.272000
C          11.695000     27.654000      5.441000
C          11.123000     28.563000      7.516000
C          11.014000     27.431000      6.684000
C          10.075000     26.286000      6.860000
C           9.444000     25.801000      5.736000
C           9.646000     25.808000      8.124000
N           8.440000     24.950000      5.797000
N          10.091000     26.312000      9.326000
C           8.659000     24.870000      8.208000
C           8.062000     24.404000      7.001000
S           9.324000     25.505000     10.525000
N           8.265000     24.682000      9.476000
C           6.914000     23.477000      7.003000
S           6.636000     22.442000      8.421000
C           6.151000     23.080000      5.880000
C           5.321000     21.615000      7.516000
S           6.033000     23.708000      4.267000
C           5.336000     21.990000      6.170000
C           4.512000     20.548000      8.005000
C           4.761000     22.425000      3.975000
C           4.479000     21.659000      5.069000
N           4.953000     19.891000      9.096000
S           2.890000     20.162000      7.565000
C           4.071000     18.964000      9.569000
C           2.904000     18.954000      8.840000
C          12.908000     31.243000      5.846000
H          13.025000     28.966000      4.305000
H          11.624000     26.885000      4.678000
H          10.615000     28.499000      8.477000
H           9.714000     26.200000      4.760000
H           4.399000     22.322000      2.960000
H           3.863000     20.767000      5.052000
H           4.369000     18.264000     10.339000
H           2.027000     18.339000      8.989000
H          13.702000     31.396000      6.588000
C          11.899000     32.461000      5.791000
H          13.386000     31.164000      4.862000
H          11.502000     32.692000      6.788000
H          11.040000     32.191000      5.165000
C          12.477000     33.740000      5.245000
H          13.234000     33.945000      6.012000
C          11.425000     34.866000      5.253000
H          12.786000     33.676000      4.194000
H          11.957000     35.824000      5.292000
H          10.904000     34.873000      6.218000
C          10.463000     34.773000      4.019000
H          11.091000     34.667000      3.125000
C           9.539000     36.078000      3.816000
H           9.863000     33.858000      4.089000
H          10.126000     37.004000      3.828000
H           8.829000     36.186000      4.645000
H           9.057000     36.069000      2.830000
C           7.683000     20.016000     -2.905000
C           8.338000     20.424000     -1.732000
N           6.425000     19.475000     -2.880000
C           7.646000     20.234000     -0.499000
C           5.856000     19.230000     -1.683000
C           6.349000     19.637000     -0.444000
C           5.554000     19.345000      0.820000
C           4.131000     19.268000      0.761000
C           6.173000     18.951000      2.030000
N           3.407000     18.854000      1.800000
N           7.514000     19.011000      2.148000
C           5.439000     18.676000      3.143000
C           4.012000     18.542000      2.982000
S           7.711000     18.562000      3.744000
N           6.243000     18.414000      4.210000
C           3.156000     18.077000      4.100000
S           3.634000     17.112000      5.527000
C           1.822000     18.182000      4.088000
C           1.947000     17.016000      6.152000
S           0.755000     19.140000      3.014000
C           1.180000     17.587000      5.197000
C           1.516000     16.210000      7.237000
C          -0.591000     18.557000      3.976000
C          -0.241000     17.738000      5.045000
N           0.313000     16.403000      7.739000
S           2.428000     14.874000      7.851000
C           0.133000     15.610000      8.849000
C           1.170000     14.756000      9.089000
C           8.339000     20.077000     -4.297000
H           9.328000     20.871000     -1.749000
H           8.100000     20.660000      0.391000
H           4.832000     18.864000     -1.739000
H           3.630000     19.673000     -0.117000
H          -1.571000     18.879000      3.647000
H          -0.921000     17.182000      5.680000
H          -0.758000     15.663000      9.461000
H           1.271000     14.081000      9.929000
H           7.711000     20.511000     -5.084000
C           9.019000     18.829000     -4.791000
H           9.134000     20.831000     -4.239000
H           8.304000     18.078000     -5.148000
H           9.679000     18.250000     -4.134000
C           9.989000     19.242000     -6.026000
H           9.609000     19.946000     -6.776000
C          10.404000     18.051000     -6.906000
H          10.942000     19.695000     -5.727000
H           9.520000     17.649000     -7.416000
H          10.730000     17.181000     -6.323000
C          11.489000     18.399000     -7.982000
H          11.147000     19.247000     -8.587000
C          11.822000     17.222000     -8.859000
H          12.397000     18.687000     -7.438000
H          10.913000     16.837000     -9.338000
H          12.195000     16.396000     -8.240000
H          12.502000     17.564000     -9.649000
$end

--------------------------------------------------------------

             Standard Nuclear Orientation (Angstroms)
    I     Atom           X                Y                Z
 ----------------------------------------------------------------
    1      C       9.8279801968     0.3005964528    -0.9051211461
    2      C       8.8818951943     1.1887470718    -1.3152194830
    3      N       9.6220920832    -1.0183929896    -1.0239063958
    4      C       7.5210223575     0.7188759026    -1.4719842947
    5      C       8.3922895029    -1.4378726208    -1.2519402803
    6      C       7.2220413804    -0.6843879046    -1.4717336246
    7      C       5.8177567399    -1.1787255560    -1.3860777141
    8      C       4.8944788303    -0.3695655214    -0.7619143220
    9      C       5.4270664522    -2.4993400398    -1.7230635955
   10      N       3.6893524200    -0.7892499371    -0.4340830747
   11      N       6.2901085001    -3.4519806561    -2.2175120556
   12      C       4.1599398589    -2.9317752404    -1.4614168991
   13      C       3.2545593770    -2.0333862250    -0.8261237700
   14      S       5.4420162596    -4.8338567027    -2.4372781668
   15      N       4.0349748810    -4.2494561329    -1.6770666615
   16      C       1.9038166930    -2.4517273483    -0.4045530093
   17      S       1.1379008944    -3.8441257724    -1.2006890642
   18      C       0.9917607078    -1.6958921362     0.3686054557
   19      C      -0.3712547214    -3.4903675423    -0.2899292486
   20      S       1.1820446588    -0.2649459667     1.3310305582
   21      C      -0.2847278988    -2.2495404599     0.3468024536
   22      C      -1.5894617720    -4.2261499081    -0.3717026678
   23      C      -0.5861707185    -0.4506654832     1.7649195309
   24      C      -1.1821236431    -1.5514277546     1.2206047934
   25      N      -1.7410634238    -5.0508284024    -1.4268487810
   26      S      -2.7874342490    -4.4294347896     0.8518238753
   27      C      -2.8779331673    -5.8029223088    -1.3733329687
   28      C      -3.5849005042    -5.5742767034    -0.2151670170
   29      C      11.2527013842     0.7242039398    -0.7033112475
   30      H       9.0861024825     2.2456231868    -1.4544648098
   31      H       6.6920414422     1.4146817986    -1.5569301439
   32      H       8.2628389609    -2.5182320408    -1.2101421868
   33      H       5.1919339431     0.6260867218    -0.4380716650
   34      H      -1.0323961820     0.3515434446     2.3386979480
   35      H      -2.2475697805    -1.7500546034     1.2485494395
   36      H      -3.1934418707    -6.3845347164    -2.2300040056
   37      H      -4.5106596821    -6.0322976863     0.1053664815
   38      H      11.9028470921     0.3379233596    -1.4986142537
   39      C      11.7935666489     0.3618366979     0.7391812993
   40      H      11.2411523924     1.8176866728    -0.7878283077
   41      H      11.9768249034    -0.7162798075     0.8343664504
   42      H      11.0325626342     0.6188388979     1.4858269708
   43      C      13.0704704699     1.0572450750     1.1315648119
   44      H      13.7515689058     0.6325409635     0.3838387001
   45      C      13.5230497129     0.6223889964     2.5389440144
   46      H      12.9775250894     2.1478159439     1.2102689175
   47      H      14.6080202954     0.7671085333     2.6037829756
   48      H      13.4487063051    -0.4682725094     2.6263827783
   49      C      12.7542402605     1.3978257118     3.6634345330
   50      H      12.8087099000     2.4659960341     3.4166528057
   51      C      13.3842988508     1.2026329954     5.1341268789
   52      H      11.6925147548     1.1254423129     3.6375263407
   53      H      14.4638158076     1.3940278781     5.1482739268
   54      H      13.2799936621     0.1631962561     5.4683374300
   55      H      12.9652855110     1.9300822718     5.8411250199
   56      C      -2.4589127615     7.0775860089     0.5426136318
   57      C      -1.5810152290     6.2340881675    -0.1568328020
   58      N      -3.5289620330     6.5870751702     1.2428019448
   59      C      -1.8589218031     4.8351032793    -0.1274692414
   60      C      -3.8005276355     5.2695588126     1.1591492649
   61      C      -2.9904466448     4.3032893742     0.5642449357
   62      C      -3.4001155715     2.8387265574     0.6112781797
   63      C      -4.1687186588     2.3521295819     1.7098279864
   64      C      -3.2188938773     1.9658968570    -0.4877322896
   65      N      -4.6885347916     1.1253988289     1.7138089087
   66      N      -2.4941311429     2.3670832277    -1.5505462314
   67      C      -3.6114396796     0.6637471759    -0.4288765258
   68      C      -4.4490260933     0.2712007413     0.6777229032
   69      S      -2.4959718077     0.9778363835    -2.4766217239
   70      N      -3.2530056134    -0.0094196705    -1.5566710182
   71      C      -5.0624900017    -1.0777097418     0.7323813124
   72      S      -5.3991996185    -2.1916189156    -0.6247741637
   73      C      -5.6237403259    -1.5780022287     1.8393729569
   74      C      -6.1897731060    -3.4105604321     0.4405826498
   75      S      -5.5161991365    -1.0148424705     3.5367282466
   76      C      -6.2458894705    -2.8339370087     1.6615295698
   77      C      -6.8940216018    -4.5589251269    -0.0042932697
   78      C      -6.4968948423    -2.4038068998     3.9680781586
   79      C      -6.8352354674    -3.2391183485     2.9079826888
   80      N      -7.2241026181    -5.4862507181     0.8718207472
   81      S      -7.4827030976    -4.7473847180    -1.6203294942
   82      C      -7.7906587605    -6.5622571563     0.2279470929
   83      C      -7.9734585341    -6.3685992340    -1.1104720686
   84      C      -2.3373474977     8.6127540400     0.5284008560
   85      H      -0.7202723639     6.6171384981    -0.6977506928
   86      H      -1.1141655347     4.1760145190    -0.5640836100
   87      H      -4.6216388448     4.9391160386     1.7933826251
   88      H      -4.2235843509     2.9629323204     2.6097278533
   89      H      -6.7572541049    -2.4811421807     5.0161990050
   90      H      -7.5275423701    -4.0724458568     2.9401916354
   91      H      -8.0689614591    -7.4689506248     0.7491846223
   92      H      -8.3508580302    -7.0906354811    -1.8229741938
   93      H      -2.4128672454     9.0903410993     1.5124315306
   94      C      -3.1623747776     9.3576113114    -0.4857281460
   95      H      -1.2954835282     8.8449853795     0.2744459898
   96      H      -4.2163925718     9.4321289127    -0.1921832317
   97      H      -3.2185997353     9.0157236328    -1.5261326679
   98      C      -2.5589116257    10.8593367684    -0.6174356864
   99      H      -2.2762814609    11.3910904409     0.2990108324
  100      C      -3.5333371374    11.8584609135    -1.2634634450
  101      H      -1.6543534748    10.9361256525    -1.2328193219
  102      H      -4.3985693546    12.0017932711    -0.6046849956
  103      H      -4.0141383942    11.4642733946    -2.1670736217
  104      C      -2.9009976058    13.2586409322    -1.5728945874
  105      H      -2.4507378125    13.6675637234    -0.6606768122
  106      C      -3.9027998710    14.2233836940    -2.1482298158
  107      H      -2.1154755975    13.0956896196    -2.3210563641
  108      H      -4.7600950668    14.3281377685    -1.4714591521
  109      H      -4.3166568859    13.8128409832    -3.0781454323
  110      H      -3.4212903500    15.2049033932    -2.2389583180
 ----------------------------------------------------------------

    9   -5663.5092133893      6.70E-06 Convergence criterion met
 Total energy in the final basis set = -5663.5092133893

                    Orbital Energies (a.u.)
 --------------------------------------------------------------

 Alpha MOs
 -- Occupied --
-88.997 -88.988 -88.934 -88.927 -88.925 -88.923 -88.915 -88.912
-14.394 -14.385 -14.379 -14.377 -14.361 -14.349 -14.346 -14.333
-14.330 -14.319 -10.276 -10.275 -10.263 -10.261 -10.260 -10.254
-10.249 -10.249 -10.248 -10.247 -10.243 -10.240 -10.240 -10.237
-10.235 -10.235 -10.233 -10.232 -10.232 -10.231 -10.231 -10.228
-10.226 -10.226 -10.224 -10.220 -10.218 -10.217 -10.215 -10.213
-10.212 -10.211 -10.211 -10.209 -10.206 -10.205 -10.199 -10.195
-10.190 -10.188 -10.185 -10.182 -10.181 -10.178 -10.175 -10.174
-10.174 -10.174 -10.172 -10.171  -8.053  -8.043  -7.996  -7.986
 -7.985  -7.981  -7.974  -7.972  -6.018  -6.012  -6.011  -6.008
 -6.002  -6.000  -5.959  -5.956  -5.952  -5.950  -5.950  -5.946
 -5.946  -5.945  -5.943  -5.942  -5.942  -5.938  -5.937  -5.936
 -5.935  -5.933  -5.930  -5.928  -1.058  -1.022  -0.980  -0.965
 -0.960  -0.955  -0.940  -0.933  -0.919  -0.913  -0.907  -0.886
 -0.844  -0.839  -0.831  -0.830  -0.820  -0.811  -0.806  -0.805
 -0.803  -0.799  -0.798  -0.790  -0.786  -0.780  -0.773  -0.759
 -0.756  -0.745  -0.742  -0.738  -0.726  -0.725  -0.713  -0.708
 -0.699  -0.691  -0.683  -0.675  -0.654  -0.652  -0.651  -0.641
 -0.638  -0.631  -0.625  -0.618  -0.613  -0.607  -0.599  -0.598
 -0.596  -0.592  -0.588  -0.585  -0.584  -0.574  -0.573  -0.559
 -0.558  -0.547  -0.541  -0.539  -0.528  -0.523  -0.517  -0.513
 -0.505  -0.504  -0.503  -0.493  -0.490  -0.484  -0.480  -0.478
 -0.474  -0.472  -0.471  -0.466  -0.462  -0.457  -0.457  -0.451
 -0.447  -0.442  -0.440  -0.439  -0.437  -0.434  -0.433  -0.431
 -0.429  -0.426  -0.425  -0.423  -0.419  -0.418  -0.413  -0.412
 -0.412  -0.409  -0.408  -0.406  -0.403  -0.398  -0.398  -0.397
 -0.393  -0.393  -0.391  -0.388  -0.387  -0.387  -0.385  -0.383
 -0.379  -0.378  -0.376  -0.366  -0.365  -0.360  -0.356  -0.355
 -0.355  -0.353  -0.352  -0.350  -0.348  -0.344  -0.341  -0.341
 -0.340  -0.336  -0.331  -0.328  -0.327  -0.325  -0.324  -0.323
 -0.320  -0.314  -0.311  -0.307  -0.305  -0.302  -0.302  -0.300
 -0.299  -0.295  -0.291  -0.290  -0.285  -0.283  -0.280  -0.278
 -0.272  -0.272  -0.268  -0.263  -0.257  -0.254  -0.253  -0.251
 -0.244  -0.242  -0.235  -0.232  -0.202  -0.190

          Ground-State Mulliken Net Atomic Charges

     Atom                 Charge (a.u.)
  ----------------------------------------
      1 C                     0.276050
      2 C                    -0.125597
      3 N                    -0.464189
      4 C                    -0.117342
      5 C                     0.076403
      6 C                     0.053168
      7 C                     0.043205
      8 C                     0.077398
      9 C                     0.219818
     10 N                    -0.528518
     11 N                    -0.558310
     12 C                     0.254275
     13 C                     0.287222
     14 S                     0.603898
     15 N                    -0.594164
     16 C                    -0.229202
     17 S                     0.366749
     18 C                    -0.097053
     19 C                    -0.189535
     20 S                     0.274928
     21 C                     0.100113
     22 C                     0.035142
     23 C                    -0.319184
     24 C                    -0.061035
     25 N                    -0.434942
     26 S                     0.294722
     27 C                     0.133997
     28 C                    -0.322898
     29 C                    -0.223294
     30 H                     0.089411
     31 H                     0.091468
     32 H                     0.108213
     33 H                     0.109785
     34 H                     0.132169
     35 H                     0.124539
     36 H                     0.119219
     37 H                     0.141449
     38 H                     0.117463
     39 C                    -0.174977
     40 H                     0.087522
     41 H                     0.112358
     42 H                     0.088588
     43 C                    -0.171618
     44 H                     0.089557
     45 C                    -0.175802
     46 H                     0.087146
     47 H                     0.086153
     48 H                     0.087907
     49 C                    -0.179577
     50 H                     0.092789
     51 C                    -0.327338
     52 H                     0.102622
     53 H                     0.103859
     54 H                     0.107621
     55 H                     0.101692
     56 C                     0.251242
     57 C                    -0.115520
     58 N                    -0.474111
     59 C                    -0.075467
     60 C                     0.061996
     61 C                     0.052897
     62 C                     0.008385
     63 C                     0.064027
     64 C                     0.230123
     65 N                    -0.514917
     66 N                    -0.558916
     67 C                     0.218703
     68 C                     0.272424
     69 S                     0.623661
     70 N                    -0.514896
     71 C                    -0.232065
     72 S                     0.297710
     73 C                    -0.093001
     74 C                    -0.227319
     75 S                     0.283071
     76 C                     0.162332
     77 C                     0.049926
     78 C                    -0.307666
     79 C                    -0.054663
     80 N                    -0.444786
     81 S                     0.274627
     82 C                     0.125700
     83 C                    -0.306953
     84 C                    -0.216344
     85 H                     0.097843
     86 H                     0.114644
     87 H                     0.092754
     88 H                     0.124657
     89 H                     0.132180
     90 H                     0.119305
     91 H                     0.120837
     92 H                     0.130315
     93 H                     0.120890
     94 C                    -0.172420
     95 H                     0.095171
     96 H                     0.113095
     97 H                     0.102665
     98 C                    -0.188335
     99 H                     0.093224
    100 C                    -0.183192
    101 H                     0.091688
    102 H                     0.088572
    103 H                     0.082834
    104 C                    -0.178572
    105 H                     0.091082
    106 C                    -0.310450
    107 H                     0.092692
    108 H                     0.101154
    109 H                     0.103177
    110 H                     0.099950
  ----------------------------------------
  Sum of atomic charges =     0.000000

                    Cartesian Multipole Moments
 -----------------------------------------------------------------
    Charge (ESU x 10^10)
                 0.0000
    Dipole Moment (Debye)
         X      -3.1901      Y      -0.0217      Z      -1.4761
       Tot       3.5151
    Quadrupole Moments (Debye-Ang)
        XX    -441.7438     XY      49.4450     YY    -416.8082
        XZ       6.4989     YZ       0.7701     ZZ    -438.4892

 Total job time:  85.15s(wall), 1012.52s(cpu)
        *  Thank you very much for using Q-Chem.  Have a nice day.  *
