 Q-Chem 4.4, Q-Chem, Inc., Pleasanton, CA (2016)
 Q-Chem 4.4.2 for Intel X86 Linux

User input:
--------------------------------------------------------------
$comment
SP
$end

$rem
MEM_STATIC 5000
MEM_TOTAL 20000
JOBTYPE SP
EXCHANGE B3LYP
BASIS 6-31g(d,p)
$end

$molecule
0 1
C          10.942000     11.080000      8.477000
C          11.815000     10.405000      7.598000
N          10.163000     12.014000      7.990000
C          11.744000     10.673000      6.167000
C          10.071000     12.263000      6.677000
C          10.866000     11.656000      5.712000
C          10.729000     12.013000      4.230000
C          10.469000     13.373000      3.791000
C          10.792000     10.989000      3.234000
N          10.355000     13.701000      2.516000
N          11.098000      9.717000      3.491000
C          10.731000     11.368000      1.865000
C          10.363000     12.734000      1.585000
S          11.238000      9.061000      2.034000
N          10.893000     10.321000      1.033000
C          10.191000     13.160000      0.214000
S          10.592000     12.304000     -1.286000
C           9.631000     14.347000     -0.165000
C          10.304000     13.711000     -2.378000
S           8.922000     15.641000      0.800000
C           9.754000     14.677000     -1.534000
C          10.524000     13.757000     -3.759000
C           8.814000     16.654000     -0.686000
C           9.401000     15.985000     -1.722000
N          11.371000     12.850000     -4.246000
S           9.886000     14.907000     -4.906000
C          11.475000     12.947000     -5.604000
C          10.833000     14.089000     -6.140000
C          10.964000     10.879000      9.986000
H          12.460000      9.633000      8.008000
H          12.464000     10.197000      5.508000
H           9.389000     13.072000      6.419000
H          10.310000     14.256000      4.409000
H           8.571000     17.692000     -0.503000
H           9.545000     16.525000     -2.650000
H          12.166000     12.290000     -6.116000
H          10.817000     14.470000     -7.152000
H           9.929000     10.972000     10.337000
C          11.766000     11.862000     10.910000
H          11.282000      9.864000     10.254000
H          12.764000     12.047000     10.496000
H          11.859000     11.357000     11.879000
C          11.183000     13.264000     11.010000
H          11.178000     13.742000     10.022000
C          11.973000     14.190000     11.958000
H          10.135000     13.192000     11.324000
H          12.947000     14.420000     11.510000
H          12.100000     13.748000     12.954000
C          11.203000     15.503000     12.116000
H          11.468000     16.054000     11.205000
C          11.557000     16.303000     13.345000
H          10.112000     15.400000     12.172000
H          11.351000     15.680000     14.224000
H          10.904000     17.176000     13.466000
H          12.604000     16.592000     13.494000
C           7.683000     20.016000     -2.905000
C           8.338000     20.424000     -1.732000
N           6.425000     19.475000     -2.880000
C           7.646000     20.234000     -0.499000
C           5.856000     19.230000     -1.683000
C           6.349000     19.637000     -0.444000
C           5.554000     19.345000      0.820000
C           4.131000     19.268000      0.761000
C           6.173000     18.951000      2.030000
N           3.407000     18.854000      1.800000
N           7.514000     19.011000      2.148000
C           5.439000     18.676000      3.143000
C           4.012000     18.542000      2.982000
S           7.711000     18.562000      3.744000
N           6.243000     18.414000      4.210000
C           3.156000     18.077000      4.100000
S           3.634000     17.112000      5.527000
C           1.822000     18.182000      4.088000
C           1.947000     17.016000      6.152000
S           0.755000     19.140000      3.014000
C           1.180000     17.587000      5.197000
C           1.516000     16.210000      7.237000
C          -0.591000     18.557000      3.976000
C          -0.241000     17.738000      5.045000
N           0.313000     16.403000      7.739000
S           2.428000     14.874000      7.851000
C           0.133000     15.610000      8.849000
C           1.170000     14.756000      9.089000
C           8.339000     20.077000     -4.297000
H           9.328000     20.871000     -1.749000
H           8.100000     20.660000      0.391000
H           4.832000     18.864000     -1.739000
H           3.630000     19.673000     -0.117000
H          -1.571000     18.879000      3.647000
H          -0.921000     17.182000      5.680000
H          -0.758000     15.663000      9.461000
H           1.271000     14.081000      9.929000
H           7.711000     20.511000     -5.084000
C           9.019000     18.829000     -4.791000
H           9.134000     20.831000     -4.239000
H           8.304000     18.078000     -5.148000
H           9.679000     18.250000     -4.134000
C           9.989000     19.242000     -6.026000
H           9.609000     19.946000     -6.776000
C          10.404000     18.051000     -6.906000
H          10.942000     19.695000     -5.727000
H           9.520000     17.649000     -7.416000
H          10.730000     17.181000     -6.323000
C          11.489000     18.399000     -7.982000
H          11.147000     19.247000     -8.587000
C          11.822000     17.222000     -8.859000
H          12.397000     18.687000     -7.438000
H          10.913000     16.837000     -9.338000
H          12.195000     16.396000     -8.240000
H          12.502000     17.564000     -9.649000
$end

--------------------------------------------------------------

             Standard Nuclear Orientation (Angstroms)
    I     Atom           X                Y                Z
 ----------------------------------------------------------------
    1      C       5.8720623035     5.8325018902    -0.0528262781
    2      C       4.9164172847     6.8409258876    -0.2982211424
    3      N       5.4560742474     4.5988682514     0.0936932851
    4      C       3.5203852294     6.4747797234    -0.5023228010
    5      C       4.1811151296     4.2400430329    -0.1067006033
    6      C       3.1517073592     5.1369036684    -0.3668152756
    7      C       1.7096616212     4.6591623709    -0.5533878945
    8      C       1.1550212200     3.5726932771     0.2352057485
    9      C       0.8847124508     5.2387912617    -1.5673160059
   10      N      -0.0895167210     3.1518266395     0.0930734624
   11      N       1.2409565781     6.2883844969    -2.3083377077
   12      C      -0.4700588539     4.8182782971    -1.6636827979
   13      C      -0.8470913901     3.6599727929    -0.8917016934
   14      S      -0.0979024695     6.6542599217    -3.1123132198
   15      N      -1.1577777288     5.5060278961    -2.5957344263
   16      C      -2.1840643128     3.1236303971    -1.0163661969
   17      S      -3.5977681136     3.8122150807    -1.8354081354
   18      C      -2.5847730057     1.9158306783    -0.5195137212
   19      C      -4.7797082047     2.6085446338    -1.1956800086
   20      S      -1.6743308053     0.6623065178     0.3219814831
   21      C      -3.9763761231     1.6691529062    -0.5474572468
   22      C      -6.1652512069     2.6115435023    -1.3904583332
   23      C      -3.2211555302    -0.1978695443     0.6588188515
   24      C      -4.2603003610     0.5676813914     0.2121245652
   25      N      -6.7049124701     3.7826206940    -1.7289416153
   26      S      -7.2797655226     1.2876489496    -1.1661503903
   27      C      -8.0480250427     3.6659606628    -1.9453395230
   28      C      -8.5735455483     2.4059664637    -1.5713518008
   29      C       7.3450926015     6.1270005909     0.1950007919
   30      H       5.2671616076     7.8622185062    -0.4167488063
   31      H       2.7840040062     7.2633895341    -0.6251815021
   32      H       3.9798892848     3.1824942309     0.0584287118
   33      H       1.6599743747     2.9667048797     0.9866672403
   34      H      -3.1362354965    -1.0092352937     1.3690696583
   35      H      -5.2634071720     0.2526651349     0.4730105247
   36      H      -8.6103511894     4.5585262697    -2.1869796317
   37      H      -9.5964138918     2.0556184266    -1.5477381471
   38      H       7.9155990526     5.2974995067    -0.2403442903
   39      C       7.9005927679     6.2404646310     1.6584947197
   40      H       7.6722066659     7.0285435368    -0.3373428054
   41      H       7.2385446646     6.8631980403     2.2712919209
   42      H       8.8815782448     6.7230314258     1.5722869320
   43      C       7.9346515561     4.9307622628     2.4324538308
   44      H       6.9183114893     4.5316025860     2.5437076889
   45      C       8.5242347874     5.0724604966     3.8511127835
   46      H       8.4963657939     4.1891375469     1.8523211771
   47      H       7.8287984517     5.6452485196     4.4760625284
   48      H       9.5140215437     5.5454449627     3.8403020545
   49      C       8.6713317238     3.6776023472     4.4631309485
   50      H       7.6541381264     3.4519665229     4.8068643630
   51      C       9.6528054338     3.5852888165     5.6050348712
   52      H       8.9999169875     2.8953226897     3.7673606834
   53      H      10.6355191473     3.8981355881     5.2313951317
   54      H       9.7995415513     2.5494072411     5.9345752688
   55      H       9.5049597411     4.2393219287     6.4723948537
   56      C      -5.5649199365    -3.3799762003     2.0325479505
   57      C      -4.6527923057    -3.0012444065     3.0305476566
   58      N      -5.1635296177    -4.0255605172     0.8932601459
   59      C      -3.2762729126    -3.2988421591     2.8027693911
   60      C      -3.8430228311    -4.1968895433     0.6846859589
   61      C      -2.8287443354    -3.9372724934     1.6053689231
   62      C      -1.3832790131    -4.2491898557     1.2471475372
   63      C      -1.0897534753    -5.3183141912     0.3498432891
   64      C      -0.3120797031    -3.4000713122     1.6132441601
   65      N       0.1401529454    -5.5224235341    -0.1200104887
   66      N      -0.5269523071    -2.3784645714     2.4652737555
   67      C       0.9713676164    -3.6902098974     1.2643421977
   68      C       1.1760406443    -4.7376597912     0.2942062939
   69      S       1.0234815777    -1.7855586411     2.6448380241
   70      N       1.8421958112    -2.7926590205     1.8024961519
   71      C       2.5206012880    -5.0053052127    -0.2709552792
   72      S       3.9156872034    -3.8919551822    -0.3720740115
   73      C       2.8119738555    -6.1124597160    -0.9638015340
   74      C       4.9318721071    -5.0859013079    -1.2595822596
   75      S       1.8973478082    -7.6453258044    -1.1171304238
   76      C       4.1155172743    -6.1338040702    -1.5082177111
   77      C       6.1923149119    -4.8148443585    -1.8515569770
   78      C       3.2257640409    -8.2384701793    -2.0972013718
   79      C       4.2865559447    -7.3514625556    -2.2519915922
   80      N       6.9335723289    -5.8218089159    -2.2675158956
   81      S       6.7562117021    -3.2165221955    -2.1994401086
   82      C       8.1563415374    -5.3603295287    -2.6978892661
   83      C       8.2621158537    -3.9997794637    -2.6973283874
   84      C      -7.0670962177    -3.0470574216     2.0985214832
   85      H      -4.9691494000    -2.5060314865     3.9442655303
   86      H      -2.5906530048    -3.1168483389     3.6252629116
   87      H      -3.6002917522    -4.7760227830    -0.2048950178
   88      H      -1.8717524566    -6.0483847099     0.1464111603
   89      H       3.0971674596    -9.2354052675    -2.4995797375
   90      H       5.1382675324    -7.4746889227    -2.9109025374
   91      H       8.9489624857    -6.0262447365    -3.0133935740
   92      H       9.1416503181    -3.4192105115    -2.9438741594
   93      H      -7.7355725802    -3.8848912736     1.8676908325
   94      C      -7.5248023821    -1.7966818432     1.3978032945
   95      H      -7.3089380526    -2.8857945339     3.1565440765
   96      H      -7.5896612822    -1.9277398580     0.3109306617
   97      H      -6.9680410623    -0.8576374372     1.5012558741
   98      C      -9.0014647931    -1.4198735295     1.9583187881
   99      H      -9.7322091317    -2.2269408635     2.0893570647
  100      C      -9.7749509265    -0.4507109601     1.0486215222
  101      H      -9.0063305661    -0.9251290063     2.9371053742
  102      H      -9.9965159148    -0.9445031534     0.0945574647
  103      H      -9.1679544503     0.3996397172     0.7146694247
  104      C     -11.1169793679     0.0721059692     1.6664622145
  105      H     -11.7381411105    -0.7793969979     1.9684453042
  106      C     -11.8700464093     0.9689376857     0.7209835509
  107      H     -10.8521363361     0.6584071150     2.5549739673
  108      H     -12.0583125207     0.4482968352    -0.2263474240
  109      H     -11.2459789075     1.8324872611     0.4575677503
  110      H     -12.8399699278     1.2084223135     1.1741496146
 ----------------------------------------------------------------

   10   -5663.5225425358      5.56E-06 Convergence criterion met
 Total energy in the final basis set = -5663.5225425358

                    Orbital Energies (a.u.)
 --------------------------------------------------------------

 Alpha MOs
 -- Occupied --
-88.996 -88.989 -88.932 -88.927 -88.922 -88.916 -88.907 -88.901
-14.394 -14.391 -14.386 -14.385 -14.357 -14.349 -14.341 -14.341
-14.333 -14.321 -10.274 -10.268 -10.266 -10.262 -10.260 -10.258
-10.257 -10.254 -10.246 -10.243 -10.241 -10.240 -10.239 -10.238
-10.235 -10.234 -10.234 -10.231 -10.230 -10.229 -10.228 -10.228
-10.226 -10.226 -10.224 -10.223 -10.223 -10.222 -10.219 -10.218
-10.214 -10.212 -10.209 -10.206 -10.204 -10.201 -10.194 -10.194
-10.192 -10.192 -10.186 -10.185 -10.183 -10.180 -10.179 -10.177
-10.172 -10.171 -10.169 -10.166  -8.053  -8.045  -7.992  -7.988
 -7.981  -7.974  -7.966  -7.961  -6.017  -6.012  -6.011  -6.010
 -6.004  -6.002  -5.956  -5.952  -5.952  -5.949  -5.949  -5.945
 -5.945  -5.942  -5.939  -5.937  -5.935  -5.931  -5.931  -5.927
 -5.925  -5.922  -5.922  -5.917  -1.058  -1.047  -0.972  -0.967
 -0.964  -0.962  -0.943  -0.936  -0.917  -0.916  -0.910  -0.908
 -0.838  -0.838  -0.831  -0.830  -0.817  -0.810  -0.807  -0.805
 -0.804  -0.803  -0.799  -0.794  -0.790  -0.779  -0.773  -0.764
 -0.754  -0.749  -0.740  -0.739  -0.722  -0.715  -0.714  -0.708
 -0.697  -0.693  -0.680  -0.676  -0.654  -0.652  -0.652  -0.647
 -0.638  -0.633  -0.628  -0.626  -0.612  -0.609  -0.601  -0.600
 -0.593  -0.591  -0.589  -0.582  -0.580  -0.575  -0.571  -0.567
 -0.554  -0.547  -0.545  -0.540  -0.525  -0.520  -0.518  -0.511
 -0.506  -0.503  -0.499  -0.497  -0.491  -0.488  -0.483  -0.479
 -0.478  -0.475  -0.472  -0.470  -0.470  -0.461  -0.455  -0.452
 -0.442  -0.441  -0.440  -0.438  -0.436  -0.434  -0.432  -0.432
 -0.430  -0.430  -0.426  -0.424  -0.421  -0.418  -0.416  -0.415
 -0.414  -0.412  -0.411  -0.402  -0.399  -0.397  -0.397  -0.396
 -0.395  -0.393  -0.392  -0.391  -0.390  -0.387  -0.385  -0.381
 -0.380  -0.380  -0.375  -0.373  -0.370  -0.369  -0.355  -0.355
 -0.354  -0.353  -0.352  -0.349  -0.345  -0.342  -0.341  -0.336
 -0.334  -0.334  -0.333  -0.332  -0.329  -0.328  -0.327  -0.320
 -0.319  -0.319  -0.316  -0.315  -0.307  -0.306  -0.305  -0.303
 -0.299  -0.297  -0.292  -0.290  -0.285  -0.283  -0.282  -0.280
 -0.276  -0.275  -0.273  -0.261  -0.256  -0.251  -0.250  -0.248
 -0.242  -0.240  -0.233  -0.230  -0.197  -0.190

          Ground-State Mulliken Net Atomic Charges

     Atom                 Charge (a.u.)
  ----------------------------------------
      1 C                     0.288428
      2 C                    -0.136630
      3 N                    -0.473363
      4 C                    -0.068895
      5 C                     0.061030
      6 C                     0.054387
      7 C                    -0.006172
      8 C                     0.058480
      9 C                     0.213465
     10 N                    -0.483430
     11 N                    -0.533244
     12 C                     0.221049
     13 C                     0.283333
     14 S                     0.605880
     15 N                    -0.551052
     16 C                    -0.211953
     17 S                     0.338487
     18 C                    -0.138709
     19 C                    -0.204476
     20 S                     0.252215
     21 C                     0.172936
     22 C                     0.032966
     23 C                    -0.307350
     24 C                    -0.099928
     25 N                    -0.418122
     26 S                     0.294583
     27 C                     0.123561
     28 C                    -0.324559
     29 C                    -0.230718
     30 H                     0.086725
     31 H                     0.111416
     32 H                     0.096916
     33 H                     0.116608
     34 H                     0.148719
     35 H                     0.098593
     36 H                     0.118820
     37 H                     0.140171
     38 H                     0.114128
     39 C                    -0.171180
     40 H                     0.090564
     41 H                     0.090080
     42 H                     0.093238
     43 C                    -0.166789
     44 H                     0.108923
     45 C                    -0.175280
     46 H                     0.088649
     47 H                     0.092627
     48 H                     0.084446
     49 C                    -0.164055
     50 H                     0.091884
     51 C                    -0.323256
     52 H                     0.094834
     53 H                     0.096750
     54 H                     0.097701
     55 H                     0.098407
     56 C                     0.249546
     57 C                    -0.113963
     58 N                    -0.471292
     59 C                    -0.099418
     60 C                     0.063712
     61 C                     0.055602
     62 C                     0.012365
     63 C                     0.071315
     64 C                     0.234591
     65 N                    -0.515387
     66 N                    -0.575509
     67 C                     0.207079
     68 C                     0.281891
     69 S                     0.623912
     70 N                    -0.508946
     71 C                    -0.222024
     72 S                     0.291226
     73 C                    -0.093852
     74 C                    -0.222902
     75 S                     0.283478
     76 C                     0.159066
     77 C                     0.054107
     78 C                    -0.309842
     79 C                    -0.051234
     80 N                    -0.438723
     81 S                     0.273447
     82 C                     0.133007
     83 C                    -0.307773
     84 C                    -0.216250
     85 H                     0.100457
     86 H                     0.115204
     87 H                     0.096759
     88 H                     0.124610
     89 H                     0.129927
     90 H                     0.118742
     91 H                     0.118044
     92 H                     0.128924
     93 H                     0.122807
     94 C                    -0.182202
     95 H                     0.096057
     96 H                     0.116467
     97 H                     0.110799
     98 C                    -0.189415
     99 H                     0.095129
    100 C                    -0.194762
    101 H                     0.094395
    102 H                     0.086569
    103 H                     0.091200
    104 C                    -0.178016
    105 H                     0.093256
    106 C                    -0.317277
    107 H                     0.096210
    108 H                     0.099561
    109 H                     0.103264
    110 H                     0.104227
  ----------------------------------------
  Sum of atomic charges =     0.000000

                    Cartesian Multipole Moments
 -----------------------------------------------------------------
    Charge (ESU x 10^10)
                 0.0000
    Dipole Moment (Debye)
         X      -0.5493      Y       1.0329      Z       1.3314
       Tot       1.7724
    Quadrupole Moments (Debye-Ang)
        XX    -395.7378     XY       5.8505     YY    -436.6227
        XZ     -20.2726     YZ      -2.1113     ZZ    -438.4786

 Total job time:  90.95s(wall), 1070.91s(cpu)
        *  Thank you very much for using Q-Chem.  Have a nice day.  *
