 Q-Chem 4.4, Q-Chem, Inc., Pleasanton, CA (2016)
 Q-Chem 4.4.2 for Intel X86 Linux

User input:
--------------------------------------------------------------
$comment
SP
$end

$rem
MEM_STATIC 5000
MEM_TOTAL 20000
JOBTYPE SP
EXCHANGE B3LYP
BASIS 6-31g(d,p)
$end

$molecule
0 1
C          10.042000     22.664000      3.320000
C          11.152000     22.924000      4.143000
N           8.963000     21.959000      3.734000
C          11.109000     22.529000      5.497000
C           8.948000     21.536000      5.042000
C          10.010000     21.772000      5.981000
C           9.869000     21.197000      7.367000
C          10.631000     21.890000      8.331000
C           9.005000     20.135000      7.870000
N          10.546000     21.679000      9.697000
N           8.196000     19.353000      7.060000
C           8.994000     19.868000      9.255000
C           9.725000     20.697000     10.148000
S           7.567000     18.310000      8.175000
N           8.134000     18.905000      9.604000
C           9.667000     20.568000     11.615000
S           8.941000     19.149000     12.486000
C          10.153000     21.452000     12.601000
C           9.223000     19.943000     14.085000
S          10.750000     23.045000     12.386000
C           9.841000     21.112000     13.892000
C           8.569000     19.492000     15.268000
C          10.868000     23.233000     14.160000
C          10.395000     22.074000     14.820000
N           8.235000     18.244000     15.386000
S           8.338000     20.506000     16.619000
C           7.797000     18.025000     16.687000
C           7.785000     19.155000     17.518000
C          10.049000     23.118000      1.868000
H          12.032000     23.384000      3.704000
H          12.002000     22.636000      6.106000
H           8.027000     21.002000      5.273000
H          11.294000     22.682000      7.985000
H          11.280000     24.137000     14.588000
H          10.325000     21.911000     15.889000
H           7.442000     17.017000     16.858000
H           7.381000     19.334000     18.505000
H          10.943000     23.694000      1.600000
C           8.857000     24.069000      1.668000
H           9.834000     22.315000      1.152000
H           8.915000     24.728000      2.543000
H           7.884000     23.572000      1.765000
C           8.842000     24.955000      0.407000
H           8.091000     25.749000      0.498000
C           8.678000     24.075000     -0.843000
H           9.819000     25.420000      0.222000
H           7.842000     23.374000     -0.726000
H           9.497000     23.376000     -1.055000
C           8.393000     24.916000     -2.112000
H           7.582000     25.619000     -1.883000
C           7.831000     24.074000     -3.284000
H           9.240000     25.540000     -2.423000
H           7.147000     24.563000     -3.989000
H           7.194000     23.314000     -2.815000
H           8.668000     23.598000     -3.809000
C           7.683000     20.016000     -2.905000
C           8.338000     20.424000     -1.732000
N           6.425000     19.475000     -2.880000
C           7.646000     20.234000     -0.499000
C           5.856000     19.230000     -1.683000
C           6.349000     19.637000     -0.444000
C           5.554000     19.345000      0.820000
C           4.131000     19.268000      0.761000
C           6.173000     18.951000      2.030000
N           3.407000     18.854000      1.800000
N           7.514000     19.011000      2.148000
C           5.439000     18.676000      3.143000
C           4.012000     18.542000      2.982000
S           7.711000     18.562000      3.744000
N           6.243000     18.414000      4.210000
C           3.156000     18.077000      4.100000
S           3.634000     17.112000      5.527000
C           1.822000     18.182000      4.088000
C           1.947000     17.016000      6.152000
S           0.755000     19.140000      3.014000
C           1.180000     17.587000      5.197000
C           1.516000     16.210000      7.237000
C          -0.591000     18.557000      3.976000
C          -0.241000     17.738000      5.045000
N           0.313000     16.403000      7.739000
S           2.428000     14.874000      7.851000
C           0.133000     15.610000      8.849000
C           1.170000     14.756000      9.089000
C           8.339000     20.077000     -4.297000
H           9.328000     20.871000     -1.749000
H           8.100000     20.660000      0.391000
H           4.832000     18.864000     -1.739000
H           3.630000     19.673000     -0.117000
H          -1.571000     18.879000      3.647000
H          -0.921000     17.182000      5.680000
H          -0.758000     15.663000      9.461000
H           1.271000     14.081000      9.929000
H           7.711000     20.511000     -5.084000
C           9.019000     18.829000     -4.791000
H           9.134000     20.831000     -4.239000
H           8.304000     18.078000     -5.148000
H           9.679000     18.250000     -4.134000
C           9.989000     19.242000     -6.026000
H           9.609000     19.946000     -6.776000
C          10.404000     18.051000     -6.906000
H          10.942000     19.695000     -5.727000
H           9.520000     17.649000     -7.416000
H          10.730000     17.181000     -6.323000
C          11.489000     18.399000     -7.982000
H          11.147000     19.247000     -8.587000
C          11.822000     17.222000     -8.859000
H          12.397000     18.687000     -7.438000
H          10.913000     16.837000     -9.338000
H          12.195000     16.396000     -8.240000
H          12.502000     17.564000     -9.649000
$end

--------------------------------------------------------------

             Standard Nuclear Orientation (Angstroms)
    I     Atom           X                Y                Z
 ----------------------------------------------------------------
    1      C       1.9377178803    -3.9866867978     1.0261082353
    2      C       1.1175316670    -5.0817641243     0.7018718639
    3      N       1.5151783362    -2.7020346797     0.9645349513
    4      C      -0.2414873672    -4.8540998427     0.3978550231
    5      C       0.2017731139    -2.4842037160     0.6217020570
    6      C      -0.7346884637    -3.5264280128     0.3022193052
    7      C      -2.1279985418    -3.1237110070    -0.1076685327
    8      C      -3.0833114151    -4.1367234947     0.1189854189
    9      C      -2.6443206730    -1.8458101302    -0.5848789747
   10      N      -4.4519010147    -3.9653997397    -0.0047589909
   11      N      -1.8441296350    -0.7483396208    -0.8630116477
   12      C      -4.0326837484    -1.7103821305    -0.7940254008
   13      C      -4.9152078075    -2.7645908678    -0.4350738395
   14      S      -2.9722895006     0.3131992419    -1.4349430777
   15      N      -4.3937281078    -0.4848083775    -1.1894820313
   16      C      -6.3837334450    -2.6584654647    -0.5003720072
   17      S      -7.2727690013    -1.3224624517    -1.3512478670
   18      C      -7.3583869007    -3.5291723088     0.0304464487
   19      C      -8.8614257320    -1.9753084483    -0.7884664738
   20      S      -7.1229462902    -4.8452028541     1.1041849283
   21      C      -8.6535345490    -3.0963187963    -0.0914363053
   22      C     -10.0498314420    -1.1903946473    -0.8354578944
   23      C      -8.8944080833    -5.0525160728     1.2278309746
   24      C      -9.5692140162    -4.0646807074     0.4719022452
   25      N     -10.1839281620    -0.2746263466    -1.7445071170
   26      S     -11.3873335499    -1.5090658320     0.1726565769
   27      C     -11.4874201268     0.2061870469    -1.6983207715
   28      C     -12.3035801807    -0.3569521415    -0.7061705708
   29      C       3.3955204675    -4.2123259829     1.3980861579
   30      H       1.5619855890    -6.0710316513     0.6515581359
   31      H      -0.8495629240    -5.6833730464     0.0480992928
   32      H      -0.0356411732    -1.4210144390     0.6262865335
   33      H      -2.7273847566    -5.1060381817     0.4658200357
   34      H      -9.3108044388    -5.8659481325     1.8066974181
   35      H     -10.6402107854    -3.9286667493     0.3786492369
   36      H     -11.6713647029     1.0190455040    -2.3887956238
   37      H     -13.2879196996    -0.1038407159    -0.3367976999
   38      H       3.6704961472    -5.2730858601     1.4429510475
   39      C       3.6086281779    -3.6593796879     2.8172762434
   40      H       4.1010957052    -3.6182097680     0.8040495367
   41      H       2.7422777590    -4.0463346805     3.3677058804
   42      H       3.5057163813    -2.5690518643     2.8784432201
   43      C       4.8811035021    -4.0844910350     3.5758465381
   44      H       4.8009256351    -3.8354497074     4.6408666914
   45      C       6.1195971775    -3.4924755818     2.8834253375
   46      H       5.0715873865    -5.1616438406     3.4839949018
   47      H       5.9939415141    -2.4180410849     2.6996124810
   48      H       6.3219657268    -3.8473421638     1.8648858541
   49      C       7.3996428220    -3.6615598445     3.7388554398
   50      H       7.1803232734    -3.3157224234     4.7570236056
   51      C       8.5608737610    -2.7451731219     3.2804123346
   52      H       7.7182695305    -4.7055878963     3.8483472101
   53      H       9.2726040220    -2.3957710913     4.0389373881
   54      H       8.0823603557    -1.8151723968     2.9495746520
   55      H       9.0791181317    -3.2258826538     2.4418951206
   56      C       8.1289812944    -0.5781022880    -0.1474414981
   57      C       6.9610261327    -1.3565348514    -0.1108152189
   58      N       8.0976562353     0.7811009931     0.0182545533
   59      C       5.7260566478    -0.6703854026     0.0874328711
   60      C       6.8978928042     1.3888381774     0.1066752763
   61      C       5.6640255412     0.7505126806     0.2247055159
   62      C       4.3967868272     1.5768024616     0.3869899557
   63      C       4.4556131648     2.8456868409     1.0356893421
   64      C       3.1813790305     1.2327208900    -0.2508883711
   65      N       3.4117196813     3.6733558517     1.0542205011
   66      N       3.0633839049     0.0428972845    -0.8723398480
   67      C       2.0653135941     1.9986564729    -0.1063524776
   68      C       2.2253889404     3.3002913401     0.4939212567
   69      S       1.4615389170     0.0888463036    -1.3409626413
   70      N       0.9945091090     1.4291552544    -0.7248952141
   71      C       1.1019136372     4.2672154530     0.5357064584
   72      S      -0.3378519388     4.3309273318    -0.5221469732
   73      C       1.1160691962     5.3673399268     1.2974483846
   74      C      -0.9630599888     5.8333773589     0.2508787768
   75      S       2.2031200715     5.8140366503     2.6496730079
   76      C      -0.0002310554     6.2147740658     1.1191252839
   77      C      -2.0582428552     6.6047539418    -0.2162129237
   78      C       1.2343782390     7.2647387052     2.8342043334
   79      C       0.1545646467     7.3677936508     1.9627662782
   80      N      -2.5569708316     7.5442779844     0.5616218781
   81      S      -2.6901798909     6.4849622853    -1.8224325668
   82      C      -3.6771294195     8.0920429302    -0.0202262998
   83      C      -3.9288753435     7.6240107963    -1.2771490943
   84      C       9.5212731659    -1.1672793067    -0.4408947061
   85      H       6.9832815888    -2.4368860166    -0.2228154625
   86      H       4.8414306984    -1.2824482283     0.2374596255
   87      H       6.9497092604     2.4582668217     0.3049312464
   88      H       5.3391236186     3.0802430245     1.6275530720
   89      H       1.5681331973     7.9516838023     3.6016931356
   90      H      -0.4872442964     8.2313227990     1.8317712758
   91      H      -4.2878604670     8.8316921988     0.4809329035
   92      H      -4.7776808541     7.8712037539    -1.9015294647
   93      H      10.3142449695    -0.8381076225     0.2409782447
   94      C       9.9985274905    -1.1241225580    -1.8671856318
   95      H       9.4726602857    -2.2340046127    -0.1886271706
   96      H      10.3461069243    -0.1262312359    -2.1605735090
   97      H       9.3336315257    -1.4072157237    -2.6919653693
   98      C      11.2382464078    -2.1626989598    -2.0126162465
   99      H      11.9976026178    -2.1839083740    -1.2217658769
  100      C      12.1023682738    -1.9168573689    -3.2607994514
  101      H      10.9446290353    -3.2160084834    -2.0971555036
  102      H      12.6075932478    -0.9475564257    -3.1693477857
  103      H      11.5078610054    -1.7644573454    -4.1698650930
  104      C      13.1821839898    -3.0230839980    -3.5184147932
  105      H      13.7984113929    -3.1504554663    -2.6205655315
  106      C      14.0435372501    -2.7134372686    -4.7132103673
  107      H      12.6414585550    -3.9559823336    -3.7200597775
  108      H      14.5180016652    -1.7312709333    -4.5941313655
  109      H      13.4135802026    -2.6240091973    -5.6074825509
  110      H      14.8375373367    -3.4683692161    -4.7689384322
 ----------------------------------------------------------------

   10   -5663.5216013639      7.09E-06 Convergence criterion met
 Total energy in the final basis set = -5663.5216013639

                    Orbital Energies (a.u.)
 --------------------------------------------------------------

 Alpha MOs
 -- Occupied --
-88.990 -88.985 -88.929 -88.924 -88.922 -88.918 -88.913 -88.902
-14.397 -14.397 -14.382 -14.374 -14.356 -14.350 -14.344 -14.338
-14.337 -14.324 -10.271 -10.269 -10.266 -10.265 -10.264 -10.263
-10.250 -10.247 -10.245 -10.243 -10.239 -10.237 -10.237 -10.237
-10.236 -10.236 -10.236 -10.235 -10.233 -10.233 -10.232 -10.230
-10.229 -10.226 -10.224 -10.223 -10.222 -10.221 -10.219 -10.218
-10.213 -10.212 -10.209 -10.208 -10.208 -10.202 -10.199 -10.191
-10.190 -10.186 -10.183 -10.180 -10.179 -10.177 -10.176 -10.176
-10.175 -10.171 -10.169 -10.168  -8.045  -8.041  -7.992  -7.986
 -7.980  -7.977  -7.973  -7.962  -6.010  -6.006  -6.005  -6.003
 -6.000  -5.999  -5.956  -5.952  -5.949  -5.949  -5.946  -5.944
 -5.942  -5.942  -5.940  -5.938  -5.938  -5.936  -5.934  -5.933
 -5.930  -5.926  -5.923  -5.918  -1.047  -1.039  -0.981  -0.969
 -0.954  -0.951  -0.936  -0.927  -0.916  -0.911  -0.908  -0.902
 -0.841  -0.834  -0.834  -0.821  -0.821  -0.810  -0.808  -0.807
 -0.801  -0.800  -0.799  -0.791  -0.785  -0.781  -0.769  -0.765
 -0.750  -0.748  -0.742  -0.734  -0.723  -0.717  -0.711  -0.707
 -0.694  -0.691  -0.673  -0.672  -0.655  -0.651  -0.645  -0.642
 -0.636  -0.631  -0.629  -0.617  -0.612  -0.610  -0.605  -0.597
 -0.592  -0.588  -0.587  -0.582  -0.580  -0.578  -0.571  -0.567
 -0.552  -0.548  -0.542  -0.537  -0.530  -0.523  -0.518  -0.512
 -0.507  -0.501  -0.497  -0.494  -0.485  -0.482  -0.477  -0.475
 -0.473  -0.471  -0.470  -0.465  -0.464  -0.461  -0.452  -0.448
 -0.448  -0.445  -0.441  -0.437  -0.437  -0.434  -0.429  -0.428
 -0.427  -0.425  -0.423  -0.422  -0.422  -0.417  -0.417  -0.415
 -0.409  -0.407  -0.405  -0.404  -0.403  -0.397  -0.395  -0.393
 -0.392  -0.390  -0.388  -0.386  -0.385  -0.384  -0.382  -0.380
 -0.380  -0.377  -0.377  -0.372  -0.368  -0.361  -0.358  -0.355
 -0.353  -0.351  -0.350  -0.347  -0.344  -0.344  -0.342  -0.337
 -0.336  -0.335  -0.331  -0.330  -0.326  -0.324  -0.323  -0.321
 -0.319  -0.313  -0.312  -0.310  -0.308  -0.300  -0.299  -0.299
 -0.298  -0.295  -0.294  -0.291  -0.289  -0.288  -0.282  -0.278
 -0.275  -0.273  -0.270  -0.265  -0.259  -0.256  -0.248  -0.247
 -0.246  -0.243  -0.237  -0.226  -0.196  -0.192

          Ground-State Mulliken Net Atomic Charges

     Atom                 Charge (a.u.)
  ----------------------------------------
      1 C                     0.285424
      2 C                    -0.127190
      3 N                    -0.493255
      4 C                    -0.089640
      5 C                     0.053453
      6 C                     0.038411
      7 C                     0.061217
      8 C                     0.052651
      9 C                     0.206295
     10 N                    -0.542317
     11 N                    -0.556294
     12 C                     0.230043
     13 C                     0.313847
     14 S                     0.619003
     15 N                    -0.550959
     16 C                    -0.226318
     17 S                     0.337851
     18 C                    -0.118481
     19 C                    -0.222348
     20 S                     0.292145
     21 C                     0.156675
     22 C                     0.061183
     23 C                    -0.315488
     24 C                    -0.072806
     25 N                    -0.423769
     26 S                     0.282547
     27 C                     0.106523
     28 C                    -0.313363
     29 C                    -0.222194
     30 H                     0.097331
     31 H                     0.106214
     32 H                     0.132145
     33 H                     0.112120
     34 H                     0.135414
     35 H                     0.112863
     36 H                     0.115348
     37 H                     0.143588
     38 H                     0.096561
     39 C                    -0.182899
     40 H                     0.120257
     41 H                     0.083677
     42 H                     0.119094
     43 C                    -0.177452
     44 H                     0.098832
     45 C                    -0.180196
     46 H                     0.088575
     47 H                     0.097226
     48 H                     0.088458
     49 C                    -0.182982
     50 H                     0.092644
     51 C                    -0.329970
     52 H                     0.089576
     53 H                     0.101363
     54 H                     0.111713
     55 H                     0.100448
     56 C                     0.252336
     57 C                    -0.115342
     58 N                    -0.476246
     59 C                    -0.087762
     60 C                     0.060385
     61 C                     0.051890
     62 C                     0.011113
     63 C                     0.067481
     64 C                     0.227437
     65 N                    -0.516451
     66 N                    -0.557297
     67 C                     0.205500
     68 C                     0.278235
     69 S                     0.638576
     70 N                    -0.527179
     71 C                    -0.219877
     72 S                     0.279609
     73 C                    -0.093621
     74 C                    -0.225327
     75 S                     0.281848
     76 C                     0.159947
     77 C                     0.055095
     78 C                    -0.308878
     79 C                    -0.052541
     80 N                    -0.440007
     81 S                     0.265955
     82 C                     0.132858
     83 C                    -0.308314
     84 C                    -0.217317
     85 H                     0.093777
     86 H                     0.128535
     87 H                     0.092470
     88 H                     0.121710
     89 H                     0.128345
     90 H                     0.117020
     91 H                     0.116719
     92 H                     0.126688
     93 H                     0.120864
     94 C                    -0.172482
     95 H                     0.095739
     96 H                     0.112745
     97 H                     0.101819
     98 C                    -0.187999
     99 H                     0.092927
    100 C                    -0.182985
    101 H                     0.090469
    102 H                     0.088541
    103 H                     0.082670
    104 C                    -0.178825
    105 H                     0.090882
    106 C                    -0.310059
    107 H                     0.092219
    108 H                     0.101103
    109 H                     0.102970
    110 H                     0.099240
  ----------------------------------------
  Sum of atomic charges =     0.000000

                    Cartesian Multipole Moments
 -----------------------------------------------------------------
    Charge (ESU x 10^10)
                 0.0000
    Dipole Moment (Debye)
         X      -4.9290      Y      -3.2508      Z      -0.1191
       Tot       5.9057
    Quadrupole Moments (Debye-Ang)
        XX    -395.7610     XY     -22.4143     YY    -415.0197
        XZ      -4.2200     YZ      -9.6024     ZZ    -447.1063

 Total job time:  93.72s(wall), 1120.65s(cpu)
        *  Thank you very much for using Q-Chem.  Have a nice day.  *
