 Q-Chem 4.4, Q-Chem, Inc., Pleasanton, CA (2016)
 Q-Chem 4.4.2 for Intel X86 Linux

User input:
--------------------------------------------------------------
$comment
SP
$end

$rem
MEM_STATIC 5000
MEM_TOTAL 20000
JOBTYPE SP
EXCHANGE B3LYP
BASIS 6-31g(d,p)
$end

$molecule
0 1
C          14.923000     18.372000     15.135000
C          13.802000     19.062000     14.825000
N          15.753000     17.959000     14.178000
C          13.388000     19.313000     13.499000
C          15.400000     18.074000     12.940000
C          14.203000     18.764000     12.500000
C          13.809000     18.917000     11.091000
C          12.518000     18.559000     10.659000
C          14.677000     19.365000     10.128000
N          12.053000     18.717000      9.386000
N          15.815000     20.008000     10.334000
C          14.270000     19.467000      8.752000
C          12.929000     19.072000      8.387000
S          16.312000     20.628000      8.976000
N          15.115000     20.134000      7.952000
C          12.473000     18.890000      7.023000
S          13.043000     19.682000      5.613000
C          11.451000     18.083000      6.610000
C          11.926000     18.867000      4.523000
S          10.509000     16.970000      7.616000
C          11.177000     18.013000      5.278000
C          12.055000     18.851000      3.153000
C           9.705000     16.433000      6.109000
C          10.268000     16.949000      4.969000
N          11.189000     18.179000      2.391000
S          13.493000     19.288000      2.344000
C          11.619000     18.148000      1.064000
C          12.779000     18.915000      0.819000
C          15.299000     18.207000     16.580000
H          13.144000     19.419000     15.612000
H          12.417000     19.692000     13.195000
H          16.132000     17.831000     12.172000
H          11.737000     18.239000     11.347000
H           9.039000     15.581000      6.156000
H           9.973000     16.682000      3.961000
H          11.041000     17.810000      0.214000
H          13.215000     19.242000     -0.116000
H          16.177000     18.837000     16.765000
C          15.601000     16.738000     16.986000
H          14.450000     18.485000     17.218000
H          16.362000     16.356000     16.295000
H          14.688000     16.135000     16.907000
C          16.092000     16.701000     18.495000
H          16.948000     17.361000     18.681000
C          16.294000     15.233000     18.971000
H          15.266000     17.053000     19.126000
H          16.743000     14.622000     18.178000
H          15.269000     14.894000     19.170000
C          17.044000     15.009000     20.326000
H          18.088000     15.301000     20.160000
C          17.053000     13.563000     20.776000
H          16.577000     15.499000     21.189000
H          17.630000     13.035000     20.007000
H          16.062000     13.106000     20.892000
H          17.651000     13.471000     21.690000
C          19.601000     25.337000      8.604000
C          18.453000     24.556000      8.356000
N          19.975000     25.739000      9.827000
C          17.581000     24.328000      9.464000
C          19.170000     25.384000     10.872000
C          17.928000     24.726000     10.748000
C          17.039000     24.517000     11.932000
C          16.374000     25.610000     12.537000
C          16.835000     23.260000     12.512000
N          15.570000     25.541000     13.570000
N          17.520000     22.196000     12.179000
C          16.003000     23.122000     13.623000
C          15.397000     24.307000     14.177000
S          16.962000     21.030000     13.142000
N          15.913000     21.851000     14.045000
C          14.516000     24.247000     15.384000
S          14.384000     22.931000     16.516000
C          13.604000     25.304000     15.680000
C          13.053000     23.753000     17.319000
S          13.162000     26.792000     14.919000
C          12.876000     25.003000     16.826000
C          12.481000     23.233000     18.525000
C          12.269000     27.183000     16.348000
C          12.062000     26.118000     17.221000
N          11.179000     23.527000     18.691000
S          13.194000     22.104000     19.601000
C          10.707000     22.859000     19.794000
C          11.623000     22.074000     20.404000
C          20.448000     25.950000      7.424000
H          18.195000     24.276000      7.339000
H          16.700000     23.800000      9.113000
H          19.551000     25.653000     11.856000
H          16.467000     26.647000     12.218000
H          12.029000     28.211000     16.586000
H          11.480000     26.151000     18.135000
H           9.709000     23.122000     20.119000
H          11.464000     21.445000     21.270000
H          19.833000     26.730000      6.958000
C          21.096000     24.814000      6.523000
H          21.315000     26.476000      7.844000
H          20.383000     24.153000      6.015000
H          21.752000     24.193000      7.145000
C          21.949000     25.492000      5.381000
H          21.283000     26.246000      4.943000
C          22.184000     24.541000      4.153000
H          22.835000     26.030000      5.740000
H          21.228000     24.156000      3.777000
H          22.716000     23.626000      4.441000
C          22.988000     25.216000      3.057000
H          23.865000     25.689000      3.516000
C          22.214000     26.221000      2.305000
H          23.317000     24.410000      2.389000
H          21.341000     25.753000      1.833000
H          22.685000     26.744000      1.463000
H          21.879000     27.046000      2.944000
$end

--------------------------------------------------------------

             Standard Nuclear Orientation (Angstroms)
    I     Atom           X                Y                Z
 ----------------------------------------------------------------
    1      C      -3.7896019616    -2.0731561662     2.0739727422
    2      C      -3.6017000001    -2.2472452565     0.7461072214
    3      N      -2.7493194849    -1.9344029129     2.8948734081
    4      C      -2.3270959240    -2.3826038932     0.1547228382
    5      C      -1.5547821056    -2.1332631886     2.4431953809
    6      C      -1.2452924835    -2.3618513906     1.0451708433
    7      C       0.1148249135    -2.5660714623     0.5233463243
    8      C       0.4165548120    -3.6719186948    -0.2936787467
    9      C       1.1569220782    -1.7309200833     0.8364799595
   10      N       1.6341138144    -3.9086775864    -0.8621972625
   11      N       1.0617889679    -0.5099659033     1.3376282227
   12      C       2.4833645963    -1.9812309406     0.3391634397
   13      C       2.7137027890    -3.1432894642    -0.4879371012
   14      S       2.4574722179     0.2070782404     1.2214862340
   15      N       3.3589347371    -0.9799869737     0.5117943967
   16      C       4.0258682935    -3.6453879957    -0.8452531425
   17      S       5.4791042325    -2.7514628866    -1.0163297477
   18      C       4.3402475685    -4.9341563919    -1.1716634552
   19      C       6.4573505161    -4.1435190216    -1.4693506364
   20      S       3.2540410445    -6.3327475192    -1.1240478499
   21      C       5.6380536629    -5.2338757718    -1.4546257048
   22      C       7.8334553862    -4.1529007884    -1.4760116516
   23      C       4.6763600521    -7.3365246680    -1.5427053187
   24      C       5.8628674423    -6.6475547529    -1.5241131346
   25      N       8.5096222566    -5.2588620105    -1.7951231347
   26      S       8.7804517346    -2.9637373563    -0.6998787713
   27      C       9.8737151212    -5.0906396901    -1.5548276761
   28      C      10.2283054056    -3.7844209150    -1.1523699247
   29      C      -5.1872505069    -1.8874726423     2.5923607945
   30      H      -4.4548513484    -2.3325233933     0.0792920924
   31      H      -2.1270049176    -2.7063515565    -0.8621591804
   32      H      -0.7140645732    -1.9118386217     3.0980710881
   33      H      -0.3443223089    -4.3684252071    -0.6424618962
   34      H       4.5697843024    -8.4135584223    -1.5251297181
   35      H       6.8380673369    -7.0961258791    -1.6729321863
   36      H      10.6636110985    -5.7615788359    -1.8658469808
   37      H      11.1997251414    -3.3105587110    -1.0971584348
   38      H      -5.2878244089    -0.8393168575     2.8977512675
   39      C      -5.5467177899    -2.8256019338     3.7775602312
   40      H      -5.9108776715    -2.1614931826     1.8136403889
   41      H      -4.7783521979    -2.6905138883     4.5482038174
   42      H      -5.5554015945    -3.8684271131     3.4371792137
   43      C      -6.9975238208    -2.4648379345     4.3109852004
   44      H      -7.1016101784    -1.4068332427     4.5806592670
   45      C      -7.4368079954    -3.4603502058     5.4238143569
   46      H      -7.7125369173    -2.6671153457     3.5034078848
   47      H      -6.5965854413    -3.7037737235     6.0860394324
   48      H      -7.7358909810    -4.3507068568     4.8555174260
   49      C      -8.7063277029    -3.0936038181     6.2619777058
   50      H      -8.4377012241    -2.2263393425     6.8771590972
   51      C      -9.1395883693    -4.1932264123     7.2088738697
   52      H      -9.6168881975    -2.9520236524     5.6671729964
   53      H      -8.3109908351    -4.2909257090     7.9208815760
   54      H      -9.3515474008    -5.1593869637     6.7334864932
   55      H      -9.9871093694    -3.8424496454     7.8089803722
   56      C       3.1182805342     5.9101213681     0.8101257442
   57      C       3.2554619300     4.5727077202     0.3836576927
   58      N       1.9359854628     6.5253749208     0.9545225244
   59      C       2.0666672739     3.9152179590    -0.0573711948
   60      C       0.8178606114     5.8066611108     0.6393681560
   61      C       0.8209817010     4.5140053482     0.0737398875
   62      C      -0.4453218243     3.8650836854    -0.3858621767
   63      C      -1.1249932826     4.3406440567    -1.5325042490
   64      C      -1.0313330521     2.7882588768     0.2887519149
   65      N      -2.2337431964     3.8454744821    -2.0262113696
   66      N      -0.6204737307     2.3630740673     1.4560661382
   67      C      -2.2198807975     2.2261397562    -0.1770434813
   68      C      -2.8436734948     2.8073987943    -1.3395397615
   69      S      -1.6243439964     1.1590873598     1.8314985526
   70      N      -2.6369901575     1.2002834740     0.5814179022
   71      C      -4.1334306607     2.2812269476    -1.8838555162
   72      S      -5.2606788489     1.2340024335    -1.0694008894
   73      C      -4.5305130114     2.5578975433    -3.2263859584
   74      C      -6.2025478160     1.0952449665    -2.5478065219
   75      S      -3.8323236063     3.4039967776    -4.5625284061
   76      C      -5.7417785206     1.9348920517    -3.5067446996
   77      C      -7.4555882531     0.4012674809    -2.5652682652
   78      C      -5.3483409760     3.2354432804    -5.3784034292
   79      C      -6.2279127449     2.3233264133    -4.8008228513
   80      N      -7.7559216866    -0.1680695450    -3.7463064439
   81      S      -8.4429023045     0.0218231657    -1.2154464342
   82      C      -8.8949486375    -0.9214442975    -3.6025667926
   83      C      -9.4012523575    -0.9320713120    -2.3492014789
   84      C       4.3725688240     6.8490376633     0.9855540106
   85      H       4.2435001476     4.1364436405     0.2709317715
   86      H       2.3311172751     2.9356163886    -0.4428487690
   87      H      -0.1247339827     6.3088516259     0.8517313303
   88      H      -0.8078601210     5.1912073430    -2.1339588640
   89      H      -5.6190884291     3.9034812331    -6.1855274038
   90      H      -7.1966494797     2.0390725321    -5.1957378670
   91      H      -9.3222328635    -1.3173052938    -4.5144441209
   92      H     -10.2730385275    -1.4739054901    -2.0067360103
   93      H       4.7662958668     7.0507619752    -0.0184715457
   94      C       5.3453624625     6.3126707956     2.1205360018
   95      H       4.0380741513     7.8222589481     1.3672851263
   96      H       5.7843218937     5.3245915467     1.9351498761
   97      H       4.7991419145     6.2694799186     3.0706089785
   98      C       6.5618545583     7.3082657843     2.2633456629
   99      H       6.9227816299     7.4595663487     1.2382818658
  100      C       7.8161959801     6.6416948991     2.9341070605
  101      H       6.2898619616     8.2992398659     2.6471573315
  102      H       8.0965527795     5.7259138325     2.3990536959
  103      H       7.5923507600     6.2728832416     3.9426031085
  104      C       8.9819715268     7.6071011269     3.0446294121
  105      H       8.6101919840     8.5472876912     3.4705028625
  106      C       9.6419298647     7.8699265768     1.7523512783
  107      H       9.6874558898     7.1437307628     3.7458288982
  108      H      10.0270017661     6.9354025212     1.3253601540
  109      H      10.5225713765     8.5239833629     1.7205040146
  110      H       8.9645063505     8.3427959512     1.0321687062
 ----------------------------------------------------------------

   10   -5663.5110211538      5.34E-06 Convergence criterion met
 Total energy in the final basis set = -5663.5110211538

                    Orbital Energies (a.u.)
 --------------------------------------------------------------

 Alpha MOs
 -- Occupied --
-88.992 -88.980 -88.933 -88.926 -88.924 -88.924 -88.909 -88.904
-14.390 -14.383 -14.379 -14.368 -14.356 -14.345 -14.343 -14.339
-14.332 -14.327 -10.271 -10.266 -10.263 -10.262 -10.261 -10.258
-10.247 -10.246 -10.241 -10.241 -10.240 -10.237 -10.236 -10.233
-10.232 -10.232 -10.230 -10.229 -10.227 -10.227 -10.227 -10.226
-10.225 -10.225 -10.224 -10.222 -10.220 -10.216 -10.214 -10.214
-10.212 -10.211 -10.205 -10.202 -10.198 -10.197 -10.196 -10.195
-10.187 -10.187 -10.186 -10.183 -10.182 -10.179 -10.178 -10.178
-10.176 -10.174 -10.169 -10.167  -8.048  -8.036  -7.994  -7.986
 -7.986  -7.985  -7.970  -7.964  -6.013  -6.007  -6.005  -6.001
 -5.995  -5.994  -5.958  -5.955  -5.951  -5.950  -5.950  -5.949
 -5.946  -5.946  -5.945  -5.943  -5.943  -5.941  -5.934  -5.931
 -5.928  -5.926  -5.925  -5.920  -1.053  -1.046  -0.970  -0.968
 -0.961  -0.954  -0.951  -0.931  -0.924  -0.917  -0.915  -0.908
 -0.851  -0.847  -0.844  -0.827  -0.813  -0.808  -0.808  -0.808
 -0.805  -0.804  -0.803  -0.792  -0.788  -0.779  -0.772  -0.763
 -0.753  -0.748  -0.741  -0.738  -0.726  -0.725  -0.713  -0.705
 -0.698  -0.690  -0.680  -0.673  -0.657  -0.651  -0.649  -0.640
 -0.637  -0.632  -0.629  -0.626  -0.613  -0.607  -0.596  -0.594
 -0.593  -0.589  -0.583  -0.583  -0.580  -0.578  -0.566  -0.565
 -0.555  -0.551  -0.544  -0.537  -0.532  -0.518  -0.513  -0.513
 -0.512  -0.501  -0.500  -0.499  -0.498  -0.488  -0.484  -0.479
 -0.476  -0.472  -0.470  -0.469  -0.462  -0.460  -0.453  -0.452
 -0.450  -0.445  -0.443  -0.440  -0.439  -0.437  -0.433  -0.432
 -0.431  -0.430  -0.426  -0.424  -0.418  -0.418  -0.416  -0.414
 -0.411  -0.406  -0.405  -0.403  -0.403  -0.401  -0.398  -0.398
 -0.396  -0.391  -0.391  -0.388  -0.387  -0.386  -0.385  -0.380
 -0.378  -0.373  -0.370  -0.369  -0.367  -0.361  -0.359  -0.358
 -0.355  -0.353  -0.352  -0.350  -0.347  -0.345  -0.341  -0.341
 -0.338  -0.337  -0.335  -0.332  -0.331  -0.330  -0.325  -0.323
 -0.319  -0.312  -0.311  -0.310  -0.309  -0.304  -0.300  -0.298
 -0.294  -0.293  -0.291  -0.287  -0.286  -0.285  -0.281  -0.280
 -0.278  -0.271  -0.269  -0.257  -0.254  -0.252  -0.251  -0.250
 -0.248  -0.244  -0.238  -0.231  -0.198  -0.192

          Ground-State Mulliken Net Atomic Charges

     Atom                 Charge (a.u.)
  ----------------------------------------
      1 C                     0.292967
      2 C                    -0.109928
      3 N                    -0.469147
      4 C                    -0.068470
      5 C                     0.077545
      6 C                     0.016939
      7 C                     0.039422
      8 C                     0.050287
      9 C                     0.222931
     10 N                    -0.501879
     11 N                    -0.530725
     12 C                     0.176467
     13 C                     0.284633
     14 S                     0.609524
     15 N                    -0.550357
     16 C                    -0.204944
     17 S                     0.313156
     18 C                    -0.125762
     19 C                    -0.247388
     20 S                     0.267243
     21 C                     0.194442
     22 C                     0.064637
     23 C                    -0.301945
     24 C                    -0.055760
     25 N                    -0.450245
     26 S                     0.274773
     27 C                     0.104330
     28 C                    -0.303596
     29 C                    -0.226123
     30 H                     0.091340
     31 H                     0.106079
     32 H                     0.102460
     33 H                     0.117730
     34 H                     0.124332
     35 H                     0.130561
     36 H                     0.118089
     37 H                     0.140341
     38 H                     0.121811
     39 C                    -0.185580
     40 H                     0.098363
     41 H                     0.119637
     42 H                     0.094155
     43 C                    -0.181323
     44 H                     0.092107
     45 C                    -0.171269
     46 H                     0.089625
     47 H                     0.092337
     48 H                     0.088718
     49 C                    -0.180348
     50 H                     0.094528
     51 C                    -0.312934
     52 H                     0.091075
     53 H                     0.098414
     54 H                     0.101364
     55 H                     0.098874
     56 C                     0.255949
     57 C                    -0.110406
     58 N                    -0.472861
     59 C                    -0.070795
     60 C                     0.074687
     61 C                     0.037561
     62 C                    -0.034150
     63 C                     0.073093
     64 C                     0.238204
     65 N                    -0.499843
     66 N                    -0.548413
     67 C                     0.209145
     68 C                     0.275358
     69 S                     0.643234
     70 N                    -0.565840
     71 C                    -0.226606
     72 S                     0.320976
     73 C                    -0.106389
     74 C                    -0.218418
     75 S                     0.293791
     76 C                     0.163420
     77 C                     0.013996
     78 C                    -0.315862
     79 C                    -0.047766
     80 N                    -0.417369
     81 S                     0.277394
     82 C                     0.131878
     83 C                    -0.312786
     84 C                    -0.232538
     85 H                     0.093079
     86 H                     0.098157
     87 H                     0.104146
     88 H                     0.111844
     89 H                     0.131329
     90 H                     0.113165
     91 H                     0.116531
     92 H                     0.127513
     93 H                     0.111038
     94 C                    -0.188983
     95 H                     0.121542
     96 H                     0.092326
     97 H                     0.109780
     98 C                    -0.181121
     99 H                     0.100093
    100 C                    -0.179553
    101 H                     0.095092
    102 H                     0.086656
    103 H                     0.086206
    104 C                    -0.167899
    105 H                     0.093610
    106 C                    -0.310956
    107 H                     0.088271
    108 H                     0.096654
    109 H                     0.096274
    110 H                     0.103047
  ----------------------------------------
  Sum of atomic charges =     0.000000

                    Cartesian Multipole Moments
 -----------------------------------------------------------------
    Charge (ESU x 10^10)
                 0.0000
    Dipole Moment (Debye)
         X      -0.0821      Y      -2.3907      Z       0.0670
       Tot       2.3931
    Quadrupole Moments (Debye-Ang)
        XX    -365.6716     XY       7.9073     YY    -454.2503
        XZ       7.6469     YZ      -5.8271     ZZ    -453.8966

 Total job time:  93.42s(wall), 1116.58s(cpu)
        *  Thank you very much for using Q-Chem.  Have a nice day.  *
