 Q-Chem 4.4, Q-Chem, Inc., Pleasanton, CA (2016)
 Q-Chem 4.4.2 for Intel X86 Linux

User input:
--------------------------------------------------------------
$comment
SP
$end

$rem
MEM_STATIC 5000
MEM_TOTAL 20000
JOBTYPE SP
EXCHANGE B3LYP
BASIS 6-31g(d,p)
$end

$molecule
0 1
C          10.042000     22.664000      3.320000
C          11.152000     22.924000      4.143000
N           8.963000     21.959000      3.734000
C          11.109000     22.529000      5.497000
C           8.948000     21.536000      5.042000
C          10.010000     21.772000      5.981000
C           9.869000     21.197000      7.367000
C          10.631000     21.890000      8.331000
C           9.005000     20.135000      7.870000
N          10.546000     21.679000      9.697000
N           8.196000     19.353000      7.060000
C           8.994000     19.868000      9.255000
C           9.725000     20.697000     10.148000
S           7.567000     18.310000      8.175000
N           8.134000     18.905000      9.604000
C           9.667000     20.568000     11.615000
S           8.941000     19.149000     12.486000
C          10.153000     21.452000     12.601000
C           9.223000     19.943000     14.085000
S          10.750000     23.045000     12.386000
C           9.841000     21.112000     13.892000
C           8.569000     19.492000     15.268000
C          10.868000     23.233000     14.160000
C          10.395000     22.074000     14.820000
N           8.235000     18.244000     15.386000
S           8.338000     20.506000     16.619000
C           7.797000     18.025000     16.687000
C           7.785000     19.155000     17.518000
C          10.049000     23.118000      1.868000
H          12.032000     23.384000      3.704000
H          12.002000     22.636000      6.106000
H           8.027000     21.002000      5.273000
H          11.294000     22.682000      7.985000
H          11.280000     24.137000     14.588000
H          10.325000     21.911000     15.889000
H           7.442000     17.017000     16.858000
H           7.381000     19.334000     18.505000
H          10.943000     23.694000      1.600000
C           8.857000     24.069000      1.668000
H           9.834000     22.315000      1.152000
H           8.915000     24.728000      2.543000
H           7.884000     23.572000      1.765000
C           8.842000     24.955000      0.407000
H           8.091000     25.749000      0.498000
C           8.678000     24.075000     -0.843000
H           9.819000     25.420000      0.222000
H           7.842000     23.374000     -0.726000
H           9.497000     23.376000     -1.055000
C           8.393000     24.916000     -2.112000
H           7.582000     25.619000     -1.883000
C           7.831000     24.074000     -3.284000
H           9.240000     25.540000     -2.423000
H           7.147000     24.563000     -3.989000
H           7.194000     23.314000     -2.815000
H           8.668000     23.598000     -3.809000
C          19.601000     25.337000      8.604000
C          18.453000     24.556000      8.356000
N          19.975000     25.739000      9.827000
C          17.581000     24.328000      9.464000
C          19.170000     25.384000     10.872000
C          17.928000     24.726000     10.748000
C          17.039000     24.517000     11.932000
C          16.374000     25.610000     12.537000
C          16.835000     23.260000     12.512000
N          15.570000     25.541000     13.570000
N          17.520000     22.196000     12.179000
C          16.003000     23.122000     13.623000
C          15.397000     24.307000     14.177000
S          16.962000     21.030000     13.142000
N          15.913000     21.851000     14.045000
C          14.516000     24.247000     15.384000
S          14.384000     22.931000     16.516000
C          13.604000     25.304000     15.680000
C          13.053000     23.753000     17.319000
S          13.162000     26.792000     14.919000
C          12.876000     25.003000     16.826000
C          12.481000     23.233000     18.525000
C          12.269000     27.183000     16.348000
C          12.062000     26.118000     17.221000
N          11.179000     23.527000     18.691000
S          13.194000     22.104000     19.601000
C          10.707000     22.859000     19.794000
C          11.623000     22.074000     20.404000
C          20.448000     25.950000      7.424000
H          18.195000     24.276000      7.339000
H          16.700000     23.800000      9.113000
H          19.551000     25.653000     11.856000
H          16.467000     26.647000     12.218000
H          12.029000     28.211000     16.586000
H          11.480000     26.151000     18.135000
H           9.709000     23.122000     20.119000
H          11.464000     21.445000     21.270000
H          19.833000     26.730000      6.958000
C          21.096000     24.814000      6.523000
H          21.315000     26.476000      7.844000
H          20.383000     24.153000      6.015000
H          21.752000     24.193000      7.145000
C          21.949000     25.492000      5.381000
H          21.283000     26.246000      4.943000
C          22.184000     24.541000      4.153000
H          22.835000     26.030000      5.740000
H          21.228000     24.156000      3.777000
H          22.716000     23.626000      4.441000
C          22.988000     25.216000      3.057000
H          23.865000     25.689000      3.516000
C          22.214000     26.221000      2.305000
H          23.317000     24.410000      2.389000
H          21.341000     25.753000      1.833000
H          22.685000     26.744000      1.463000
H          21.879000     27.046000      2.944000
$end

--------------------------------------------------------------

             Standard Nuclear Orientation (Angstroms)
    I     Atom           X                Y                Z
 ----------------------------------------------------------------
    1      C       7.0558704171    -3.6873069674    -0.3829725293
    2      C       6.4060840358    -2.4450795530    -0.2749090783
    3      N       6.4385201854    -4.8683593175    -0.1449472408
    4      C       5.0204392586    -2.4170103604    -0.0095966737
    5      C       5.0983860324    -4.8312040708     0.1594832761
    6      C       4.3257310167    -3.6240927001     0.2650643608
    7      C       2.8763059708    -3.7447199308     0.6601822007
    8      C       2.0953991887    -2.6512151561     0.2305068518
    9      C       2.1560534748    -4.8384018487     1.3024011700
   10      N       0.7139122603    -2.5957647754     0.3087444510
   11      N       2.7693137968    -5.9830586730     1.7879704565
   12      C       0.7582538271    -4.7312516267     1.4583177342
   13      C       0.0592003989    -3.6296210518     0.8954808298
   14      S       1.4756185809    -6.7597498549     2.4586555513
   15      N       0.2016652577    -5.8100299258     2.0197592234
   16      C      -1.4093273475    -3.5051550237     0.9008161903
   17      S      -2.5168335559    -4.5401901994     1.9015210336
   18      C      -2.2230230068    -2.5965972950     0.1921059338
   19      C      -3.9697069208    -3.7584183207     1.1634473820
   20      S      -1.7580409576    -1.5201099278    -1.0589934396
   21      C      -3.5723076956    -2.8075218433     0.3127983680
   22      C      -5.2658904660    -4.3407418633     1.2702814069
   23      C      -3.4722140017    -1.0753330584    -1.3042041880
   24      C      -4.3117942759    -1.8176423100    -0.4400908053
   25      N      -5.5644925398    -5.0681740098     2.3021066217
   26      S      -6.5101835803    -3.9939247025     0.1575323325
   27      C      -6.9248454507    -5.3517100033     2.2639844706
   28      C      -7.6169318765    -4.8409942167     1.1559272678
   29      C       8.5406155489    -3.7429212319    -0.7099403369
   30      H       6.9964202736    -1.5374986474    -0.3556619497
   31      H       4.5384028699    -1.4614612139     0.1757293861
   32      H       4.6998689794    -5.8342232609     0.3074517274
   33      H       2.6060406406    -1.8139079814    -0.2435300695
   34      H      -3.7420920470    -0.3130831598    -2.0227338900
   35      H      -5.3930864099    -1.7767227219    -0.3821002180
   36      H      -7.2508348151    -6.0065177404     3.0616609474
   37      H      -8.6181172210    -5.0016263829     0.7800932446
   38      H       8.9772013192    -2.7557943737    -0.9043868104
   39      C       8.7043676542    -4.5424457875    -2.0134781127
   40      H       9.1295465298    -4.3315562637     0.0044538813
   41      H       7.9234749623    -4.1251245109    -2.6610269957
   42      H       8.4360404591    -5.6009747440    -1.9102116383
   43      C      10.0474084995    -4.4381851696    -2.7622858392
   44      H       9.9587799104    -4.8407232772    -3.7785663345
   45      C      11.1603109833    -5.0878704689    -1.9237436080
   46      H      10.3993544912    -3.4005447599    -2.8287343089
   47      H      10.8653019633    -6.0880955587    -1.5824146641
   48      H      11.3872252875    -4.6076484181    -0.9634297632
   49      C      12.4739345797    -5.2501475034    -2.7280608407
   50      H      12.2316629836    -5.7189885342    -3.6902788833
   51      C      13.4668182972    -6.2425622285    -2.0740830605
   52      H      12.9528084267    -4.2962137172    -2.9814304722
   53      H      14.1364578792    -6.8109988769    -2.7317034730
   54      H      12.8416124050    -7.0259247485    -1.6282234925
   55      H      14.0300364800    -5.7153031373    -1.2946261153
   56      C       3.2883433287     6.8878256455     0.2591924467
   57      C       3.3070257502     5.5156743536     0.5851077716
   58      N       2.1725446152     7.5602738050    -0.0570601484
   59      C       2.0842868699     4.7984533766     0.4103630981
   60      C       1.0054326640     6.8509637801    -0.0854147211
   61      C       0.9046504388     5.4538259718     0.0841520439
   62      C      -0.3929042794     4.7391025964    -0.1192693165
   63      C      -0.9441195318     4.5988819081    -1.4151855577
   64      C      -1.1327115401     4.1989838263     0.9385690129
   65      N      -2.0666386434     3.9887364835    -1.7083397918
   66      N      -0.8440760315     4.4092246879     2.1974170273
   67      C      -2.3433723055     3.5506828398     0.6944474409
   68      C      -2.8267572832     3.4894282009    -0.6623737826
   69      S      -1.9934309292     3.6319994906     3.0179006114
   70      N      -2.9153587378     3.0870014510     1.8167023544
   71      C      -4.1290397572     2.8377316073    -1.0029055843
   72      S      -5.4114358280     2.4275136400     0.1006729297
   73      C      -4.4090296865     2.4095833051    -2.3351606916
   74      C      -6.2682221001     1.6069818633    -1.1972865795
   75      S      -3.5413164576     2.4058513702    -3.8303826901
   76      C      -5.6604199757     1.8057099726    -2.3922601006
   77      C      -7.5851938461     1.0798131636    -0.9980415487
   78      C      -5.0125185412     1.9346377997    -4.6087741084
   79      C      -6.0197568894     1.5035050223    -3.7492402590
   80      N      -7.8705094710     0.0044266423    -1.7539084840
   81      S      -8.6903298599     1.5075818986     0.2415044570
   82      C      -9.0908668181    -0.4977611697    -1.3742344834
   83      C      -9.6729433796     0.1671059509    -0.3512390833
   84      C       4.6230525192     7.7056868982     0.0714896280
   85      H       4.2473923325     5.0244810726     0.8168249516
   86      H       2.2652446829     3.7459526837     0.6043800083
   87      H       0.1110147578     7.4469828172    -0.2602172279
   88      H      -0.5000679829     4.9991361797    -2.3253469390
   89      H      -5.1585396711     2.1086841341    -5.6667975973
   90      H      -6.9868139485     1.1161476273    -4.0491800747
   91      H      -9.5003175444    -1.2787973774    -2.0012357155
   92      H     -10.6178021069    -0.0681745484     0.1207387467
   93      H       5.0983980437     7.3392116031    -0.8469457210
   94      C       5.4592784020     7.7701103837     1.4201099925
   95      H       4.3721438983     8.7550456498    -0.1301438875
   96      H       5.7999249913     6.8024784711     1.8087002432
   97      H       4.8531011969     8.2538517664     2.1956127137
   98      C       6.7646410669     8.6220420040     1.1717195188
   99      H       7.2033262395     8.2035880827     0.2571881442
  100      C       7.8952859994     8.3196800253     2.2194930012
  101      H       6.5775298670     9.6838805357     0.9697063221
  102      H       8.1082835322     7.2440818930     2.2549571926
  103      H       7.5702049471     8.5351160593     3.2447259623
  104      C       9.1490980544     9.1322678178     1.9531972816
  105      H       8.8548671529    10.1782604893     1.8019805243
  106      C       9.9132550311     8.6540267885     0.7861691616
  107      H       9.7551656066     9.0527355276     2.8644918207
  108      H      10.2213549946     7.6115029108     0.9350159854
  109      H      10.8595228279     9.1442702199     0.5243053905
  110      H       9.3372433732     8.7302481675    -0.1431165164
 ----------------------------------------------------------------

   10   -5663.5164214958      4.11E-06 Convergence criterion met
 Total energy in the final basis set = -5663.5164214958

                    Orbital Energies (a.u.)
 --------------------------------------------------------------

 Alpha MOs
 -- Occupied --
-88.989 -88.985 -88.938 -88.932 -88.924 -88.917 -88.916 -88.905
-14.392 -14.392 -14.387 -14.377 -14.350 -14.350 -14.345 -14.339
-14.330 -14.328 -10.271 -10.269 -10.266 -10.263 -10.259 -10.258
-10.255 -10.248 -10.248 -10.241 -10.239 -10.239 -10.236 -10.234
-10.233 -10.233 -10.232 -10.232 -10.231 -10.229 -10.229 -10.228
-10.226 -10.226 -10.226 -10.226 -10.225 -10.223 -10.219 -10.217
-10.214 -10.212 -10.209 -10.203 -10.203 -10.202 -10.200 -10.200
-10.188 -10.188 -10.185 -10.180 -10.177 -10.177 -10.175 -10.174
-10.174 -10.172 -10.169 -10.168  -8.045  -8.041  -7.999  -7.991
 -7.987  -7.977  -7.973  -7.966  -6.010  -6.006  -6.004  -6.003
 -6.000  -5.999  -5.963  -5.960  -5.956  -5.956  -5.952  -5.950
 -5.948  -5.947  -5.944  -5.942  -5.938  -5.938  -5.934  -5.933
 -5.930  -5.930  -5.926  -5.922  -1.055  -1.034  -0.976  -0.974
 -0.957  -0.946  -0.932  -0.928  -0.921  -0.916  -0.910  -0.905
 -0.857  -0.834  -0.832  -0.828  -0.816  -0.813  -0.811  -0.804
 -0.804  -0.802  -0.797  -0.793  -0.781  -0.780  -0.767  -0.764
 -0.753  -0.745  -0.742  -0.736  -0.731  -0.715  -0.709  -0.706
 -0.693  -0.688  -0.679  -0.667  -0.654  -0.650  -0.646  -0.642
 -0.634  -0.632  -0.628  -0.623  -0.610  -0.606  -0.604  -0.597
 -0.595  -0.589  -0.588  -0.581  -0.581  -0.579  -0.566  -0.563
 -0.557  -0.546  -0.543  -0.536  -0.525  -0.524  -0.519  -0.517
 -0.505  -0.505  -0.504  -0.495  -0.491  -0.478  -0.476  -0.476
 -0.471  -0.469  -0.466  -0.464  -0.462  -0.460  -0.451  -0.449
 -0.447  -0.444  -0.442  -0.441  -0.440  -0.437  -0.435  -0.433
 -0.430  -0.424  -0.422  -0.419  -0.418  -0.417  -0.412  -0.411
 -0.409  -0.407  -0.404  -0.403  -0.401  -0.397  -0.396  -0.395
 -0.392  -0.392  -0.390  -0.390  -0.387  -0.386  -0.384  -0.380
 -0.380  -0.376  -0.373  -0.372  -0.366  -0.365  -0.362  -0.360
 -0.353  -0.352  -0.351  -0.349  -0.347  -0.345  -0.344  -0.340
 -0.338  -0.337  -0.334  -0.333  -0.329  -0.326  -0.325  -0.318
 -0.317  -0.316  -0.311  -0.311  -0.304  -0.303  -0.299  -0.296
 -0.296  -0.295  -0.294  -0.291  -0.289  -0.286  -0.284  -0.283
 -0.276  -0.276  -0.267  -0.261  -0.257  -0.257  -0.252  -0.250
 -0.248  -0.241  -0.236  -0.230  -0.198  -0.189

          Ground-State Mulliken Net Atomic Charges

     Atom                 Charge (a.u.)
  ----------------------------------------
      1 C                     0.283776
      2 C                    -0.128104
      3 N                    -0.487661
      4 C                    -0.089099
      5 C                     0.059336
      6 C                     0.036878
      7 C                     0.059926
      8 C                     0.051105
      9 C                     0.196062
     10 N                    -0.541929
     11 N                    -0.541793
     12 C                     0.231129
     13 C                     0.312167
     14 S                     0.601299
     15 N                    -0.549634
     16 C                    -0.227230
     17 S                     0.330988
     18 C                    -0.117413
     19 C                    -0.222109
     20 S                     0.285274
     21 C                     0.155033
     22 C                     0.060586
     23 C                    -0.317209
     24 C                    -0.076830
     25 N                    -0.425349
     26 S                     0.288060
     27 C                     0.105602
     28 C                    -0.315978
     29 C                    -0.217131
     30 H                     0.093049
     31 H                     0.101286
     32 H                     0.128622
     33 H                     0.109748
     34 H                     0.148765
     35 H                     0.123618
     36 H                     0.112824
     37 H                     0.138845
     38 H                     0.093618
     39 C                    -0.181852
     40 H                     0.121311
     41 H                     0.082321
     42 H                     0.118929
     43 C                    -0.177062
     44 H                     0.096775
     45 C                    -0.174634
     46 H                     0.088360
     47 H                     0.090181
     48 H                     0.093798
     49 C                    -0.181539
     50 H                     0.091710
     51 C                    -0.323361
     52 H                     0.090502
     53 H                     0.100898
     54 H                     0.101161
     55 H                     0.102102
     56 C                     0.255954
     57 C                    -0.107742
     58 N                    -0.473226
     59 C                    -0.066693
     60 C                     0.074746
     61 C                     0.036861
     62 C                    -0.030404
     63 C                     0.075147
     64 C                     0.245797
     65 N                    -0.499167
     66 N                    -0.533417
     67 C                     0.213720
     68 C                     0.279190
     69 S                     0.604365
     70 N                    -0.554150
     71 C                    -0.217169
     72 S                     0.332758
     73 C                    -0.120361
     74 C                    -0.214376
     75 S                     0.288754
     76 C                     0.155843
     77 C                     0.014565
     78 C                    -0.313581
     79 C                    -0.049519
     80 N                    -0.421182
     81 S                     0.288915
     82 C                     0.129823
     83 C                    -0.310850
     84 C                    -0.233115
     85 H                     0.092520
     86 H                     0.100305
     87 H                     0.103230
     88 H                     0.114392
     89 H                     0.134032
     90 H                     0.115493
     91 H                     0.116244
     92 H                     0.129437
     93 H                     0.110630
     94 C                    -0.188679
     95 H                     0.121741
     96 H                     0.092560
     97 H                     0.110269
     98 C                    -0.181294
     99 H                     0.099730
    100 C                    -0.179533
    101 H                     0.095250
    102 H                     0.086475
    103 H                     0.086611
    104 C                    -0.168050
    105 H                     0.093655
    106 C                    -0.310835
    107 H                     0.088723
    108 H                     0.096589
    109 H                     0.096623
    110 H                     0.102669
  ----------------------------------------
  Sum of atomic charges =     0.000000

                    Cartesian Multipole Moments
 -----------------------------------------------------------------
    Charge (ESU x 10^10)
                 0.0000
    Dipole Moment (Debye)
         X      -3.8352      Y       0.8584      Z      -0.4694
       Tot       3.9580
    Quadrupole Moments (Debye-Ang)
        XX    -375.4835     XY      21.8924     YY    -474.4211
        XZ       3.0603     YZ       3.2017     ZZ    -440.6179

 Total job time:  89.36s(wall), 1047.65s(cpu)
        *  Thank you very much for using Q-Chem.  Have a nice day.  *
