 Q-Chem 4.4, Q-Chem, Inc., Pleasanton, CA (2016)
 Q-Chem 4.4.2 for Intel X86 Linux

User input:
--------------------------------------------------------------
$comment
SP
$end

$rem
MEM_STATIC 5000
MEM_TOTAL 20000
JOBTYPE SP
EXCHANGE B3LYP
BASIS 6-31g(d,p)
$end

$molecule
0 1
C          -2.805000     -9.362000      1.099000
C          -2.341000     -9.176000     -0.232000
N          -3.453000     -8.390000      1.729000
C          -2.760000     -8.054000     -0.884000
C          -3.875000     -7.281000      1.016000
C          -3.561000     -7.028000     -0.318000
C          -4.309000     -5.957000     -0.983000
C          -5.679000     -5.904000     -1.097000
C          -3.567000     -4.980000     -1.598000
N          -6.349000     -4.983000     -1.840000
N          -2.221000     -4.845000     -1.477000
C          -4.206000     -3.960000     -2.275000
C          -5.612000     -3.985000     -2.480000
S          -1.772000     -3.540000     -2.372000
N          -3.308000     -3.118000     -2.899000
C          -6.414000     -2.983000     -3.216000
S          -5.734000     -1.577000     -4.146000
C          -7.766000     -2.903000     -3.258000
C          -7.332000     -0.862000     -4.404000
S          -8.993000     -3.836000     -2.376000
C          -8.309000     -1.725000     -3.919000
C          -7.568000      0.553000     -4.803000
C         -10.204000     -2.646000     -2.900000
C          -9.715000     -1.600000     -3.745000
N          -8.706000      0.836000     -5.463000
S          -6.209000      1.541000     -5.170000
C          -8.605000      2.096000     -6.119000
C          -7.321000      2.610000     -6.082000
C          -2.606000    -10.656000      1.786000
H          -1.758000     -9.966000     -0.696000
H          -2.575000     -7.919000     -1.946000
H          -4.671000     -6.756000      1.543000
H          -6.307000     -6.682000     -0.666000
H         -11.159000     -2.847000     -2.433000
H         -10.325000     -0.820000     -4.185000
H          -9.460000      2.462000     -6.672000
H          -6.921000      3.596000     -6.281000
H          -1.692000    -11.022000      1.302000
C          -3.764000    -11.722000      1.662000
H          -2.436000    -10.584000      2.868000
H          -3.698000    -12.273000      0.716000
H          -4.744000    -11.233000      1.588000
C          -3.814000    -12.793000      2.779000
H          -2.935000    -13.394000      2.517000
C          -5.066000    -13.555000      2.823000
H          -3.544000    -12.442000      3.782000
H          -4.789000    -14.483000      3.339000
H          -5.332000    -13.733000      1.774000
C          -6.260000    -12.968000      3.627000
H          -5.927000    -12.810000      4.660000
C          -7.432000    -13.989000      3.786000
H          -6.554000    -11.990000      3.225000
H          -7.690000    -14.239000      2.749000
H          -8.284000    -13.392000      4.133000
H          -7.242000    -14.778000      4.524000
C         -12.167000     -4.953000     -4.083000
C         -11.461000     -5.832000     -3.156000
N         -13.164000     -4.167000     -3.678000
C         -11.992000     -5.969000     -1.853000
C         -13.466000     -4.190000     -2.375000
C         -12.965000     -5.073000     -1.428000
C         -13.424000     -4.987000      0.005000
C         -12.378000     -4.861000      0.977000
C         -14.718000     -4.963000      0.480000
N         -12.624000     -4.944000      2.296000
N         -15.849000     -4.832000     -0.271000
C         -14.983000     -4.918000      1.848000
C         -13.894000     -4.952000      2.780000
S         -17.129000     -4.766000      0.752000
N         -16.273000     -4.800000      2.167000
C         -14.014000     -4.953000      4.189000
S         -15.290000     -4.166000      5.143000
C         -13.151000     -5.566000      5.090000
C         -14.600000     -4.657000      6.736000
S         -11.668000     -6.482000      4.726000
C         -13.402000     -5.322000      6.432000
C         -15.111000     -4.333000      8.023000
C         -11.390000     -6.478000      6.482000
C         -12.374000     -5.859000      7.240000
N         -14.382000     -4.680000      9.089000
S         -16.660000     -3.559000      8.388000
C         -14.938000     -4.334000     10.238000
C         -16.136000     -3.720000     10.017000
C         -11.777000     -4.749000     -5.580000
H         -10.629000     -6.489000     -3.392000
H         -11.469000     -6.604000     -1.144000
H         -14.210000     -3.443000     -2.102000
H         -11.319000     -4.912000      0.730000
H         -10.699000     -7.239000      6.821000
H         -12.382000     -5.887000      8.324000
H         -14.448000     -4.596000     11.167000
H         -16.996000     -3.467000     10.622000
H         -12.563000     -4.935000     -6.322000
C         -10.636000     -5.672000     -6.012000
H         -11.503000     -3.695000     -5.712000
H         -10.841000     -6.743000     -5.892000
H          -9.841000     -5.483000     -5.280000
C         -10.028000     -5.341000     -7.394000
H         -10.753000     -5.416000     -8.214000
C          -8.891000     -6.414000     -7.614000
H          -9.615000     -4.326000     -7.331000
H          -9.507000     -7.308000     -7.771000
H          -8.243000     -6.475000     -6.731000
C          -7.887000     -6.146000     -8.722000
H          -8.473000     -5.777000     -9.572000
C          -6.952000     -7.333000     -8.856000
H          -7.239000     -5.281000     -8.536000
H          -6.179000     -6.904000     -9.505000
H          -7.549000     -8.113000     -9.346000
H          -6.371000     -7.598000     -7.964000
$end

--------------------------------------------------------------

             Standard Nuclear Orientation (Angstroms)
    I     Atom           X                Y                Z
 ----------------------------------------------------------------
    1      C      -3.0377615540    -7.3459691502    -0.5078053960
    2      C      -4.3518672351    -6.9081127969    -0.1870857793
    3      N      -2.2321823781    -6.5833430242    -1.2365245349
    4      C      -4.6649183156    -5.6147774230    -0.4851321376
    5      C      -2.5873526760    -5.2701681357    -1.4929612166
    6      C      -3.8106634220    -4.6970984552    -1.1505244196
    7      C      -3.9106367408    -3.2382442949    -1.2530908585
    8      C      -3.0929207007    -2.3431708267    -0.6027917240
    9      C      -4.9515006785    -2.7448752987    -1.9990850254
   10      N      -3.2883538158    -0.9974781446    -0.5924426762
   11      N      -5.7658824322    -3.5017136597    -2.7791876178
   12      C      -5.1277715263    -1.3795968577    -2.1085992562
   13      C      -4.3464701023    -0.4759460351    -1.3388789982
   14      S      -6.8517598482    -2.4902003653    -3.4886677744
   15      N      -6.2658973120    -1.0656889517    -2.8233548245
   16      C      -4.4569219549     0.9993953122    -1.3303762110
   17      S      -5.7313627557     1.9582128535    -2.2025032475
   18      C      -3.6001700644     1.8703958828    -0.7443709175
   19      C      -4.9322012536     3.4990461423    -1.8581681355
   20      S      -2.0437814966     1.5756266742     0.0585660290
   21      C      -3.8430675719     3.2787933235    -1.0216279277
   22      C      -5.2061253391     4.7710675989    -2.5820804294
   23      C      -1.7435317231     3.3262923611     0.0114839060
   24      C      -2.7942702635     4.1170061158    -0.5524152672
   25      N      -4.9695963503     5.9251036234    -1.9317052364
   26      S      -6.4723997960     4.7983154354    -3.7454894526
   27      C      -5.6430933456     7.0064517842    -2.5682780543
   28      C      -6.5146497079     6.5795318688    -3.5543560904
   29      C      -2.5367240598    -8.6411220089    -0.0003150000
   30      H      -5.0082202977    -7.5823613639     0.3550161733
   31      H      -5.5894844226    -5.1651006475    -0.1340448105
   32      H      -1.7180524103    -4.6770958683    -1.7750114492
   33      H      -2.2831189285    -2.6882571275     0.0379621559
   34      H      -0.7449030321     3.5486847564     0.3633323963
   35      H      -2.7909345030     5.1984898510    -0.6193615388
   36      H      -5.5223367577     8.0023846983    -2.1629072648
   37      H      -7.0206650335     7.0977752531    -4.3588244147
   38      H      -3.4672514362    -9.2152795115     0.0895179791
   39      C      -1.7611232457    -8.6236192315     1.3747606452
   40      H      -1.8519961523    -9.1692508221    -0.6763591178
   41      H      -2.4558336189    -8.6186888710     2.2234220553
   42      H      -1.2132037743    -7.6816001302     1.5065986731
   43      C      -0.7966547639    -9.8102536038     1.6175144594
   44      H      -1.5168041540   -10.6204252160     1.7833240331
   45      C       0.1373389779    -9.6056197149     2.7292089595
   46      H      -0.2632401476   -10.1739622906     0.7313458309
   47      H       0.4250405858   -10.6240126214     3.0195065184
   48      H      -0.4492595384    -9.1070181817     3.5103233505
   49      C       1.4702686263    -8.8575540103     2.4458059705
   50      H       2.0024870935    -9.4022021826     1.6564746893
   51      C       2.4612139350    -8.9259621681     3.6518962321
   52      H       1.2738265754    -7.8455040171     2.0693895363
   53      H       1.8850383682    -8.4860624689     4.4758761900
   54      H       3.2270286723    -8.1718678143     3.4337414852
   55      H       2.9583958760    -9.8967248838     3.7689213035
   56      C      -1.1044957474     3.4461903547     3.1977614352
   57      C      -0.8001292867     2.0266232705     3.0474406083
   58      N      -0.2173915000     4.3881942387     2.8791633549
   59      C       0.5329156212     1.6738005765     2.7359178639
   60      C       0.9531980834     3.9772373986     2.3787869937
   61      C       1.4085924256     2.6672182177     2.3158208225
   62      C       2.7694894101     2.3654498647     1.7427054251
   63      C       2.7871264433     1.4049686756     0.6787783503
   64      C       3.9773461382     2.9366785895     2.0824360071
   65      N       3.9381840069     0.9133186478     0.1883573725
   66      N       4.1559711525     4.0238527192     2.8864686657
   67      C       5.1653098998     2.5212393006     1.4825807758
   68      C       5.1398563907     1.4447699909     0.5358670153
   69      S       5.7578555554     4.3739205285     2.9129995654
   70      N       6.2456965890     3.2223688514     1.8303838160
   71      C       6.2665940127     0.8945400174    -0.1178847017
   72      S       7.7464180954     1.7602409834    -0.5851571292
   73      C       6.4225096823    -0.4263965480    -0.5218103066
   74      C       8.5196850093     0.3192707572    -1.3470580984
   75      S       5.2562483338    -1.7613727024    -0.3529490205
   76      C       7.5630728326    -0.7040710152    -1.2603992250
   77      C       9.7840294486     0.2734572366    -1.9965196140
   78      C       6.3767777293    -2.6960467185    -1.3686430480
   79      C       7.5333987832    -2.0300967199    -1.7490629962
   80      N      10.1261940974    -0.8611052864    -2.6161140253
   81      S      11.0081686929     1.5509336403    -2.0317211534
   82      C      11.3157057490    -0.8047012889    -3.1913823277
   83      C      11.8869609416     0.4153197331    -2.9763074318
   84      C      -2.4946568777     4.0130136263     3.6230712172
   85      H      -1.4645325373     1.1948854943     3.2627301629
   86      H       0.7734232869     0.6233095651     2.6015314891
   87      H       1.5783063163     4.8015831739     2.0385404068
   88      H       1.9069261952     0.8538613893     0.3522522683
   89      H       6.2429320552    -3.7680412276    -1.3020389340
   90      H       8.3469645585    -2.5216210933    -2.2710002717
   91      H      11.7063276170    -1.6803159446    -3.6938746471
   92      H      12.8823244894     0.8278870569    -3.0694396550
   93      H      -2.5079063552     4.6781030212     4.4951013474
   94      C      -3.4842630024     2.9052083153     3.9889688952
   95      H      -2.8738451721     4.6221510613     2.7932617074
   96      H      -3.1580902114     2.2491107744     4.8054328119
   97      H      -3.4846902748     2.2412362601     3.1156356671
   98      C      -4.9453546367     3.3785478649     4.1630663022
   99      H      -5.0674666688     4.1170293790     4.9651783299
  100      C      -5.7605802354     2.0783106870     4.5335909361
  101      H      -5.2680046199     3.7933618891     3.1994329105
  102      H      -5.3847629008     1.9065981390     5.5497686429
  103      H      -5.5277932423     1.2655829624     3.8345931811
  104      C      -7.2743828002     2.1545425294     4.4331195418
  105      H      -7.5528157381     3.1244270279     4.8619040548
  106      C      -7.8811225124     0.8586271175     4.9367266969
  107      H      -7.6471030749     2.2749758222     3.4087658827
  108      H      -8.9160055176     0.9780477499     4.5939047633
  109      H      -7.7761457913     0.8994209048     6.0286171469
  110      H      -7.5779910514    -0.0564630720     4.4131130392
 ----------------------------------------------------------------

   10   -5663.4717866175      5.05E-06 Convergence criterion met
 Total energy in the final basis set = -5663.4717866175

                    Orbital Energies (a.u.)
 --------------------------------------------------------------

 Alpha MOs
 -- Occupied --
-88.991 -88.989 -88.929 -88.927 -88.922 -88.922 -88.909 -88.905
-14.386 -14.382 -14.379 -14.377 -14.355 -14.350 -14.346 -14.340
-14.327 -14.321 -10.274 -10.271 -10.269 -10.260 -10.255 -10.253
-10.252 -10.248 -10.245 -10.244 -10.244 -10.242 -10.241 -10.240
-10.239 -10.238 -10.237 -10.232 -10.231 -10.228 -10.226 -10.226
-10.226 -10.224 -10.220 -10.220 -10.219 -10.215 -10.213 -10.212
-10.211 -10.209 -10.208 -10.206 -10.206 -10.202 -10.197 -10.192
-10.185 -10.184 -10.181 -10.179 -10.175 -10.174 -10.173 -10.173
-10.172 -10.170 -10.170 -10.170  -8.045  -8.044  -7.991  -7.988
 -7.981  -7.980  -7.968  -7.965  -6.011  -6.009  -6.005  -6.003
 -6.003  -6.001  -5.955  -5.952  -5.952  -5.949  -5.948  -5.945
 -5.945  -5.945  -5.941  -5.941  -5.937  -5.937  -5.932  -5.929
 -5.928  -5.926  -5.924  -5.921  -1.031  -1.024  -0.979  -0.957
 -0.955  -0.949  -0.942  -0.932  -0.907  -0.901  -0.896  -0.890
 -0.837  -0.837  -0.834  -0.832  -0.813  -0.810  -0.809  -0.804
 -0.802  -0.801  -0.799  -0.795  -0.785  -0.780  -0.767  -0.767
 -0.749  -0.749  -0.741  -0.737  -0.719  -0.718  -0.713  -0.709
 -0.694  -0.692  -0.674  -0.673  -0.656  -0.650  -0.643  -0.641
 -0.634  -0.632  -0.625  -0.623  -0.608  -0.608  -0.597  -0.597
 -0.593  -0.590  -0.582  -0.577  -0.576  -0.571  -0.567  -0.562
 -0.557  -0.547  -0.539  -0.535  -0.529  -0.521  -0.515  -0.509
 -0.506  -0.505  -0.500  -0.497  -0.492  -0.485  -0.480  -0.478
 -0.476  -0.469  -0.469  -0.467  -0.464  -0.459  -0.450  -0.450
 -0.449  -0.447  -0.436  -0.435  -0.434  -0.431  -0.431  -0.428
 -0.426  -0.424  -0.420  -0.419  -0.416  -0.414  -0.413  -0.408
 -0.408  -0.405  -0.404  -0.403  -0.402  -0.401  -0.398  -0.397
 -0.394  -0.392  -0.391  -0.388  -0.385  -0.384  -0.383  -0.381
 -0.379  -0.378  -0.372  -0.371  -0.362  -0.362  -0.353  -0.352
 -0.350  -0.347  -0.345  -0.345  -0.343  -0.341  -0.339  -0.338
 -0.335  -0.335  -0.331  -0.327  -0.327  -0.321  -0.320  -0.318
 -0.313  -0.313  -0.306  -0.305  -0.300  -0.300  -0.300  -0.298
 -0.295  -0.294  -0.290  -0.287  -0.282  -0.280  -0.280  -0.278
 -0.278  -0.272  -0.264  -0.263  -0.255  -0.253  -0.248  -0.246
 -0.241  -0.240  -0.233  -0.230  -0.195  -0.189

          Ground-State Mulliken Net Atomic Charges

     Atom                 Charge (a.u.)
  ----------------------------------------
      1 C                     0.281487
      2 C                    -0.111216
      3 N                    -0.486255
      4 C                    -0.052638
      5 C                     0.040881
      6 C                     0.053467
      7 C                     0.002472
      8 C                     0.079395
      9 C                     0.246811
     10 N                    -0.532486
     11 N                    -0.552448
     12 C                     0.202711
     13 C                     0.299076
     14 S                     0.611099
     15 N                    -0.563386
     16 C                    -0.231672
     17 S                     0.310026
     18 C                    -0.106536
     19 C                    -0.234431
     20 S                     0.293558
     21 C                     0.136723
     22 C                     0.052028
     23 C                    -0.315279
     24 C                    -0.069014
     25 N                    -0.417977
     26 S                     0.275344
     27 C                     0.119809
     28 C                    -0.313418
     29 C                    -0.225829
     30 H                     0.092427
     31 H                     0.088788
     32 H                     0.101736
     33 H                     0.117163
     34 H                     0.141478
     35 H                     0.133524
     36 H                     0.127683
     37 H                     0.142741
     38 H                     0.092759
     39 C                    -0.184941
     40 H                     0.120692
     41 H                     0.092931
     42 H                     0.104057
     43 C                    -0.174112
     44 H                     0.090180
     45 C                    -0.163955
     46 H                     0.088726
     47 H                     0.088580
     48 H                     0.084067
     49 C                    -0.184022
     50 H                     0.092239
     51 C                    -0.317426
     52 H                     0.098450
     53 H                     0.106377
     54 H                     0.101737
     55 H                     0.110419
     56 C                     0.254099
     57 C                    -0.119777
     58 N                    -0.451361
     59 C                    -0.099123
     60 C                     0.051587
     61 C                     0.060815
     62 C                    -0.016152
     63 C                     0.058093
     64 C                     0.266759
     65 N                    -0.498394
     66 N                    -0.558583
     67 C                     0.212445
     68 C                     0.269875
     69 S                     0.604376
     70 N                    -0.574869
     71 C                    -0.188766
     72 S                     0.302457
     73 C                    -0.118012
     74 C                    -0.228472
     75 S                     0.271339
     76 C                     0.166432
     77 C                     0.063541
     78 C                    -0.305524
     79 C                    -0.057189
     80 N                    -0.438722
     81 S                     0.277190
     82 C                     0.154261
     83 C                    -0.323932
     84 C                    -0.215629
     85 H                     0.108649
     86 H                     0.102746
     87 H                     0.107736
     88 H                     0.124137
     89 H                     0.127334
     90 H                     0.126272
     91 H                     0.120555
     92 H                     0.127150
     93 H                     0.113496
     94 C                    -0.197556
     95 H                     0.127164
     96 H                     0.090865
     97 H                     0.110830
     98 C                    -0.194231
     99 H                     0.089015
    100 C                    -0.157798
    101 H                     0.098724
    102 H                     0.089206
    103 H                     0.090649
    104 C                    -0.189751
    105 H                     0.089139
    106 C                    -0.309621
    107 H                     0.090487
    108 H                     0.096297
    109 H                     0.107791
    110 H                     0.107353
  ----------------------------------------
  Sum of atomic charges =     0.000000

                    Cartesian Multipole Moments
 -----------------------------------------------------------------
    Charge (ESU x 10^10)
                 0.0000
    Dipole Moment (Debye)
         X      -0.2109      Y      -0.1772      Z      -0.2272
       Tot       0.3571
    Quadrupole Moments (Debye-Ang)
        XX    -378.5499     XY      -2.3471     YY    -419.7519
        XZ       1.4942     YZ     -21.0182     ZZ    -442.2675

 Total job time:  90.63s(wall), 1066.55s(cpu)
        *  Thank you very much for using Q-Chem.  Have a nice day.  *
