 Q-Chem 4.4, Q-Chem, Inc., Pleasanton, CA (2016)
 Q-Chem 4.4.2 for Intel X86 Linux

User input:
--------------------------------------------------------------
$comment
SP
$end

$rem
MEM_STATIC 5000
MEM_TOTAL 20000
JOBTYPE SP
EXCHANGE B3LYP
BASIS 6-31g(d,p)
$end

$molecule
0 1
C         -26.751000     -1.295000     -4.803000
C         -25.966000     -2.361000     -4.299000
N         -26.258000     -0.297000     -5.490000
C         -24.606000     -2.454000     -4.618000
C         -24.910000     -0.309000     -5.667000
C         -24.008000     -1.339000     -5.321000
C         -22.583000     -1.208000     -5.452000
C         -21.950000      0.031000     -5.277000
C         -21.686000     -2.254000     -5.787000
N         -20.654000      0.251000     -5.435000
N         -22.069000     -3.505000     -5.992000
C         -20.328000     -2.052000     -5.904000
C         -19.803000     -0.732000     -5.713000
S         -20.678000     -4.365000     -6.328000
N         -19.589000     -3.162000     -6.164000
C         -18.382000     -0.353000     -5.833000
S         -17.032000     -1.432000     -6.158000
C         -17.955000      0.923000     -5.893000
C         -15.827000     -0.121000     -5.961000
S         -18.780000      2.394000     -6.003000
C         -16.571000      1.054000     -5.965000
C         -14.419000     -0.383000     -6.050000
C         -17.218000      3.309000     -5.958000
C         -16.131000      2.442000     -6.117000
N         -13.675000      0.725000     -6.182000
S         -13.665000     -1.943000     -6.336000
C         -12.337000      0.298000     -6.341000
C         -12.228000     -1.035000     -6.468000
C         -28.344000     -1.462000     -4.805000
H         -26.513000     -3.107000     -3.731000
H         -24.065000     -3.306000     -4.216000
H         -24.627000      0.627000     -6.146000
H         -22.452000      0.972000     -5.055000
H         -17.211000      4.371000     -5.752000
H         -15.098000      2.763000     -6.046000
H         -11.527000      1.009000     -6.436000
H         -11.306000     -1.600000     -6.511000
H         -28.792000     -0.713000     -5.470000
C         -29.060000     -1.237000     -3.481000
H         -28.636000     -2.477000     -5.101000
H         -28.650000     -0.339000     -3.003000
H         -28.881000     -2.012000     -2.725000
C         -30.617000     -1.030000     -3.679000
H         -31.110000     -0.555000     -2.821000
C         -31.346000     -2.349000     -3.905000
H         -30.772000     -0.355000     -4.531000
H         -30.942000     -2.808000     -4.816000
H         -32.394000     -2.065000     -4.064000
C         -31.266000     -3.272000     -2.674000
H         -30.292000     -3.718000     -2.437000
C         -32.122000     -4.529000     -2.839000
H         -31.452000     -2.653000     -1.788000
H         -32.470000     -5.036000     -1.931000
H         -31.690000     -5.288000     -3.504000
H         -33.051000     -4.278000     -3.364000
C         -12.167000     -4.953000     -4.083000
C         -11.461000     -5.832000     -3.156000
N         -13.164000     -4.167000     -3.678000
C         -11.992000     -5.969000     -1.853000
C         -13.466000     -4.190000     -2.375000
C         -12.965000     -5.073000     -1.428000
C         -13.424000     -4.987000      0.005000
C         -12.378000     -4.861000      0.977000
C         -14.718000     -4.963000      0.480000
N         -12.624000     -4.944000      2.296000
N         -15.849000     -4.832000     -0.271000
C         -14.983000     -4.918000      1.848000
C         -13.894000     -4.952000      2.780000
S         -17.129000     -4.766000      0.752000
N         -16.273000     -4.800000      2.167000
C         -14.014000     -4.953000      4.189000
S         -15.290000     -4.166000      5.143000
C         -13.151000     -5.566000      5.090000
C         -14.600000     -4.657000      6.736000
S         -11.668000     -6.482000      4.726000
C         -13.402000     -5.322000      6.432000
C         -15.111000     -4.333000      8.023000
C         -11.390000     -6.478000      6.482000
C         -12.374000     -5.859000      7.240000
N         -14.382000     -4.680000      9.089000
S         -16.660000     -3.559000      8.388000
C         -14.938000     -4.334000     10.238000
C         -16.136000     -3.720000     10.017000
C         -11.777000     -4.749000     -5.580000
H         -10.629000     -6.489000     -3.392000
H         -11.469000     -6.604000     -1.144000
H         -14.210000     -3.443000     -2.102000
H         -11.319000     -4.912000      0.730000
H         -10.699000     -7.239000      6.821000
H         -12.382000     -5.887000      8.324000
H         -14.448000     -4.596000     11.167000
H         -16.996000     -3.467000     10.622000
H         -12.563000     -4.935000     -6.322000
C         -10.636000     -5.672000     -6.012000
H         -11.503000     -3.695000     -5.712000
H         -10.841000     -6.743000     -5.892000
H          -9.841000     -5.483000     -5.280000
C         -10.028000     -5.341000     -7.394000
H         -10.753000     -5.416000     -8.214000
C          -8.891000     -6.414000     -7.614000
H          -9.615000     -4.326000     -7.331000
H          -9.507000     -7.308000     -7.771000
H          -8.243000     -6.475000     -6.731000
C          -7.887000     -6.146000     -8.722000
H          -8.473000     -5.777000     -9.572000
C          -6.952000     -7.333000     -8.856000
H          -7.239000     -5.281000     -8.536000
H          -6.179000     -6.904000     -9.505000
H          -7.549000     -8.113000     -9.346000
H          -6.371000     -7.598000     -7.964000
$end

--------------------------------------------------------------

             Standard Nuclear Orientation (Angstroms)
    I     Atom           X                Y                Z
 ----------------------------------------------------------------
    1      C      -9.7736434381    -2.4605072320    -0.3899564587
    2      C      -8.6094321150    -2.5705194633    -1.1893977037
    3      N      -9.9433030906    -1.5312537511     0.5148780956
    4      C      -7.6071630702    -1.5953426199    -1.1223388790
    5      C      -8.9009741769    -0.6753830810     0.6869618884
    6      C      -7.7255130865    -0.5870354317    -0.0906665047
    7      C      -6.6311172925     0.2830238406     0.2413601640
    8      C      -6.3185230239     0.5773335453     1.5763139538
    9      C      -5.7909746199     0.9439312428    -0.6904722755
   10      N      -5.3669402763     1.4105230544     1.9678053542
   11      N      -5.9064817720     0.8050867494    -2.0023774948
   12      C      -4.7630143206     1.7733221983    -0.2979607902
   13      C      -4.5525753378     2.0046557107     1.1008623725
   14      S      -4.6994196379     1.7425424227    -2.6743558166
   15      N      -4.0023833726     2.2821445149    -1.3021327929
   16      C      -3.5166556836     2.8854115185     1.6739432368
   17      S      -2.2849786030     3.7725242575     0.7860420274
   18      C      -3.5008602130     3.2739420874     2.9634778428
   19      C      -1.5011355470     4.3546588791     2.2881286913
   20      S      -4.6035281326     3.0654741704     4.2272937260
   21      C      -2.4116993478     4.0725396048     3.3007783246
   22      C      -0.3043376004     5.1452044863     2.2463995892
   23      C      -3.4994566732     3.9282652452     5.3743385263
   24      C      -2.4576464709     4.5557708196     4.6819461112
   25      N      -0.0180438437     5.7459989325     3.4107474403
   26      S       0.5658971543     5.6437930767     0.8048681503
   27      C       1.1261000693     6.5443874601     3.1841101411
   28      C       1.4801364326     6.5902607483     1.8889449413
   29      C     -11.0650776505    -3.3092853632    -0.8110447615
   30      H      -8.6049674877    -3.4048744013    -1.8837901752
   31      H      -6.7492829113    -1.7278995670    -1.7755304962
   32      H      -9.1286537382    -0.0379244905     1.5398596330
   33      H      -6.8585373587     0.2099350687     2.4481923155
   34      H      -3.6515276382     3.8521891367     6.4427091770
   35      H      -1.6378361997     5.0661151770     5.1745217463
   36      H       1.5826730853     7.1130815886     3.9833435671
   37      H       2.3674036314     7.0599222543     1.4848001804
   38      H     -11.9494885039    -2.9144443766    -0.2954402253
   39      C     -11.0669501490    -4.7858368342    -0.4421962190
   40      H     -11.2069259088    -3.3023079662    -1.8986730931
   41      H     -10.7083867497    -4.8954503529     0.5885341847
   42      H     -10.3562155269    -5.4011460271    -1.0082818081
   43      C     -12.5160369408    -5.4164357578    -0.5359750390
   44      H     -12.6218569430    -6.3591628333     0.0162077100
   45      C     -12.9144162354    -5.7250504166    -1.9741436418
   46      H     -13.2295332373    -4.7161683787    -0.0819897610
   47      H     -12.9129524768    -4.7827050150    -2.5361053855
   48      H     -13.9377582031    -6.1148184343    -1.9027776178
   49      C     -12.0165849561    -6.8076690651    -2.6030521057
   50      H     -10.9771573565    -6.5372017466    -2.8271027576
   51      C     -12.5062190722    -7.2290217741    -3.9896776236
   52      H     -11.8872341923    -7.6002346191    -1.8561510261
   53      H     -12.2265273583    -8.2255691666    -4.3520073624
   54      H     -12.2870863002    -6.5070239141    -4.7869416441
   55      H     -13.6021288865    -7.2494165322    -4.0049332063
   56      C       3.6610312194     4.2535783642    -1.4013868603
   57      C       4.9216839432     3.7606405062    -1.9474390356
   58      N       2.8352360395     3.4577696158    -0.7227258573
   59      C       5.1524550961     2.3666376280    -1.9022765467
   60      C       3.2295440515     2.1940479801    -0.5301880190
   61      C       4.3297010010     1.5762897146    -1.1094361625
   62      C       4.6301572124     0.1298609799    -0.8108796677
   63      C       5.9517217798    -0.1332441327    -0.3219841841
   64      C       3.7766382828    -0.9489343050    -0.9022206217
   65      N       6.4153471930    -1.3864879847    -0.1750239054
   66      N       2.4300293958    -0.8946265298    -1.1120257006
   67      C       4.2172443462    -2.2422222316    -0.6248280554
   68      C       5.5941245487    -2.4631675202    -0.2915337600
   69      S       1.8475675341    -2.4263306429    -1.0495301854
   70      N       3.2673687667    -3.1784529600    -0.6563464114
   71      C       6.1873044577    -3.7192137273    -0.0266422325
   72      S       5.3982168403    -5.1261217486     0.7187513223
   73      C       7.5014256408    -4.0840720641    -0.2955342372
   74      C       6.8784410046    -6.1567712475     0.6796612499
   75      S       8.7852650947    -3.0796435720    -1.0122773300
   76      C       7.8923565134    -5.3302618042     0.1710332118
   77      C       7.0055076415    -7.4856392876     1.1699976668
   78      C       9.8805416466    -4.4202871784    -0.6074563876
   79      C       9.2800536419    -5.5230527860    -0.0164376310
   80      N       8.2238879883    -8.0367791449     1.1695640153
   81      S       5.7016731332    -8.5381926713     1.7390749457
   82      C       8.2400837305    -9.2704441849     1.6458635714
   83      C       6.9803235356    -9.6569779413     1.9989030968
   84      C       3.2006273683     5.7438562167    -1.4441094100
   85      H       5.6612469487     4.3383071701    -2.4941718646
   86      H       6.0933574110     1.9840443268    -2.2866724361
   87      H       2.5597514930     1.6392353873     0.1252774000
   88      H       6.7276241968     0.6268288601    -0.2488030043
   89      H      10.8105604433    -4.4127088548    -1.1611084506
   90      H       9.8135228665    -6.4475776610     0.1747908766
   91      H       9.1705849129    -9.8233712432     1.6608374700
   92      H       6.4975370313   -10.5977825908     2.2257021329
   93      H       2.2241428616     5.9432485082    -1.9020141187
   94      C       4.1669215461     6.6258459736    -2.2370808033
   95      H       3.1073399660     6.0933053497    -0.4084459686
   96      H       4.3161164980     6.3212347510    -3.2803539552
   97      H       5.1452747549     6.4399090261    -1.7768390728
   98      C       3.9142674709     8.1444225706    -2.0983723421
   99      H       2.9232844979     8.4517501080    -2.4549568791
  100      C       5.0181413590     8.8314398351    -2.9938988450
  101      H       4.0425976525     8.3981970687    -1.0382342055
  102      H       4.6443828879     8.5615622005    -3.9892940769
  103      H       6.0089755856     8.4182564519    -2.7684192955
  104      C       5.2465983577    10.3201177143    -2.7960363373
  105      H       4.2486178846    10.7653381597    -2.7073192003
  106      C       6.2518097203    10.8181992089    -3.8171215154
  107      H       5.6684458928    10.5796406396    -1.8175591999
  108      H       6.4737456266    11.8114228216    -3.4084378863
  109      H       5.7022644438    10.8504045751    -4.7667908281
  110      H       7.2408854982    10.3440656095    -3.7977195703
 ----------------------------------------------------------------

   10   -5663.4921493646      6.53E-06 Convergence criterion met
 Total energy in the final basis set = -5663.4921493646

                    Orbital Energies (a.u.)
 --------------------------------------------------------------

 Alpha MOs
 -- Occupied --
-88.990 -88.983 -88.931 -88.924 -88.923 -88.911 -88.907 -88.900
-14.386 -14.383 -14.379 -14.375 -14.347 -14.341 -14.341 -14.338
-14.332 -14.326 -10.271 -10.264 -10.262 -10.257 -10.254 -10.254
-10.250 -10.248 -10.245 -10.243 -10.243 -10.240 -10.236 -10.232
-10.231 -10.230 -10.229 -10.228 -10.227 -10.226 -10.223 -10.223
-10.223 -10.222 -10.220 -10.220 -10.216 -10.216 -10.216 -10.215
-10.214 -10.213 -10.210 -10.208 -10.204 -10.195 -10.195 -10.194
-10.194 -10.187 -10.185 -10.184 -10.180 -10.180 -10.178 -10.177
-10.177 -10.177 -10.177 -10.170  -8.045  -8.039  -7.992  -7.986
 -7.982  -7.971  -7.967  -7.960  -6.010  -6.005  -6.004  -6.003
 -5.998  -5.996  -5.956  -5.953  -5.950  -5.950  -5.947  -5.946
 -5.943  -5.942  -5.939  -5.936  -5.932  -5.931  -5.928  -5.928
 -5.924  -5.923  -5.921  -5.916  -1.034  -1.033  -0.980  -0.961
 -0.959  -0.956  -0.946  -0.941  -0.910  -0.909  -0.901  -0.897
 -0.839  -0.837  -0.834  -0.831  -0.815  -0.813  -0.811  -0.810
 -0.806  -0.803  -0.803  -0.792  -0.788  -0.778  -0.770  -0.764
 -0.754  -0.745  -0.740  -0.734  -0.720  -0.715  -0.713  -0.708
 -0.697  -0.691  -0.676  -0.672  -0.656  -0.650  -0.644  -0.640
 -0.638  -0.628  -0.627  -0.621  -0.613  -0.611  -0.599  -0.599
 -0.593  -0.589  -0.585  -0.581  -0.578  -0.576  -0.575  -0.558
 -0.554  -0.547  -0.541  -0.537  -0.530  -0.520  -0.517  -0.510
 -0.508  -0.506  -0.501  -0.493  -0.488  -0.487  -0.483  -0.482
 -0.474  -0.472  -0.469  -0.464  -0.462  -0.459  -0.456  -0.452
 -0.450  -0.442  -0.437  -0.437  -0.433  -0.431  -0.430  -0.429
 -0.423  -0.421  -0.420  -0.418  -0.417  -0.416  -0.411  -0.410
 -0.410  -0.407  -0.406  -0.404  -0.403  -0.402  -0.400  -0.400
 -0.394  -0.393  -0.392  -0.391  -0.390  -0.386  -0.385  -0.384
 -0.381  -0.380  -0.378  -0.371  -0.369  -0.358  -0.356  -0.354
 -0.351  -0.351  -0.348  -0.347  -0.345  -0.343  -0.342  -0.339
 -0.336  -0.332  -0.331  -0.329  -0.328  -0.324  -0.324  -0.323
 -0.316  -0.308  -0.307  -0.307  -0.303  -0.302  -0.301  -0.301
 -0.296  -0.294  -0.292  -0.289  -0.288  -0.284  -0.282  -0.281
 -0.274  -0.268  -0.264  -0.262  -0.256  -0.250  -0.249  -0.245
 -0.245  -0.235  -0.235  -0.227  -0.191  -0.188

          Ground-State Mulliken Net Atomic Charges

     Atom                 Charge (a.u.)
  ----------------------------------------
      1 C                     0.272618
      2 C                    -0.112884
      3 N                    -0.473571
      4 C                    -0.055253
      5 C                     0.050328
      6 C                     0.034832
      7 C                     0.046890
      8 C                     0.045975
      9 C                     0.262950
     10 N                    -0.531194
     11 N                    -0.578666
     12 C                     0.189017
     13 C                     0.324629
     14 S                     0.588557
     15 N                    -0.556632
     16 C                    -0.219119
     17 S                     0.294019
     18 C                    -0.080092
     19 C                    -0.232114
     20 S                     0.267203
     21 C                     0.135730
     22 C                     0.053668
     23 C                    -0.312233
     24 C                    -0.053320
     25 N                    -0.449701
     26 S                     0.334678
     27 C                     0.121687
     28 C                    -0.308369
     29 C                    -0.224489
     30 H                     0.088209
     31 H                     0.114133
     32 H                     0.101340
     33 H                     0.114638
     34 H                     0.130740
     35 H                     0.129129
     36 H                     0.114266
     37 H                     0.126011
     38 H                     0.117059
     39 C                    -0.185707
     40 H                     0.107614
     41 H                     0.095779
     42 H                     0.091295
     43 C                    -0.191007
     44 H                     0.088383
     45 C                    -0.167000
     46 H                     0.089763
     47 H                     0.093557
     48 H                     0.093813
     49 C                    -0.167007
     50 H                     0.096760
     51 C                    -0.329100
     52 H                     0.093388
     53 H                     0.100434
     54 H                     0.103699
     55 H                     0.097291
     56 C                     0.254349
     57 C                    -0.126058
     58 N                    -0.454183
     59 C                    -0.092308
     60 C                     0.081877
     61 C                     0.055511
     62 C                    -0.018565
     63 C                     0.062382
     64 C                     0.265398
     65 N                    -0.499142
     66 N                    -0.557779
     67 C                     0.213096
     68 C                     0.270298
     69 S                     0.606054
     70 N                    -0.574054
     71 C                    -0.188490
     72 S                     0.304231
     73 C                    -0.118697
     74 C                    -0.228805
     75 S                     0.270173
     76 C                     0.166581
     77 C                     0.063824
     78 C                    -0.306647
     79 C                    -0.056919
     80 N                    -0.439484
     81 S                     0.278585
     82 C                     0.154342
     83 C                    -0.324233
     84 C                    -0.223719
     85 H                     0.099171
     86 H                     0.100594
     87 H                     0.112367
     88 H                     0.117835
     89 H                     0.126654
     90 H                     0.126413
     91 H                     0.120767
     92 H                     0.127791
     93 H                     0.123183
     94 C                    -0.191162
     95 H                     0.111526
     96 H                     0.099070
     97 H                     0.096107
     98 C                    -0.194638
     99 H                     0.094060
    100 C                    -0.156618
    101 H                     0.088410
    102 H                     0.093156
    103 H                     0.088571
    104 C                    -0.190406
    105 H                     0.091332
    106 C                    -0.309670
    107 H                     0.088229
    108 H                     0.098559
    109 H                     0.109952
    110 H                     0.108506
  ----------------------------------------
  Sum of atomic charges =     0.000000

                    Cartesian Multipole Moments
 -----------------------------------------------------------------
    Charge (ESU x 10^10)
                 0.0000
    Dipole Moment (Debye)
         X       4.8282      Y      -1.0915      Z      -2.5410
       Tot       5.5642
    Quadrupole Moments (Debye-Ang)
        XX    -447.1236     XY      17.0619     YY    -387.7654
        XZ       4.7004     YZ      -6.8946     ZZ    -437.7062

 Total job time:  87.81s(wall), 1033.99s(cpu)
        *  Thank you very much for using Q-Chem.  Have a nice day.  *
