 Q-Chem 4.4, Q-Chem, Inc., Pleasanton, CA (2016)
 Q-Chem 4.4.2 for Intel X86 Linux

User input:
--------------------------------------------------------------
$comment
SP
$end

$rem
MEM_STATIC 5000
MEM_TOTAL 20000
JOBTYPE SP
EXCHANGE B3LYP
BASIS 6-31g(d,p)
$end

$molecule
0 1
C          10.134000     -2.530000      4.728000
C          11.481000     -3.071000      4.712000
N           9.863000     -1.219000      4.570000
C          12.542000     -2.194000      4.525000
C          10.898000     -0.400000      4.377000
C          12.226000     -0.835000      4.305000
C          13.285000      0.194000      4.075000
C          14.482000      0.177000      4.798000
C          13.124000      1.220000      3.168000
N          15.408000      1.171000      4.684000
N          12.088000      1.409000      2.328000
C          14.125000      2.123000      2.988000
C          15.239000      2.160000      3.786000
S          12.374000      2.719000      1.570000
N          13.867000      3.106000      2.028000
C          16.192000      3.249000      3.889000
S          16.554000      4.475000      2.648000
C          17.092000      3.384000      4.943000
C          17.803000      5.262000      3.737000
S          17.023000      2.615000      6.485000
C          17.935000      4.510000      4.882000
C          18.450000      6.486000      3.428000
C          18.395000      3.739000      7.019000
C          18.696000      4.663000      6.093000
N          18.163000      7.065000      2.245000
S          19.478000      7.485000      4.468000
C          18.643000      8.344000      2.205000
C          19.318000      8.799000      3.364000
C           8.981000     -3.485000      4.908000
H          11.751000     -4.120000      4.784000
H          13.579000     -2.516000      4.550000
H          10.498000      0.606000      4.259000
H          14.687000     -0.637000      5.492000
H          18.776000      3.542000      8.012000
H          19.433000      5.433000      6.292000
H          18.557000      8.954000      1.316000
H          19.857000      9.724000      3.516000
H           8.144000     -3.254000      4.237000
C           8.392000     -3.550000      6.367000
H           9.464000     -4.433000      4.639000
H           7.889000     -2.598000      6.580000
H           9.170000     -3.634000      7.136000
C           7.179000     -4.547000      6.577000
H           6.762000     -4.357000      7.574000
C           7.388000     -6.099000      6.388000
H           6.359000     -4.261000      5.906000
H           8.433000     -6.381000      6.208000
H           6.925000     -6.372000      5.432000
C           6.695000     -6.946000      7.511000
H           5.712000     -6.476000      7.633000
C           7.442000     -7.020000      8.874000
H           6.571000     -7.953000      7.095000
H           6.751000     -7.520000      9.564000
H           7.542000     -6.010000      9.289000
H           8.432000     -7.490000      8.841000
C           5.759000    -10.934000      8.123000
C           6.918000    -10.640000      8.852000
N           5.650000    -10.816000      6.810000
C           8.064000    -10.296000      8.119000
C           6.774000    -10.548000      6.130000
C           8.065000    -10.414000      6.721000
C           9.235000    -10.045000      5.925000
C          10.106000     -9.065000      6.350000
C           9.562000    -10.754000      4.766000
N          11.248000     -8.818000      5.749000
N           8.878000    -11.800000      4.265000
C          10.738000    -10.466000      4.131000
C          11.552000     -9.431000      4.590000
S           9.703000    -12.201000      2.902000
N          10.959000    -11.167000      3.020000
C          12.787000     -9.054000      3.952000
S          13.699000     -9.903000      2.626000
C          13.504000     -7.894000      4.286000
C          14.632000     -8.481000      2.301000
S          13.189000     -6.704000      5.423000
C          14.550000     -7.600000      3.346000
C          15.504000     -8.250000      1.210000
C          14.431000     -5.662000      4.605000
C          15.205000     -6.358000      3.671000
N          15.092000     -8.509000     -0.024000
S          17.133000     -7.791000      1.471000
C          16.117000     -8.246000     -0.904000
C          17.299000     -7.847000     -0.262000
C           4.455000    -11.272000      8.883000
H           6.853000    -10.664000      9.936000
H           8.928000     -9.821000      8.574000
H           6.726000    -10.480000      5.045000
H           9.967000     -8.543000      7.295000
H          14.605000     -4.635000      4.897000
H          16.004000     -5.939000      3.070000
H          15.928000     -8.229000     -1.970000
H          18.223000     -7.682000     -0.800000
H           4.065000    -12.195000      8.435000
C           3.408000    -10.123000      8.766000
H           4.680000    -11.531000      9.925000
H           3.175000     -9.887000      7.720000
H           3.788000     -9.231000      9.278000
C           2.137000    -10.726000      9.445000
H           1.354000     -9.966000      9.327000
C           2.159000    -11.136000     11.031000
H           1.772000    -11.569000      8.845000
H           2.139000    -10.179000     11.568000
H           3.076000    -11.642000     11.357000
C           0.965000    -12.030000     11.439000
H           1.173000    -13.034000     11.048000
C          -0.361000    -11.530000     10.931000
H           1.000000    -12.128000     12.531000
H          -0.612000    -10.494000     11.194000
H          -1.201000    -12.122000     11.316000
H          -0.361000    -11.719000      9.851000
$end

--------------------------------------------------------------

             Standard Nuclear Orientation (Angstroms)
    I     Atom           X                Y                Z
 ----------------------------------------------------------------
    1      C      -0.1538438437    -2.0422920565    -1.3959829258
    2      C      -0.4852289074    -0.8853020503    -0.5842538668
    3      N      -1.0823435223    -2.8693938616    -1.9164797565
    4      C      -1.8249447876    -0.6184139840    -0.3317640244
    5      C      -2.3619100647    -2.5826830256    -1.6720592991
    6      C      -2.7781249398    -1.4675321579    -0.9363985620
    7      C      -4.2467794391    -1.2648942740    -0.7487450255
    8      C      -4.7752130224    -0.8953745690     0.4922385101
    9      C      -5.1492965190    -1.4595305080    -1.7728669210
   10      N      -6.1187148095    -0.8183486538     0.7103622283
   11      N      -4.8720208541    -1.7629979423    -3.0556929895
   12      C      -6.4745986611    -1.2486329129    -1.5517189242
   13      C      -6.9853157586    -1.0018619277    -0.3037441139
   14      S      -6.2276209469    -1.9191166304    -3.7701405688
   15      N      -7.2976249336    -1.4510792044    -2.6635175813
   16      C      -8.3796519475    -1.0783169405     0.0896008026
   17      S      -9.8014586528    -0.8799373957    -0.9655353256
   18      C      -8.7998498549    -1.1583140265     1.4148084032
   19      C     -10.9360200294    -1.1298856741     0.4541784980
   20      S      -7.8542851848    -1.5940637259     2.7895504351
   21      C     -10.1923697504    -1.2364011370     1.6072577316
   22      C     -12.3427527400    -1.2527964497     0.3190414485
   23      C      -9.4330904232    -1.6599253368     3.7559624939
   24      C     -10.5188683145    -1.4978012080     2.9835279414
   25      N     -12.8669145466    -1.1247675403    -0.9162568955
   26      S     -13.5315478062    -1.7346471099     1.5400947773
   27      C     -14.1727847339    -1.5276945585    -0.9301806818
   28      C     -14.7027518611    -1.9859787967     0.3006894987
   29      C       1.2992540054    -2.3187464798    -1.6890931318
   30      H       0.2174069303    -0.1610360253    -0.1839707112
   31      H      -2.1489111257     0.1987396171     0.3061887983
   32      H      -2.9650585603    -3.3391459820    -2.1719949828
   33      H      -4.1077268656    -0.6789149759     1.3252237891
   34      H      -9.3044063525    -1.8435208951     4.8141458811
   35      H     -11.5168550568    -1.5801455210     3.3993546797
   36      H     -14.7804794840    -1.4494901505    -1.8214764584
   37      H     -15.7218670828    -2.2546375173     0.5425089702
   38      H       1.4618520778    -2.6123828981    -2.7338469404
   39      C       1.9585799731    -3.4337084675    -0.7935619853
   40      H       1.7362622347    -1.3354011826    -1.4736637141
   41      H       1.5191798409    -4.4017437613    -1.0665403612
   42      H       1.7297770187    -3.3128486825     0.2726195755
   43      C       3.4849870943    -3.7399902840    -1.0863942739
   44      H       3.7555906156    -4.6437406721    -0.5260310255
   45      C       4.5769403544    -2.6287668615    -0.8395611661
   46      H       3.5938138234    -4.0541533053    -2.1322887901
   47      H       4.1778839390    -1.7191658916    -0.3733755240
   48      H       4.8788745233    -2.2500847055    -1.8235680677
   49      C       5.8598035573    -3.1853381990    -0.1301407344
   50      H       6.0619771248    -4.1315195477    -0.6458341550
   51      C       5.7519484452    -3.4085509114     1.4060224600
   52      H       6.6602570255    -2.4690386287    -0.3507539041
   53      H       6.6739321130    -3.9278578930     1.6955865724
   54      H       4.9624873775    -4.1410142673     1.6123563033
   55      H       5.5625064629    -2.5057950646     1.9986712738
   56      C       9.7055589901    -1.8402424535     0.6152897361
   57      C       8.9501366385    -1.6738525719     1.7826840474
   58      N       9.4262622962    -1.2700130012    -0.5451436866
   59      C       7.8876972291    -0.7586842061     1.7313969780
   60      C       8.4472228191    -0.3540144337    -0.5504659647
   61      C       7.7196066387     0.0596290160     0.6042598861
   62      C       6.6116950231     1.0094753176     0.5093870480
   63      C       5.4116760155     0.7705609639     1.1438476952
   64      C       6.7782409113     2.2379468755    -0.1356021757
   65      N       4.4541204351     1.6672753651     1.2170910783
   66      N       7.9111065990     2.6719510840    -0.7197500000
   67      C       5.7621487030     3.1509516723    -0.0797106282
   68      C       4.5566323741     2.8269946304     0.5418070431
   69      S       7.5102148558     4.1468173722    -1.3224524490
   70      N       5.9912907388     4.2828544010    -0.7436783535
   71      C       3.4351365421     3.7280788823     0.6103071879
   72      S       3.3515224408     5.4912071684     0.1684833219
   73      C       2.1607575835     3.3398247150     1.0535474969
   74      C       1.6209375650     5.4435093592     0.1368778368
   75      S       1.5972094630     1.8582248976     1.5970265644
   76      C       1.1562385921     4.3319845211     0.7876292478
   77      C       0.7371744384     6.4436919277    -0.3349521808
   78      C      -0.0957858370     2.4836955701     1.3970131846
   79      C      -0.1505447918     3.8633640067     1.1748320384
   80      N       0.9468492350     6.9956336831    -1.5227980371
   81      S      -0.5045734239     7.0617634764     0.6692852450
   82      C      -0.0096428063     7.9600005095    -1.7448646916
   83      C      -0.8786862836     8.1280203044    -0.6562776335
   84      C      10.8577012773    -2.8720714781     0.6027592186
   85      H       9.2095395772    -2.2830932396     2.6437258143
   86      H       7.1026142164    -0.7320477453     2.4811177008
   87      H       8.2162917895     0.1602084232    -1.4812713757
   88      H       5.2486467705    -0.1195412276     1.7488018703
   89      H      -0.9638609615     1.8539202428     1.5387792431
   90      H      -1.0519638042     4.4482568815     1.0316290738
   91      H      -0.1162445682     8.4047711698    -2.7262826067
   92      H      -1.6351816750     8.9010791516    -0.6330452927
   93      H      11.7353284025    -2.3524319075     0.1971999184
   94      C      10.5062685340    -4.1144877438    -0.2707371178
   95      H      11.1336638474    -3.1443773913     1.6289970807
   96      H      10.2525462386    -3.8320064986    -1.3002663029
   97      H       9.6711908629    -4.6571929038     0.1878742563
   98      C      11.8372392620    -4.9320855978    -0.2826396537
   99      H      11.6483875715    -5.7886118257    -0.9424205718
  100      C      12.4513800155    -5.5379286092     1.1101149480
  101      H      12.6079867430    -4.3604948053    -0.8147169850
  102      H      11.7952849502    -6.3809051379     1.3622019119
  103      H      12.3995057530    -4.8532270165     1.9655059637
  104      C      13.9214966999    -5.9970185056     0.9710847316
  105      H      14.5362647312    -5.0883228178     0.9488717948
  106      C      14.1756088636    -6.8362241418    -0.2526394646
  107      H      14.1851808765    -6.5061344603     1.9062663181
  108      H      13.5354902816    -7.7211755247    -0.3647788913
  109      H      15.1985839811    -7.2327438531    -0.2767854307
  110      H      14.1247244778    -6.1491151133    -1.1055245461
 ----------------------------------------------------------------

    9   -5663.5106291659      5.87E-06 Convergence criterion met
 Total energy in the final basis set = -5663.5106291659

                    Orbital Energies (a.u.)
 --------------------------------------------------------------

 Alpha MOs
 -- Occupied --
-88.991 -88.988 -88.938 -88.928 -88.924 -88.920 -88.919 -88.904
-14.385 -14.383 -14.381 -14.377 -14.347 -14.347 -14.346 -14.342
-14.326 -14.326 -10.268 -10.266 -10.256 -10.254 -10.249 -10.248
-10.246 -10.245 -10.241 -10.240 -10.240 -10.237 -10.236 -10.236
-10.236 -10.235 -10.234 -10.232 -10.232 -10.231 -10.230 -10.227
-10.226 -10.225 -10.224 -10.221 -10.218 -10.215 -10.214 -10.214
-10.213 -10.213 -10.211 -10.210 -10.208 -10.205 -10.202 -10.197
-10.184 -10.184 -10.184 -10.183 -10.182 -10.181 -10.179 -10.179
-10.177 -10.174 -10.173 -10.170  -8.048  -8.043  -7.999  -7.989
 -7.983  -7.980  -7.977  -7.963  -6.012  -6.009  -6.007  -6.006
 -6.003  -6.001  -5.963  -5.960  -5.956  -5.953  -5.949  -5.948
 -5.946  -5.944  -5.944  -5.941  -5.940  -5.939  -5.938  -5.936
 -5.933  -5.927  -5.924  -5.919  -1.059  -1.044  -0.975  -0.969
 -0.961  -0.960  -0.944  -0.939  -0.915  -0.910  -0.908  -0.903
 -0.848  -0.840  -0.839  -0.834  -0.820  -0.814  -0.811  -0.805
 -0.801  -0.800  -0.798  -0.794  -0.781  -0.779  -0.769  -0.766
 -0.752  -0.744  -0.742  -0.738  -0.722  -0.721  -0.710  -0.706
 -0.689  -0.688  -0.678  -0.672  -0.661  -0.660  -0.651  -0.649
 -0.641  -0.639  -0.628  -0.624  -0.614  -0.613  -0.603  -0.599
 -0.596  -0.593  -0.588  -0.583  -0.579  -0.578  -0.555  -0.554
 -0.547  -0.547  -0.545  -0.538  -0.528  -0.527  -0.520  -0.513
 -0.510  -0.506  -0.502  -0.500  -0.490  -0.489  -0.484  -0.482
 -0.475  -0.475  -0.467  -0.465  -0.454  -0.453  -0.452  -0.450
 -0.448  -0.440  -0.440  -0.438  -0.438  -0.437  -0.436  -0.433
 -0.429  -0.427  -0.424  -0.423  -0.420  -0.419  -0.417  -0.415
 -0.412  -0.410  -0.406  -0.403  -0.400  -0.399  -0.397  -0.396
 -0.394  -0.393  -0.392  -0.392  -0.390  -0.389  -0.388  -0.387
 -0.383  -0.371  -0.371  -0.368  -0.366  -0.362  -0.361  -0.356
 -0.353  -0.352  -0.350  -0.349  -0.346  -0.344  -0.342  -0.341
 -0.339  -0.338  -0.336  -0.334  -0.332  -0.328  -0.318  -0.317
 -0.315  -0.313  -0.308  -0.305  -0.304  -0.302  -0.302  -0.300
 -0.298  -0.298  -0.294  -0.291  -0.288  -0.287  -0.284  -0.282
 -0.275  -0.272  -0.267  -0.265  -0.257  -0.253  -0.251  -0.249
 -0.243  -0.240  -0.233  -0.233  -0.198  -0.191

          Ground-State Mulliken Net Atomic Charges

     Atom                 Charge (a.u.)
  ----------------------------------------
      1 C                     0.262492
      2 C                    -0.135760
      3 N                    -0.472908
      4 C                    -0.066667
      5 C                     0.090881
      6 C                     0.032609
      7 C                     0.012470
      8 C                     0.065212
      9 C                     0.248310
     10 N                    -0.551240
     11 N                    -0.514840
     12 C                     0.148450
     13 C                     0.316185
     14 S                     0.623101
     15 N                    -0.540671
     16 C                    -0.212444
     17 S                     0.343995
     18 C                    -0.118387
     19 C                    -0.237863
     20 S                     0.263662
     21 C                     0.151636
     22 C                     0.045190
     23 C                    -0.313028
     24 C                    -0.049813
     25 N                    -0.428747
     26 S                     0.279487
     27 C                     0.118486
     28 C                    -0.318536
     29 C                    -0.213475
     30 H                     0.106151
     31 H                     0.091647
     32 H                     0.112341
     33 H                     0.110376
     34 H                     0.129773
     35 H                     0.117810
     36 H                     0.114739
     37 H                     0.139424
     38 H                     0.113726
     39 C                    -0.182142
     40 H                     0.101200
     41 H                     0.110143
     42 H                     0.093182
     43 C                    -0.192280
     44 H                     0.092524
     45 C                    -0.181654
     46 H                     0.095779
     47 H                     0.090327
     48 H                     0.090802
     49 C                    -0.189521
     50 H                     0.093080
     51 C                    -0.312628
     52 H                     0.107008
     53 H                     0.103451
     54 H                     0.100895
     55 H                     0.093638
     56 C                     0.261464
     57 C                    -0.108591
     58 N                    -0.470407
     59 C                    -0.090924
     60 C                     0.080203
     61 C                     0.048556
     62 C                     0.014158
     63 C                     0.063653
     64 C                     0.252039
     65 N                    -0.530233
     66 N                    -0.555789
     67 C                     0.202975
     68 C                     0.309808
     69 S                     0.601554
     70 N                    -0.555295
     71 C                    -0.214449
     72 S                     0.340012
     73 C                    -0.105066
     74 C                    -0.184551
     75 S                     0.294340
     76 C                     0.117461
     77 C                     0.016791
     78 C                    -0.319578
     79 C                    -0.071259
     80 N                    -0.400544
     81 S                     0.293706
     82 C                     0.114082
     83 C                    -0.302617
     84 C                    -0.215867
     85 H                     0.093371
     86 H                     0.091291
     87 H                     0.107821
     88 H                     0.107467
     89 H                     0.120731
     90 H                     0.116624
     91 H                     0.121717
     92 H                     0.129177
     93 H                     0.113110
     94 C                    -0.175921
     95 H                     0.092491
     96 H                     0.122454
     97 H                     0.094279
     98 C                    -0.192675
     99 H                     0.090457
    100 C                    -0.179900
    101 H                     0.095768
    102 H                     0.092679
    103 H                     0.088319
    104 C                    -0.177669
    105 H                     0.095448
    106 C                    -0.308509
    107 H                     0.090696
    108 H                     0.103199
    109 H                     0.095053
    110 H                     0.109312
  ----------------------------------------
  Sum of atomic charges =     0.000000

                    Cartesian Multipole Moments
 -----------------------------------------------------------------
    Charge (ESU x 10^10)
                 0.0000
    Dipole Moment (Debye)
         X      -2.0346      Y       1.1671      Z       3.0881
       Tot       3.8778
    Quadrupole Moments (Debye-Ang)
        XX    -405.9961     XY      -6.6130     YY    -422.7048
        XZ      -4.3775     YZ      -8.9987     ZZ    -437.5862

 Total job time:  84.43s(wall), 1004.21s(cpu)
        *  Thank you very much for using Q-Chem.  Have a nice day.  *
