 Q-Chem 4.4, Q-Chem, Inc., Pleasanton, CA (2016)
 Q-Chem 4.4.2 for Intel X86 Linux

User input:
--------------------------------------------------------------
$comment
SP
$end

$rem
MEM_STATIC 5000
MEM_TOTAL 20000
JOBTYPE SP
EXCHANGE B3LYP
BASIS 6-31g(d,p)
$end

$molecule
0 1
C         -17.575000     14.775000      3.404000
C         -17.769000     14.458000      2.080000
N         -16.428000     15.410000      3.829000
C         -16.657000     14.619000      1.237000
C         -15.438000     15.692000      2.948000
C         -15.510000     15.346000      1.593000
C         -14.302000     15.521000      0.732000
C         -13.036000     15.823000      1.250000
C         -14.316000     15.563000     -0.666000
N         -11.857000     16.034000      0.583000
N         -15.408000     15.399000     -1.462000
C         -13.192000     15.817000     -1.401000
C         -11.911000     16.066000     -0.745000
S         -14.992000     15.694000     -3.008000
N         -13.409000     15.912000     -2.761000
C         -10.672000     16.400000     -1.500000
S         -10.619000     17.180000     -3.129000
C          -9.426000     16.511000     -0.896000
C          -8.873000     17.478000     -2.954000
S          -8.796000     15.823000      0.555000
C          -8.416000     17.083000     -1.749000
C          -8.048000     18.125000     -3.945000
C          -7.244000     16.529000      0.112000
C          -7.154000     17.021000     -1.178000
N          -6.721000     17.973000     -3.867000
S          -8.793000     18.986000     -5.215000
C          -6.202000     18.571000     -4.996000
C          -7.149000     19.052000     -5.816000
C         -18.603000     14.526000      4.456000
H         -18.682000     13.964000      1.763000
H         -16.624000     14.116000      0.276000
H         -14.600000     16.210000      3.412000
H         -12.903000     15.762000      2.329000
H          -6.458000     16.435000      0.849000
H          -6.243000     17.453000     -1.578000
H          -5.142000     18.456000     -5.183000
H          -7.011000     19.631000     -6.719000
H         -18.872000     15.521000      4.831000
C         -18.113000     13.632000      5.613000
H         -19.466000     14.073000      3.951000
H         -17.175000     14.081000      5.963000
H         -17.994000     12.592000      5.285000
C         -19.086000     13.770000      6.732000
H         -19.249000     14.812000      7.033000
C         -18.563000     12.762000      7.826000
H         -20.099000     13.562000      6.364000
H         -17.563000     13.129000      8.084000
H         -18.410000     11.730000      7.488000
C         -19.495000     12.767000      9.099000
H         -19.147000     12.046000      9.850000
C         -20.967000     12.703000      8.886000
H         -19.396000     13.756000      9.563000
H         -21.505000     12.585000      9.835000
H         -21.115000     11.743000      8.378000
H         -21.479000     13.464000      8.284000
C          -4.061000      1.689000      2.529000
C          -3.052000      2.240000      1.718000
N          -5.325000      2.206000      2.604000
C          -3.233000      3.490000      1.073000
C          -5.585000      3.309000      1.858000
C          -4.581000      4.068000      1.112000
C          -4.943000      5.432000      0.574000
C          -6.279000      5.853000      0.578000
C          -4.008000      6.513000      0.212000
N          -6.715000      7.029000      0.201000
N          -2.674000      6.386000      0.109000
C          -4.472000      7.760000     -0.133000
C          -5.819000      8.017000     -0.116000
S          -2.140000      7.821000     -0.323000
N          -3.487000      8.682000     -0.410000
C          -6.483000      9.243000     -0.717000
S          -8.078000      9.072000     -1.492000
C          -6.213000     10.540000     -0.442000
C          -8.319000     10.861000     -1.496000
S          -5.062000     11.193000      0.603000
C          -7.213000     11.389000     -0.854000
C          -9.535000     11.520000     -1.887000
C          -5.764000     12.743000      0.374000
C          -6.961000     12.702000     -0.309000
N         -10.570000     10.756000     -2.349000
S          -9.838000     13.267000     -1.798000
C         -11.637000     11.574000     -2.709000
C         -11.398000     12.929000     -2.616000
C          -3.734000      0.409000      3.312000
H          -2.022000      1.903000      1.652000
H          -2.358000      3.931000      0.605000
H          -6.603000      3.670000      1.990000
H          -7.093000      5.198000      0.886000
H          -5.338000     13.626000      0.832000
H          -7.569000     13.596000     -0.392000
H         -12.514000     11.137000     -3.168000
H         -11.993000     13.719000     -3.056000
H          -2.751000      0.549000      3.777000
C          -3.749000     -0.835000      2.416000
H          -4.466000      0.353000      4.127000
H          -2.830000     -0.901000      1.821000
H          -4.538000     -0.795000      1.654000
C          -3.780000     -2.177000      3.174000
H          -3.275000     -2.001000      4.132000
C          -3.134000     -3.375000      2.411000
H          -4.780000     -2.506000      3.483000
H          -3.268000     -3.374000      1.322000
H          -3.750000     -4.195000      2.801000
C          -1.748000     -3.646000      2.820000
H          -1.142000     -2.845000      2.379000
C          -1.224000     -4.938000      2.258000
H          -1.825000     -3.681000      3.913000
H          -0.249000     -5.203000      2.685000
H          -1.174000     -4.915000      1.163000
H          -1.900000     -5.738000      2.586000
$end

--------------------------------------------------------------

             Standard Nuclear Orientation (Angstroms)
    I     Atom           X                Y                Z
 ----------------------------------------------------------------
    1      C      -7.5610394300    -5.8069573848    -0.2187926807
    2      C      -7.5038691726    -5.2051756982    -1.4539814773
    3      N      -7.3659227482    -5.0866088901     0.9398645278
    4      C      -7.0278092660    -3.8838112742    -1.4758223659
    5      C      -7.0616818949    -3.7676526191     0.8800576845
    6      C      -6.9109387331    -3.0802644120    -0.3306028591
    7      C      -6.3904371350    -1.6802759330    -0.3127046735
    8      C      -5.8514713136    -1.0837600211     0.8344520771
    9      C      -6.5198596609    -0.7657822132    -1.3630927190
   10      N      -5.3649373908     0.1871290839     1.0005141878
   11      N      -7.0841203995    -1.0136827447    -2.5768188601
   12      C      -6.1046836280     0.5321498826    -1.2576501448
   13      C      -5.5056221889     1.0266227443    -0.0207508032
   14      S      -7.1716150546     0.3762487641    -3.4198088282
   15      N      -6.3944682051     1.3149859266    -2.3571530448
   16      C      -5.0879233641     2.4441805480     0.1602452323
   17      S      -5.7852037438     3.8597515627    -0.7199869953
   18      C      -4.4019272314     2.8923345551     1.2819494231
   19      C      -4.9803756995     4.9823597078     0.4024869561
   20      S      -3.3854732970     2.0653165640     2.4037816930
   21      C      -4.3171494406     4.3272049379     1.3760382681
   22      C      -5.0739875493     6.4202725679     0.3320708484
   23      C      -3.0619707697     3.6355709661     3.1338749935
   24      C      -3.4847199270     4.7345475715     2.4073782139
   25      N      -4.1615777704     7.1507734959     0.9832189033
   26      S      -6.2862169176     7.1291921164    -0.6360092270
   27      C      -4.4055439377     8.4628349307     0.6359707202
   28      C      -5.4038225873     8.5926247925    -0.2512520981
   29      C      -7.9036013930    -7.2470937805    -0.0340023588
   30      H      -7.6670530563    -5.7875722860    -2.3552468292
   31      H      -6.6641256837    -3.4505666103    -2.4019175625
   32      H      -6.9529851085    -3.3182011115     1.8659797661
   33      H      -5.6562896100    -1.7237636124     1.6934925335
   34      H      -2.4751694156     3.6189931494     4.0422748762
   35      H      -3.3177125988     5.7543120505     2.7371265416
   36      H      -3.6974561761     9.2105770810     0.9695683800
   37      H      -5.8438879182     9.5077949142    -0.6234081848
   38      H      -8.8389721432    -7.2450165701     0.5387875196
   39      C      -6.8228373107    -8.0589081992     0.7082181933
   40      H      -8.0818925847    -7.6586978920    -1.0358992130
   41      H      -6.6066315064    -7.5008080516     1.6278508783
   42      H      -5.9371431399    -8.2057403013     0.0778760881
   43      C      -7.4396611370    -9.3455413765     1.1348766451
   44      H      -8.3546915961    -9.2083838196     1.7238087833
   45      C      -6.2516911121   -10.1432245055     1.7973401126
   46      H      -7.8950535300    -9.8388890905     0.2664972341
   47      H      -5.9386443269    -9.5203563151     2.6430882592
   48      H      -5.3529281116   -10.2585892355     1.1796079312
   49      C      -6.7277414144   -11.5591884172     2.3048835201
   50      H      -5.8954241958   -12.1259404395     2.7419031913
   51      C      -7.5608254914   -12.3848758952     1.3881174053
   52      H      -7.4349268534   -11.3830576247     3.1246912407
   53      H      -7.7250940064   -13.3915832424     1.7924998631
   54      H      -6.9086959828   -12.5515526465     0.5229503898
   55      H      -8.5130373090   -12.0023192904     1.0000296594
   56      C      10.8987070582    -2.1131311737     0.2614411314
   57      C      11.0023943379    -0.7148968920     0.3780294726
   58      N       9.7398254687    -2.7499646426    -0.0879105457
   59      C       9.8504258699     0.1107843679     0.3279784417
   60      C       8.6529200924    -1.9706239446    -0.3159232197
   61      C       8.5905577973    -0.5306683093    -0.0644242883
   62      C       7.2465400175     0.1581701757    -0.0745113755
   63      C       6.1177549715    -0.5186500798    -0.5540024201
   64      C       6.9085766284     1.4401093935     0.5706572764
   65      N       4.8910847977    -0.0598854941    -0.5580446551
   66      N       7.7937250790     2.3028038471     1.0984493757
   67      C       5.6102777709     1.8900217846     0.6071115884
   68      C       4.6075888997     1.1291643490     0.0626320291
   69      S       6.9295727045     3.5229660887     1.6420022964
   70      N       5.4349957363     3.0821896886     1.2742321899
   71      C       3.1917945243     1.6088664411    -0.2030467041
   72      S       2.3367716735     1.0242718732    -1.6525556264
   73      C       2.3264860723     2.1451581927     0.6882256673
   74      C       0.7562071403     1.6219280733    -1.0175431675
   75      S       2.5482591922     2.4738546883     2.3271308803
   76      C       1.0266094891     2.1308097510     0.2402747875
   77      C      -0.5175081234     1.3769991853    -1.6367985808
   78      C       0.8728537206     2.8238839314     2.4621902548
   79      C       0.1546666506     2.4873920935     1.3343784020
   80      N      -0.5449832825     0.6979431222    -2.8227551478
   81      S      -2.0952020644     1.8573617554    -0.9796284127
   82      C      -1.8563511353     0.5942865333    -3.2774887691
   83      C      -2.7979931984     1.2530389792    -2.5151565317
   84      C      12.1698200837    -2.9478517731     0.4757567804
   85      H      11.8786939249    -0.1575292647     0.6946765347
   86      H       9.9846435726     1.1554607872     0.5921124746
   87      H       7.7685612289    -2.5530774211    -0.5663755069
   88      H       6.1816139753    -1.5103589784    -1.0000074514
   89      H       0.4440117812     3.1676902722     3.3942958235
   90      H      -0.9288033024     2.5282021061     1.3490890780
   91      H      -2.0529108449     0.1506596663    -4.2446177591
   92      H      -3.8125074114     1.4899311188    -2.8090409066
   93      H      12.6681664270    -2.5648991180     1.3741510068
   94      C      13.1046413853    -2.8972864480    -0.7383804778
   95      H      11.8325323928    -3.9652757076     0.7087171873
   96      H      13.6643981850    -1.9544271421    -0.7634933160
   97      H      12.5578973746    -2.8890112655    -1.6900986651
   98      C      14.2121342895    -3.9696134364    -0.7463364190
   99      H      14.4294622432    -4.1952846481     0.3051416192
  100      C      15.5095146756    -3.5652552326    -1.5131398988
  101      H      13.9039912544    -4.9439709402    -1.1455823641
  102      H      15.3613333449    -2.9445107284    -2.4056624777
  103      H      15.8282829118    -4.5531000926    -1.8688157964
  104      C      16.5731642689    -3.0614579617    -0.6319158339
  105      H      16.2605585022    -2.0548816567    -0.3279425179
  106      C      17.8864433549    -2.9043169428    -1.3462608083
  107      H      16.6240385943    -3.8333198672     0.1449007480
  108      H      18.7031463547    -2.6712732543    -0.6520952306
  109      H      17.8291075477    -2.1533650027    -2.1430278940
  110      H      18.1497527911    -3.8818114638    -1.7702096286
 ----------------------------------------------------------------

   10   -5663.4887228538      3.95E-06 Convergence criterion met
 Total energy in the final basis set = -5663.4887228538

                    Orbital Energies (a.u.)
 --------------------------------------------------------------

 Alpha MOs
 -- Occupied --
-88.998 -88.993 -88.934 -88.930 -88.916 -88.916 -88.911 -88.903
-14.390 -14.387 -14.382 -14.379 -14.356 -14.347 -14.342 -14.335
-14.332 -14.326 -10.271 -10.270 -10.261 -10.259 -10.259 -10.255
-10.255 -10.251 -10.247 -10.241 -10.239 -10.235 -10.234 -10.232
-10.231 -10.231 -10.231 -10.231 -10.230 -10.230 -10.228 -10.228
-10.228 -10.228 -10.225 -10.219 -10.218 -10.217 -10.216 -10.215
-10.215 -10.209 -10.207 -10.201 -10.199 -10.198 -10.197 -10.193
-10.186 -10.182 -10.181 -10.180 -10.177 -10.174 -10.174 -10.173
-10.172 -10.171 -10.170 -10.166  -8.053  -8.049  -7.997  -7.988
 -7.976  -7.976  -7.969  -7.966  -6.018  -6.014  -6.012  -6.011
 -6.008  -6.007  -5.960  -5.958  -5.954  -5.952  -5.949  -5.944
 -5.941  -5.940  -5.937  -5.936  -5.933  -5.932  -5.932  -5.930
 -5.930  -5.926  -5.926  -5.922  -1.053  -1.040  -0.978  -0.962
 -0.958  -0.938  -0.931  -0.929  -0.915  -0.915  -0.908  -0.897
 -0.849  -0.841  -0.839  -0.824  -0.819  -0.814  -0.813  -0.809
 -0.808  -0.799  -0.791  -0.788  -0.787  -0.780  -0.771  -0.767
 -0.755  -0.749  -0.743  -0.736  -0.725  -0.718  -0.714  -0.709
 -0.696  -0.688  -0.676  -0.674  -0.655  -0.652  -0.652  -0.645
 -0.636  -0.632  -0.625  -0.617  -0.611  -0.608  -0.597  -0.597
 -0.595  -0.588  -0.585  -0.584  -0.580  -0.572  -0.565  -0.565
 -0.557  -0.542  -0.540  -0.533  -0.529  -0.524  -0.517  -0.510
 -0.507  -0.502  -0.498  -0.494  -0.489  -0.479  -0.478  -0.477
 -0.475  -0.473  -0.470  -0.469  -0.463  -0.462  -0.452  -0.449
 -0.445  -0.444  -0.442  -0.436  -0.434  -0.431  -0.430  -0.429
 -0.425  -0.423  -0.422  -0.419  -0.418  -0.418  -0.415  -0.412
 -0.410  -0.409  -0.404  -0.402  -0.401  -0.400  -0.395  -0.395
 -0.394  -0.393  -0.393  -0.391  -0.389  -0.387  -0.386  -0.384
 -0.382  -0.373  -0.373  -0.365  -0.365  -0.362  -0.361  -0.355
 -0.354  -0.353  -0.351  -0.349  -0.349  -0.347  -0.344  -0.342
 -0.337  -0.336  -0.336  -0.335  -0.333  -0.328  -0.325  -0.317
 -0.317  -0.308  -0.306  -0.305  -0.303  -0.303  -0.302  -0.300
 -0.298  -0.295  -0.295  -0.291  -0.284  -0.283  -0.280  -0.274
 -0.273  -0.271  -0.270  -0.267  -0.257  -0.257  -0.249  -0.248
 -0.244  -0.237  -0.235  -0.224  -0.199  -0.184

          Ground-State Mulliken Net Atomic Charges

     Atom                 Charge (a.u.)
  ----------------------------------------
      1 C                     0.269947
      2 C                    -0.118551
      3 N                    -0.495894
      4 C                    -0.079965
      5 C                     0.062786
      6 C                     0.065840
      7 C                     0.081880
      8 C                     0.031441
      9 C                     0.232988
     10 N                    -0.528230
     11 N                    -0.572915
     12 C                     0.198328
     13 C                     0.318640
     14 S                     0.616611
     15 N                    -0.573547
     16 C                    -0.250590
     17 S                     0.308042
     18 C                    -0.100928
     19 C                    -0.246054
     20 S                     0.292457
     21 C                     0.176337
     22 C                     0.076930
     23 C                    -0.320030
     24 C                    -0.039150
     25 N                    -0.446143
     26 S                     0.283576
     27 C                     0.135081
     28 C                    -0.305317
     29 C                    -0.231259
     30 H                     0.093924
     31 H                     0.115928
     32 H                     0.104522
     33 H                     0.110623
     34 H                     0.124217
     35 H                     0.132995
     36 H                     0.120080
     37 H                     0.121960
     38 H                     0.119008
     39 C                    -0.166925
     40 H                     0.088917
     41 H                     0.126393
     42 H                     0.096602
     43 C                    -0.174071
     44 H                     0.096287
     45 C                    -0.183829
     46 H                     0.089551
     47 H                     0.099311
     48 H                     0.093606
     49 C                    -0.180182
     50 H                     0.087868
     51 C                    -0.310476
     52 H                     0.090331
     53 H                     0.098619
     54 H                     0.094030
     55 H                     0.104484
     56 C                     0.246547
     57 C                    -0.102769
     58 N                    -0.479607
     59 C                    -0.083545
     60 C                     0.079922
     61 C                     0.018369
     62 C                     0.070208
     63 C                     0.057815
     64 C                     0.219952
     65 N                    -0.499441
     66 N                    -0.541237
     67 C                     0.219697
     68 C                     0.210211
     69 S                     0.619021
     70 N                    -0.528644
     71 C                    -0.232527
     72 S                     0.342888
     73 C                    -0.095887
     74 C                    -0.216491
     75 S                     0.274939
     76 C                     0.129694
     77 C                     0.033512
     78 C                    -0.301905
     79 C                    -0.079023
     80 N                    -0.444458
     81 S                     0.301270
     82 C                     0.126271
     83 C                    -0.336383
     84 C                    -0.228881
     85 H                     0.090346
     86 H                     0.129118
     87 H                     0.106607
     88 H                     0.110700
     89 H                     0.118697
     90 H                     0.115567
     91 H                     0.110922
     92 H                     0.142916
     93 H                     0.103570
     94 C                    -0.168079
     95 H                     0.118011
     96 H                     0.094493
     97 H                     0.107856
     98 C                    -0.190308
     99 H                     0.090206
    100 C                    -0.174981
    101 H                     0.095167
    102 H                     0.087723
    103 H                     0.084677
    104 C                    -0.157281
    105 H                     0.089968
    106 C                    -0.312647
    107 H                     0.093181
    108 H                     0.098445
    109 H                     0.101442
    110 H                     0.098085
  ----------------------------------------
  Sum of atomic charges =     0.000000

                    Cartesian Multipole Moments
 -----------------------------------------------------------------
    Charge (ESU x 10^10)
                 0.0000
    Dipole Moment (Debye)
         X      -1.4875      Y       3.9231      Z       0.3350
       Tot       4.2090
    Quadrupole Moments (Debye-Ang)
        XX    -390.9067     XY      -2.7487     YY    -409.1638
        XZ      30.6399     YZ      12.1431     ZZ    -436.0604

 Total job time:  91.18s(wall), 1076.78s(cpu)
        *  Thank you very much for using Q-Chem.  Have a nice day.  *
