 Q-Chem 4.4, Q-Chem, Inc., Pleasanton, CA (2016)
 Q-Chem 4.4.2 for Intel X86 Linux

User input:
--------------------------------------------------------------
$comment
SP
$end

$rem
MEM_STATIC 5000
MEM_TOTAL 20000
JOBTYPE SP
EXCHANGE B3LYP
BASIS 6-31g(d,p)
$end

$molecule
0 1
C          10.731000    -16.110000     -9.583000
C          11.285000    -17.075000     -8.832000
N           9.403000    -15.812000     -9.464000
C          10.567000    -17.860000     -7.862000
C           8.674000    -16.475000     -8.544000
C           9.188000    -17.516000     -7.737000
C           8.357000    -18.457000     -6.922000
C           8.674000    -19.784000     -6.629000
C           7.155000    -18.013000     -6.240000
N           8.001000    -20.588000     -5.728000
N           6.661000    -16.810000     -6.325000
C           6.381000    -18.842000     -5.432000
C           6.850000    -20.158000     -5.181000
S           5.170000    -16.840000     -5.702000
N           5.221000    -18.317000     -4.938000
C           6.243000    -21.158000     -4.344000
S           7.265000    -22.441000     -3.565000
C           4.901000    -21.474000     -4.194000
C           5.837000    -23.204000     -2.842000
S           3.468000    -20.681000     -4.766000
C           4.703000    -22.610000     -3.361000
C           5.880000    -24.118000     -1.803000
C           2.592000    -21.835000     -3.731000
C           3.346000    -22.703000     -2.956000
N           4.909000    -25.084000     -1.731000
S           7.381000    -24.515000     -0.971000
C           5.273000    -25.989000     -0.712000
C           6.539000    -25.793000     -0.217000
C          11.400000    -15.347000    -10.685000
H          12.326000    -17.299000     -9.049000
H          11.154000    -18.601000     -7.327000
H           7.627000    -16.175000     -8.566000
H           9.603000    -20.162000     -7.052000
H           1.513000    -21.826000     -3.806000
H           3.001000    -23.372000     -2.176000
H           4.587000    -26.781000     -0.442000
H           7.079000    -26.436000      0.465000
H          11.675000    -16.048000    -11.482000
C          12.674000    -14.499000    -10.337000
H          10.704000    -14.700000    -11.232000
H          12.559000    -13.831000     -9.474000
H          12.786000    -13.881000    -11.236000
C          14.044000    -15.228000    -10.077000
H          14.020000    -15.759000     -9.118000
C          15.301000    -14.327000    -10.192000
H          14.211000    -15.994000    -10.845000
H          16.212000    -14.879000     -9.929000
H          15.171000    -13.523000     -9.458000
C          15.559000    -13.590000    -11.559000
H          15.888000    -14.339000    -12.290000
C          16.626000    -12.541000    -11.437000
H          14.589000    -13.167000    -11.847000
H          17.584000    -13.061000    -11.312000
H          16.585000    -11.962000    -10.506000
H          16.700000    -11.774000    -12.217000
C           6.527000    -14.380000    -17.137000
C           7.072000    -13.490000    -16.233000
N           5.626000    -15.269000    -16.743000
C           6.764000    -13.669000    -14.809000
C           5.252000    -15.370000    -15.427000
C           5.783000    -14.574000    -14.413000
C           5.356000    -14.531000    -12.949000
C           6.175000    -14.172000    -11.897000
C           3.978000    -14.717000    -12.537000
N           5.743000    -14.012000    -10.591000
N           3.021000    -14.936000    -13.450000
C           3.553000    -14.575000    -11.234000
C           4.457000    -14.254000    -10.245000
S           1.613000    -14.953000    -12.577000
N           2.257000    -14.783000    -11.043000
C           4.099000    -14.071000     -8.819000
S           2.409000    -14.262000     -8.155000
C           4.893000    -13.502000     -7.823000
C           2.988000    -13.965000     -6.566000
S           6.581000    -13.084000     -7.816000
C           4.219000    -13.476000     -6.590000
C           2.261000    -14.206000     -5.296000
C           6.287000    -12.507000     -6.104000
C           5.023000    -12.918000     -5.572000
N           1.083000    -14.636000     -5.409000
S           2.982000    -14.461000     -3.679000
C           0.509000    -15.014000     -4.136000
C           1.390000    -14.910000     -3.085000
C           6.617000    -14.326000    -18.644000
H           7.864000    -12.800000    -16.509000
H           7.306000    -13.086000    -14.071000
H           4.628000    -16.222000    -15.162000
H           7.228000    -13.943000    -12.049000
H           7.050000    -11.924000     -5.605000
H           4.597000    -12.871000     -4.577000
H          -0.527000    -15.310000     -4.041000
H           1.229000    -15.106000     -2.033000
H           5.675000    -13.973000    -19.083000
C           7.018000    -15.642000    -19.417000
H           7.355000    -13.589000    -18.984000
H           6.252000    -16.422000    -19.321000
H           7.897000    -16.017000    -18.880000
C           7.460000    -15.443000    -20.861000
H           6.559000    -15.104000    -21.385000
C           7.880000    -16.804000    -21.481000
H           8.256000    -14.689000    -20.897000
H           7.311000    -17.643000    -21.061000
H           8.912000    -17.114000    -21.272000
C           7.796000    -16.786000    -22.990000
H           8.210000    -17.694000    -23.446000
C           8.444000    -15.561000    -23.724000
H           6.763000    -16.978000    -23.306000
H           7.734000    -14.725000    -23.705000
H           8.762000    -15.861000    -24.730000
H           9.424000    -15.329000    -23.289000
$end

--------------------------------------------------------------

             Standard Nuclear Orientation (Angstroms)
    I     Atom           X                Y                Z
 ----------------------------------------------------------------
    1      C       1.7667929630    -3.7777636004     1.6962729130
    2      C       0.7849642637    -4.6447226271     1.4021021272
    3      N       1.5616075952    -2.4313957406     1.5879144763
    4      C      -0.5313724671    -4.2604271840     0.9636689812
    5      C       0.3393304754    -1.9932263232     1.2253455805
    6      C      -0.7311639654    -2.8501799447     0.8806745160
    7      C      -1.9941594241    -2.4134923200     0.2065726024
    8      C      -2.7603254269    -3.1813961403    -0.6712544756
    9      C      -2.6182879209    -1.1396632995     0.5146103370
   10      N      -4.0155610584    -2.8451538473    -1.1429223989
   11      N      -2.1196210676    -0.2521616483     1.3283315353
   12      C      -3.8182529302    -0.7167232216    -0.0514167534
   13      C      -4.5166525960    -1.6225073687    -0.8920183152
   14      S      -2.9396036924     1.1255109445     1.1239869194
   15      N      -4.2336402210     0.5484343808     0.2520476428
   16      C      -5.7862087563    -1.4164586645    -1.5360595308
   17      S      -6.8477184583    -2.8337842809    -1.9383023051
   18      C      -6.2798832422    -0.2739199874    -2.1477873080
   19      C      -8.0547565145    -1.7747171860    -2.6903116265
   20      S      -5.6786435758     1.3528499376    -2.1884379476
   21      C      -7.5339593514    -0.4984839977    -2.7806009598
   22      C      -9.3581886271    -2.1487122908    -2.9695219229
   23      C      -7.2349768621     1.7541032010    -2.9546882464
   24      C      -8.1635311348     0.7339684129    -3.0949628933
   25      N      -9.9932598243    -1.5817379540    -4.0448849666
   26      S     -10.0129105865    -3.7022561802    -2.4589589596
   27      C     -11.2207909811    -2.2526845169    -4.2262133117
   28      C     -11.3652839725    -3.3734876636    -3.4457524979
   29      C       3.1832127519    -4.1225310556     2.0412720199
   30      H       1.0600981799    -5.6953841672     1.4389485157
   31      H      -1.2208264121    -5.0768874222     0.7689359922
   32      H       0.3081635955    -0.9075316576     1.1417470229
   33      H      -2.3853903034    -4.1793386919    -0.8912279214
   34      H      -7.3468363796     2.7676667040    -3.3154145607
   35      H      -9.1986291475     0.8122594306    -3.4070984738
   36      H     -11.9108556201    -1.8931547452    -4.9780837377
   37      H     -12.1524279929    -4.1130078450    -3.5064747529
   38      H       3.6448480247    -4.6184110707     1.1791636245
   39      C       3.4455659885    -5.0192197199     3.3023843141
   40      H       3.8253517446    -3.2371122789     2.1182467171
   41      H       2.9382813997    -4.6854057841     4.2164130895
   42      H       4.5258341380    -4.8961943612     3.4457526722
   43      C       3.1386554192    -6.5610601072     3.2354879586
   44      H       2.0564282485    -6.7363887478     3.2192947904
   45      C       3.8330505481    -7.4180905228     4.3256206440
   46      H       3.5288166661    -6.9791351753     2.2987615103
   47      H       3.5203559795    -8.4680617849     4.2658171699
   48      H       3.4954442019    -7.0208587356     5.2901416973
   49      C       5.4051697768    -7.3845821271     4.4013855311
   50      H       5.7969135277    -7.9486402757     3.5458282633
   51      C       5.9185364271    -8.0142193530     5.6638377663
   52      H       5.6758555000    -6.3246393351     4.3237742116
   53      H       5.7502419025    -9.0953711863     5.5827411181
   54      H       5.3256993853    -7.7817812897     6.5572580417
   55      H       6.9490600403    -7.8043786790     5.9739231965
   56      C       8.5158995476     0.8484780868    -1.5865429762
   57      C       8.1771622519     0.6426242003    -0.2639613258
   58      N       7.6381329673     1.3736021522    -2.4298273568
   59      C       6.7807105744     0.8521116461     0.1369360706
   60      C       6.3596018293     1.6735368008    -2.0331784748
   61      C       5.8808957088     1.4464220837    -0.7435923568
   62      C       4.5221347195     1.8451263830    -0.1758974955
   63      C       3.8742943917     1.1939759260     0.8549526351
   64      C       3.8436200088     3.0643451190    -0.5713054635
   65      N       2.7047472749     1.6403559565     1.4472063054
   66      N       4.4031912945     3.8924830173    -1.4648638542
   67      C       2.6703521727     3.4978588024     0.0067139748
   68      C       2.0770319435     2.7544612577     1.0035636105
   69      S       3.3799307508     5.1943520053    -1.5192421366
   70      N       2.1933884127     4.6350069145    -0.4819175253
   71      C       0.8227447132     3.1384057736     1.6923880820
   72      S      -0.1352123326     4.6450324952     1.3104571723
   73      C       0.3089914101     2.5853361423     2.8655822375
   74      C      -1.3282938240     4.1907037321     2.4587223550
   75      S       0.7642141145     1.1533276600     3.7409341645
   76      C      -0.8928439490     3.2116726511     3.2377856059
   77      C      -2.6844731398     4.7720409800     2.6081702307
   78      C      -0.5682438902     1.6132513814     4.9085534673
   79      C      -1.4291424065     2.6451259604     4.4148636882
   80      N      -2.9640323067     5.7237909571     1.8326886684
   81      S      -4.1108847486     3.9898245441     3.3518384159
   82      C      -4.3546864425     6.1136134840     1.9164052851
   83      C      -5.0985055953     5.3145116728     2.7529143187
   84      C       9.8968225182     0.7997754210    -2.1970712715
   85      H       8.8475587036     0.1480000123     0.4327850485
   86      H       6.4601494953     0.5425826634     1.1267488830
   87      H       5.6592184968     1.9539455591    -2.8182511566
   88      H       4.2842470560     0.2911734007     1.3035509112
   89      H      -0.6384429401     1.0995531144     5.8584193440
   90      H      -2.3680994799     3.0494274247     4.7734859689
   91      H      -4.7391754498     6.9774979967     1.3912303124
   92      H      -6.1457441245     5.3845238306     3.0164114929
   93      H      10.2773376436     1.8104763063    -2.3929946235
   94      C      10.0994631307    -0.0312015164    -3.5231934799
   95      H      10.6349071831     0.3729547729    -1.5068045391
   96      H       9.5559812180     0.4093137296    -4.3687381142
   97      H       9.6116981227    -0.9917870321    -3.3207193729
   98      C      11.5448205664    -0.3587930200    -3.8749415290
   99      H      12.0021237564     0.6095358192    -4.1084175485
  100      C      11.5953830022    -1.2250920777    -5.1633864764
  101      H      12.0289609530    -0.8372046552    -3.0146169430
  102      H      10.7716458128    -0.9932511710    -5.8502553407
  103      H      11.4531573718    -2.3023216393    -5.0079730222
  104      C      12.9335045710    -1.1236683402    -5.8588035403
  105      H      13.0276173671    -1.8263477771    -6.6961686879
  106      C      14.2129316585    -1.2898344328    -4.9673215397
  107      H      12.9595711172    -0.2214161603    -6.4825587319
  108      H      14.4278797885    -0.3308274854    -4.4800228876
  109      H      15.0369123275    -1.6822115150    -5.5758082548
  110      H      14.0886944226    -2.1296864789    -4.2725822722
 ----------------------------------------------------------------

    9   -5663.4805970809      9.30E-06 Convergence criterion met
 Total energy in the final basis set = -5663.4805970809

                    Orbital Energies (a.u.)
 --------------------------------------------------------------

 Alpha MOs
 -- Occupied --
-88.984 -88.981 -88.925 -88.923 -88.921 -88.915 -88.915 -88.909
-14.387 -14.385 -14.384 -14.374 -14.349 -14.346 -14.345 -14.344
-14.325 -14.323 -10.271 -10.262 -10.259 -10.256 -10.254 -10.252
-10.249 -10.248 -10.242 -10.238 -10.238 -10.237 -10.237 -10.236
-10.236 -10.233 -10.230 -10.229 -10.229 -10.228 -10.227 -10.226
-10.226 -10.224 -10.223 -10.223 -10.222 -10.222 -10.221 -10.220
-10.217 -10.216 -10.208 -10.204 -10.203 -10.200 -10.195 -10.194
-10.189 -10.188 -10.185 -10.183 -10.182 -10.182 -10.177 -10.174
-10.174 -10.173 -10.173 -10.173  -8.040  -8.037  -7.986  -7.985
 -7.980  -7.974  -7.974  -7.970  -6.005  -6.002  -5.999  -5.997
 -5.996  -5.994  -5.950  -5.949  -5.947  -5.946  -5.944  -5.943
 -5.942  -5.940  -5.939  -5.938  -5.936  -5.935  -5.935  -5.934
 -5.931  -5.930  -5.930  -5.926  -1.040  -1.036  -0.974  -0.952
 -0.949  -0.949  -0.936  -0.933  -0.915  -0.907  -0.907  -0.901
 -0.839  -0.838  -0.829  -0.827  -0.807  -0.806  -0.804  -0.804
 -0.802  -0.801  -0.794  -0.793  -0.786  -0.776  -0.766  -0.764
 -0.748  -0.747  -0.743  -0.743  -0.719  -0.715  -0.713  -0.706
 -0.694  -0.693  -0.674  -0.670  -0.657  -0.656  -0.645  -0.643
 -0.639  -0.637  -0.628  -0.624  -0.613  -0.610  -0.602  -0.596
 -0.595  -0.586  -0.585  -0.584  -0.576  -0.574  -0.562  -0.560
 -0.550  -0.545  -0.540  -0.537  -0.521  -0.518  -0.514  -0.510
 -0.509  -0.507  -0.498  -0.495  -0.485  -0.480  -0.477  -0.473
 -0.472  -0.469  -0.468  -0.466  -0.464  -0.464  -0.452  -0.447
 -0.443  -0.440  -0.438  -0.436  -0.432  -0.431  -0.430  -0.429
 -0.425  -0.424  -0.420  -0.420  -0.416  -0.416  -0.415  -0.412
 -0.410  -0.409  -0.404  -0.403  -0.401  -0.395  -0.394  -0.393
 -0.391  -0.390  -0.390  -0.388  -0.388  -0.386  -0.382  -0.381
 -0.379  -0.377  -0.373  -0.369  -0.365  -0.365  -0.361  -0.359
 -0.358  -0.356  -0.350  -0.348  -0.346  -0.344  -0.340  -0.338
 -0.337  -0.331  -0.329  -0.328  -0.324  -0.323  -0.318  -0.317
 -0.313  -0.313  -0.308  -0.306  -0.305  -0.303  -0.300  -0.300
 -0.294  -0.292  -0.290  -0.287  -0.283  -0.281  -0.278  -0.277
 -0.274  -0.273  -0.267  -0.262  -0.257  -0.251  -0.250  -0.248
 -0.244  -0.240  -0.233  -0.229  -0.199  -0.187

          Ground-State Mulliken Net Atomic Charges

     Atom                 Charge (a.u.)
  ----------------------------------------
      1 C                     0.289546
      2 C                    -0.120141
      3 N                    -0.493348
      4 C                    -0.086190
      5 C                     0.094079
      6 C                     0.025105
      7 C                     0.074659
      8 C                     0.041375
      9 C                     0.234465
     10 N                    -0.526737
     11 N                    -0.546475
     12 C                     0.209350
     13 C                     0.283556
     14 S                     0.613490
     15 N                    -0.563903
     16 C                    -0.226651
     17 S                     0.300286
     18 C                    -0.106048
     19 C                    -0.190675
     20 S                     0.290958
     21 C                     0.129690
     22 C                     0.017606
     23 C                    -0.308821
     24 C                    -0.046836
     25 N                    -0.428710
     26 S                     0.282706
     27 C                     0.113823
     28 C                    -0.302430
     29 C                    -0.242775
     30 H                     0.084035
     31 H                     0.116254
     32 H                     0.135257
     33 H                     0.100901
     34 H                     0.121592
     35 H                     0.127030
     36 H                     0.115508
     37 H                     0.131928
     38 H                     0.110214
     39 C                    -0.181573
     40 H                     0.119228
     41 H                     0.102382
     42 H                     0.098530
     43 C                    -0.184810
     44 H                     0.094739
     45 C                    -0.183640
     46 H                     0.086294
     47 H                     0.090441
     48 H                     0.089632
     49 C                    -0.173790
     50 H                     0.095962
     51 C                    -0.317321
     52 H                     0.096330
     53 H                     0.101439
     54 H                     0.100523
     55 H                     0.103052
     56 C                     0.290059
     57 C                    -0.136097
     58 N                    -0.487425
     59 C                    -0.091687
     60 C                     0.089150
     61 C                     0.060246
     62 C                     0.062812
     63 C                     0.037108
     64 C                     0.220119
     65 N                    -0.557695
     66 N                    -0.546865
     67 C                     0.251971
     68 C                     0.329340
     69 S                     0.587290
     70 N                    -0.586720
     71 C                    -0.243356
     72 S                     0.341009
     73 C                    -0.105247
     74 C                    -0.220605
     75 S                     0.311008
     76 C                     0.147076
     77 C                     0.086151
     78 C                    -0.322756
     79 C                    -0.068262
     80 N                    -0.432568
     81 S                     0.243390
     82 C                     0.099839
     83 C                    -0.296464
     84 C                    -0.221192
     85 H                     0.089545
     86 H                     0.100129
     87 H                     0.112691
     88 H                     0.121455
     89 H                     0.129367
     90 H                     0.107561
     91 H                     0.122969
     92 H                     0.145390
     93 H                     0.119581
     94 C                    -0.182348
     95 H                     0.081642
     96 H                     0.114213
     97 H                     0.089353
     98 C                    -0.168217
     99 H                     0.095561
    100 C                    -0.171804
    101 H                     0.096605
    102 H                     0.094019
    103 H                     0.091311
    104 C                    -0.190792
    105 H                     0.084158
    106 C                    -0.316901
    107 H                     0.089456
    108 H                     0.111985
    109 H                     0.100732
    110 H                     0.101619
  ----------------------------------------
  Sum of atomic charges =     0.000000

                    Cartesian Multipole Moments
 -----------------------------------------------------------------
    Charge (ESU x 10^10)
                 0.0000
    Dipole Moment (Debye)
         X      -1.6023      Y      -1.5457      Z       2.6629
       Tot       3.4709
    Quadrupole Moments (Debye-Ang)
        XX    -398.9980     XY     -17.0078     YY    -420.2562
        XZ       4.5843     YZ      -3.2074     ZZ    -444.8155

 Total job time:  82.90s(wall), 979.25s(cpu)
        *  Thank you very much for using Q-Chem.  Have a nice day.  *
