 Q-Chem 4.4, Q-Chem, Inc., Pleasanton, CA (2016)
 Q-Chem 4.4.2 for Intel X86 Linux

User input:
--------------------------------------------------------------
$comment
SP
$end

$rem
MEM_STATIC 5000
MEM_TOTAL 20000
JOBTYPE SP
EXCHANGE B3LYP
BASIS 6-31g(d,p)
$end

$molecule
0 1
C           2.497000     10.730000     -2.650000
C           3.576000     10.688000     -1.715000
N           1.790000      9.592000     -2.954000
C           3.907000      9.486000     -1.091000
C           2.103000      8.418000     -2.303000
C           3.197000      8.306000     -1.384000
C           3.570000      7.025000     -0.682000
C           4.881000      6.645000     -0.533000
C           2.518000      6.111000     -0.170000
N           5.224000      5.581000      0.198000
N           1.184000      6.291000     -0.260000
C           2.908000      4.940000      0.521000
C           4.332000      4.702000      0.722000
S           0.512000      4.992000      0.420000
N           1.835000      4.186000      0.999000
C           4.821000      3.479000      1.383000
S           4.064000      1.896000      1.345000
C           6.150000      3.377000      1.894000
C           5.444000      1.202000      2.172000
S           7.393000      4.557000      2.207000
C           6.416000      2.147000      2.315000
C           5.439000     -0.045000      2.870000
C           8.293000      3.275000      2.906000
C           7.653000      2.056000      2.981000
N           4.444000     -0.895000      2.467000
S           6.327000     -0.445000      4.246000
C           4.521000     -2.013000      3.290000
C           5.341000     -1.870000      4.337000
C           2.046000     11.990000     -3.414000
H           4.295000     11.494000     -1.604000
H           4.768000      9.399000     -0.435000
H           1.614000      7.500000     -2.626000
H           5.640000      7.268000     -1.004000
H           9.278000      3.591000      3.225000
H           8.098000      1.197000      3.470000
H           3.847000     -2.843000      3.127000
H           5.382000     -2.480000      5.230000
H           1.370000     11.707000     -4.230000
C           3.153000     12.746000     -4.173000
H           1.506000     12.652000     -2.725000
H           4.017000     13.031000     -3.559000
H           2.694000     13.707000     -4.437000
C           3.679000     12.095000     -5.417000
H           4.012000     11.066000     -5.238000
C           4.825000     12.930000     -6.101000
H           2.821000     12.061000     -6.099000
H           5.654000     13.001000     -5.386000
H           4.496000     13.945000     -6.355000
C           5.273000     12.201000     -7.458000
H           6.205000     12.702000     -7.749000
C           4.266000     12.385000     -8.641000
H           5.586000     11.165000     -7.281000
H           3.355000     11.786000     -8.523000
H           4.701000     12.120000     -9.612000
H           4.013000     13.452000     -8.629000
C          -4.061000      1.689000      2.529000
C          -3.052000      2.240000      1.718000
N          -5.325000      2.206000      2.604000
C          -3.233000      3.490000      1.073000
C          -5.585000      3.309000      1.858000
C          -4.581000      4.068000      1.112000
C          -4.943000      5.432000      0.574000
C          -6.279000      5.853000      0.578000
C          -4.008000      6.513000      0.212000
N          -6.715000      7.029000      0.201000
N          -2.674000      6.386000      0.109000
C          -4.472000      7.760000     -0.133000
C          -5.819000      8.017000     -0.116000
S          -2.140000      7.821000     -0.323000
N          -3.487000      8.682000     -0.410000
C          -6.483000      9.243000     -0.717000
S          -8.078000      9.072000     -1.492000
C          -6.213000     10.540000     -0.442000
C          -8.319000     10.861000     -1.496000
S          -5.062000     11.193000      0.603000
C          -7.213000     11.389000     -0.854000
C          -9.535000     11.520000     -1.887000
C          -5.764000     12.743000      0.374000
C          -6.961000     12.702000     -0.309000
N         -10.570000     10.756000     -2.349000
S          -9.838000     13.267000     -1.798000
C         -11.637000     11.574000     -2.709000
C         -11.398000     12.929000     -2.616000
C          -3.734000      0.409000      3.312000
H          -2.022000      1.903000      1.652000
H          -2.358000      3.931000      0.605000
H          -6.603000      3.670000      1.990000
H          -7.093000      5.198000      0.886000
H          -5.338000     13.626000      0.832000
H          -7.569000     13.596000     -0.392000
H         -12.514000     11.137000     -3.168000
H         -11.993000     13.719000     -3.056000
H          -2.751000      0.549000      3.777000
C          -3.749000     -0.835000      2.416000
H          -4.466000      0.353000      4.127000
H          -2.830000     -0.901000      1.821000
H          -4.538000     -0.795000      1.654000
C          -3.780000     -2.177000      3.174000
H          -3.275000     -2.001000      4.132000
C          -3.134000     -3.375000      2.411000
H          -4.780000     -2.506000      3.483000
H          -3.268000     -3.374000      1.322000
H          -3.750000     -4.195000      2.801000
C          -1.748000     -3.646000      2.820000
H          -1.142000     -2.845000      2.379000
C          -1.224000     -4.938000      2.258000
H          -1.825000     -3.681000      3.913000
H          -0.249000     -5.203000      2.685000
H          -1.174000     -4.915000      1.163000
H          -1.900000     -5.738000      2.586000
$end

--------------------------------------------------------------

             Standard Nuclear Orientation (Angstroms)
    I     Atom           X                Y                Z
 ----------------------------------------------------------------
    1      C       1.4092064055    -6.0706724298    -0.0008230934
    2      C       0.3647485277    -6.4305820275     0.9046065411
    3      N       1.2619351623    -4.9998361589    -0.8487204113
    4      C      -0.8098832851    -5.6805438623     0.9423405434
    5      C       0.1113384705    -4.2442733608    -0.7759322882
    6      C      -0.9849341195    -4.5775965409     0.0848946782
    7      C      -2.2608776453    -3.7780553816     0.1597014520
    8      C      -3.4872428594    -4.3909573178     0.2352102483
    9      C      -2.2262781672    -2.2947360376     0.1066863613
   10      N      -4.6091059316    -3.6930950788     0.4314691152
   11      N      -1.1276396860    -1.5203832179    -0.0091894259
   12      C      -3.4406394321    -1.5787781703     0.2231039319
   13      C      -4.6700801409    -2.3369942155     0.4190757974
   14      S      -1.6580623674     0.0021177124    -0.0542193757
   15      N      -3.2789351624    -0.1924070919     0.2106154467
   16      C      -5.9814318293    -1.6687817913     0.4940418253
   17      S      -6.4485322503    -0.1879415213    -0.3240726481
   18      C      -7.1348751974    -2.3264612215     1.0182480480
   19      C      -8.1021820565    -0.3956813242     0.2165302495
   20      S      -7.3482657987    -3.7891446755     1.9404408503
   21      C      -8.2284060335    -1.5921259809     0.8575027069
   22      C      -9.0833405024     0.6419705768     0.2698653826
   23      C      -9.0030416795    -3.3533954647     2.0586119532
   24      C      -9.3486244553    -2.1338067169     1.5160607285
   25      N      -8.8121443634     1.6962880156    -0.5606774474
   26      S     -10.3353008480     0.8027546720     1.3873016303
   27      C      -9.8013253273     2.6459407770    -0.3307586497
   28      C     -10.5691096353     2.3936621272     0.7350371747
   29      C       2.7437023816    -6.8272725222    -0.1470208703
   30      H       0.3390435581    -7.3793984887     1.4318679350
   31      H      -1.6545597321    -5.9693388901     1.5606811710
   32      H      -0.0458560803    -3.4662852042    -1.5217193231
   33      H      -3.5094738976    -5.4776405190     0.1668260312
   34      H      -9.5898624765    -4.1045566275     2.5716814023
   35      H     -10.3490842848    -1.7249948194     1.5996068952
   36      H      -9.8100342368     3.5585891172    -0.9110535419
   37      H     -11.2227460294     3.0824964283     1.2541679578
   38      H       3.2579618405    -6.4996989018    -1.0586972011
   39      C       2.6314065211    -8.3459035428    -0.3798630126
   40      H       3.3811677429    -6.5983884502     0.7165849395
   41      H       2.0354136921    -8.8816396764     0.3701345494
   42      H       3.6496331378    -8.7216468210    -0.2188364750
   43      C       2.1544318949    -8.7844102799    -1.7319798890
   44      H       1.2048919656    -8.3125399429    -2.0103381253
   45      C       2.0456895055   -10.3497940284    -1.8590460639
   46      H       2.9256027319    -8.4332196743    -2.4279717701
   47      H       1.3107206516   -10.6911156621    -1.1195683251
   48      H       3.0026895000   -10.8445283312    -1.6532039395
   49      C       1.6036645451   -10.7298306362    -3.3536296551
   50      H       1.3318381763   -11.7918066838    -3.3024114997
   51      C       2.7520036940   -10.6018429571    -4.4083003872
   52      H       0.6645069401   -10.2406349805    -3.6386991265
   53      H       2.9901813925    -9.5603101080    -4.6555385482
   54      H       2.5189918136   -11.1104952014    -5.3513111813
   55      H       3.6192066779   -11.0790948564    -3.9362499563
   56      C      -1.0452118350     5.9932383314    -0.0843350476
   57      C      -1.2058628310     4.6483289605    -0.4648781354
   58      N       0.1778938788     6.5752529264     0.1050888792
   59      C      -0.1027047354     3.7573342787    -0.4862485140
   60      C       1.2691066580     5.7904495717    -0.0794737524
   61      C       1.2294555991     4.3459484607    -0.3085094130
   62      C       2.5086838425     3.5505724706    -0.1992567888
   63      C       3.7399656715     4.2140736319    -0.1226782901
   64      C       2.6272207380     2.1026248511     0.0521924023
   65      N       4.9095415327     3.6469776030     0.0376195539
   66      N       1.6126166071     1.2217763955     0.0209121243
   67      C       3.8544727210     1.5234145450     0.2705911005
   68      C       4.9845033212     2.3003407035     0.2833812094
   69      S       2.2659689079    -0.1942878197     0.3353925044
   70      N       3.8125257052     0.1713383261     0.5297596675
   71      C       6.4081369120     1.7738835312     0.2475588010
   72      S       7.6449110418     2.6817342155    -0.6580282389
   73      C       6.9797192057     0.8953750897     1.1032752258
   74      C       8.9734127152     1.7460319698     0.1282049398
   75      S       6.3034564235     0.1005082400     2.4276959825
   76      C       8.3529391351     0.9047550602     1.0345435618
   77      C      10.3739556719     2.0291963243    -0.0270863180
   78      C       7.8673753409    -0.4565883934     2.8653556229
   79      C       8.8780608846     0.1321954266     2.1354053882
   80      N      10.7446346804     3.0356019915    -0.8744998567
   81      S      11.6959280189     1.1976710114     0.8171256031
   82      C      12.1326054682     3.1301412774    -0.9170723314
   83      C      12.8108990129     2.1676420385    -0.1992227077
   84      C      -2.3083499103     6.8548866149     0.0587119310
   85      H      -2.1468986379     4.1203497830    -0.5853546816
   86      H      -0.3265419720     2.7037772488    -0.6242502396
   87      H       2.1999525985     6.3206676222     0.1114808334
   88      H       3.8231963099     5.2959369384    -0.2182264291
   89      H       8.0124293304    -1.1179338957     3.7094589737
   90      H       9.9134648957    -0.0303316299     2.4134566238
   91      H      12.5998560068     3.8276718992    -1.5996461119
   92      H      13.8620535780     1.9234234076    -0.2838178657
   93      H      -3.0449823195     6.2692523790     0.6213123535
   94      C      -2.8687370249     7.2872496621    -1.3012900827
   95      H      -2.0285730514     7.7059525426     0.6916390168
   96      H      -3.4185063759     6.4665566148    -1.7779016465
   97      H      -2.0787830247     7.5147349284    -2.0286057852
   98      C      -3.9079827764     8.4242249592    -1.2400982379
   99      H      -4.4049790478     8.3347003323    -0.2660627933
  100      C      -4.9483603284     8.4235980068    -2.4029839400
  101      H      -3.4809413106     9.4341798250    -1.2033728301
  102      H      -4.5701262689     8.0983743873    -3.3802487934
  103      H      -5.1351354877     9.5018586006    -2.4831408591
  104      C      -6.2254806237     7.7915136170    -2.0408360759
  105      H      -6.0306017486     6.7123038497    -2.0154096680
  106      C      -7.2906801783     8.0097556965    -3.0788169541
  107      H      -6.4749540566     8.2846210550    -1.0940462043
  108      H      -8.2730308576     7.6641733625    -2.7342317057
  109      H      -7.0290165040     7.5418737954    -4.0352021527
  110      H      -7.4053955477     9.0933337773    -3.2101901892
 ----------------------------------------------------------------

   10   -5663.4957088077      7.00E-06 Convergence criterion met
 Total energy in the final basis set = -5663.4957088077

                    Orbital Energies (a.u.)
 --------------------------------------------------------------

 Alpha MOs
 -- Occupied --
-88.993 -88.992 -88.934 -88.930 -88.924 -88.915 -88.915 -88.907
-14.394 -14.389 -14.386 -14.383 -14.350 -14.344 -14.343 -14.338
-14.336 -14.336 -10.271 -10.268 -10.266 -10.265 -10.262 -10.260
-10.257 -10.251 -10.242 -10.240 -10.240 -10.235 -10.235 -10.235
-10.235 -10.233 -10.233 -10.233 -10.231 -10.231 -10.230 -10.228
-10.226 -10.226 -10.225 -10.224 -10.224 -10.223 -10.218 -10.218
-10.217 -10.213 -10.206 -10.205 -10.204 -10.200 -10.200 -10.199
-10.190 -10.186 -10.186 -10.183 -10.181 -10.180 -10.177 -10.176
-10.176 -10.172 -10.171 -10.170  -8.049  -8.047  -7.997  -7.988
 -7.983  -7.976  -7.973  -7.969  -6.013  -6.012  -6.007  -6.007
 -6.006  -6.005  -5.960  -5.957  -5.953  -5.952  -5.949  -5.947
 -5.945  -5.944  -5.940  -5.940  -5.937  -5.937  -5.934  -5.933
 -5.932  -5.930  -5.929  -5.925  -1.054  -1.035  -0.967  -0.960
 -0.956  -0.944  -0.930  -0.927  -0.925  -0.919  -0.909  -0.901
 -0.858  -0.845  -0.830  -0.825  -0.816  -0.813  -0.810  -0.808
 -0.806  -0.797  -0.793  -0.790  -0.786  -0.778  -0.769  -0.768
 -0.755  -0.745  -0.745  -0.740  -0.732  -0.722  -0.711  -0.710
 -0.696  -0.690  -0.676  -0.675  -0.654  -0.653  -0.646  -0.642
 -0.637  -0.634  -0.626  -0.618  -0.611  -0.610  -0.599  -0.597
 -0.597  -0.590  -0.585  -0.584  -0.576  -0.575  -0.568  -0.564
 -0.551  -0.544  -0.544  -0.537  -0.529  -0.526  -0.522  -0.512
 -0.507  -0.503  -0.501  -0.496  -0.487  -0.480  -0.478  -0.478
 -0.476  -0.474  -0.472  -0.467  -0.466  -0.462  -0.451  -0.449
 -0.447  -0.446  -0.443  -0.437  -0.435  -0.433  -0.432  -0.430
 -0.427  -0.425  -0.425  -0.421  -0.420  -0.417  -0.414  -0.413
 -0.411  -0.407  -0.406  -0.404  -0.403  -0.399  -0.398  -0.396
 -0.394  -0.394  -0.393  -0.390  -0.388  -0.387  -0.384  -0.383
 -0.383  -0.374  -0.374  -0.371  -0.365  -0.362  -0.362  -0.360
 -0.358  -0.356  -0.350  -0.349  -0.348  -0.346  -0.342  -0.339
 -0.337  -0.337  -0.336  -0.336  -0.334  -0.331  -0.325  -0.324
 -0.319  -0.319  -0.317  -0.305  -0.304  -0.303  -0.302  -0.301
 -0.298  -0.297  -0.297  -0.287  -0.285  -0.285  -0.280  -0.277
 -0.273  -0.272  -0.270  -0.269  -0.260  -0.258  -0.252  -0.249
 -0.248  -0.241  -0.239  -0.226  -0.194  -0.188

          Ground-State Mulliken Net Atomic Charges

     Atom                 Charge (a.u.)
  ----------------------------------------
      1 C                     0.264509
      2 C                    -0.115749
      3 N                    -0.487218
      4 C                    -0.080352
      5 C                     0.090517
      6 C                     0.029796
      7 C                     0.026584
      8 C                     0.066226
      9 C                     0.233230
     10 N                    -0.523357
     11 N                    -0.564613
     12 C                     0.172401
     13 C                     0.288374
     14 S                     0.630701
     15 N                    -0.557458
     16 C                    -0.231590
     17 S                     0.365487
     18 C                    -0.100621
     19 C                    -0.208615
     20 S                     0.287071
     21 C                     0.152006
     22 C                     0.042204
     23 C                    -0.312567
     24 C                    -0.084544
     25 N                    -0.443240
     26 S                     0.296494
     27 C                     0.130104
     28 C                    -0.311580
     29 C                    -0.229400
     30 H                     0.095367
     31 H                     0.099107
     32 H                     0.112251
     33 H                     0.117880
     34 H                     0.130463
     35 H                     0.117276
     36 H                     0.115460
     37 H                     0.130568
     38 H                     0.123144
     39 C                    -0.187112
     40 H                     0.113939
     41 H                     0.082483
     42 H                     0.092912
     43 C                    -0.161975
     44 H                     0.099930
     45 C                    -0.183043
     46 H                     0.096051
     47 H                     0.089982
     48 H                     0.092062
     49 C                    -0.185580
     50 H                     0.089199
     51 C                    -0.315191
     52 H                     0.094157
     53 H                     0.109632
     54 H                     0.104016
     55 H                     0.103288
     56 C                     0.245941
     57 C                    -0.104162
     58 N                    -0.478604
     59 C                    -0.085622
     60 C                     0.080571
     61 C                     0.018638
     62 C                     0.071089
     63 C                     0.057693
     64 C                     0.230777
     65 N                    -0.499160
     66 N                    -0.566924
     67 C                     0.217952
     68 C                     0.209171
     69 S                     0.646346
     70 N                    -0.530465
     71 C                    -0.230240
     72 S                     0.348406
     73 C                    -0.094907
     74 C                    -0.216388
     75 S                     0.283602
     76 C                     0.132166
     77 C                     0.052906
     78 C                    -0.294043
     79 C                    -0.096666
     80 N                    -0.439785
     81 S                     0.261074
     82 C                     0.130238
     83 C                    -0.313843
     84 C                    -0.229289
     85 H                     0.094082
     86 H                     0.128140
     87 H                     0.106975
     88 H                     0.111258
     89 H                     0.127837
     90 H                     0.114223
     91 H                     0.116621
     92 H                     0.130553
     93 H                     0.105914
     94 C                    -0.168304
     95 H                     0.117742
     96 H                     0.096555
     97 H                     0.107432
     98 C                    -0.190549
     99 H                     0.090307
    100 C                    -0.174350
    101 H                     0.094793
    102 H                     0.088109
    103 H                     0.084087
    104 C                    -0.158866
    105 H                     0.093319
    106 C                    -0.311745
    107 H                     0.092225
    108 H                     0.095727
    109 H                     0.102711
    110 H                     0.097665
  ----------------------------------------
  Sum of atomic charges =     0.000000

                    Cartesian Multipole Moments
 -----------------------------------------------------------------
    Charge (ESU x 10^10)
                 0.0000
    Dipole Moment (Debye)
         X      -3.8391      Y      -3.9204      Z       3.0970
       Tot       6.3008
    Quadrupole Moments (Debye-Ang)
        XX    -379.7222     XY     -26.1174     YY    -431.7933
        XZ      -5.4571     YZ     -12.6946     ZZ    -443.6452

 Total job time:  88.90s(wall), 1035.07s(cpu)
        *  Thank you very much for using Q-Chem.  Have a nice day.  *
