 Q-Chem 4.4, Q-Chem, Inc., Pleasanton, CA (2016)
 Q-Chem 4.4.2 for Intel X86 Linux

User input:
--------------------------------------------------------------
$comment
SP
$end

$rem
MEM_STATIC 5000
MEM_TOTAL 20000
JOBTYPE SP
EXCHANGE B3LYP
BASIS 6-31g(d,p)
$end

$molecule
0 1
C          18.687000      3.752000     12.160000
C          18.578000      2.318000     12.317000
N          19.780000      4.405000     12.154000
C          19.820000      1.675000     12.454000
C          20.998000      3.740000     12.250000
C          21.083000      2.318000     12.419000
C          22.321000      1.468000     12.516000
C          22.270000      0.217000     13.084000
C          23.659000      1.853000     12.098000
N          23.349000     -0.563000     13.425000
N          23.955000      3.089000     11.701000
C          24.716000      1.024000     12.312000
C          24.597000     -0.210000     12.967000
S          25.521000      3.123000     11.424000
N          25.894000      1.680000     12.040000
C          25.748000     -1.058000     13.320000
S          27.390000     -0.584000     13.298000
C          25.574000     -2.236000     13.993000
C          27.881000     -2.255000     13.739000
S          24.140000     -3.303000     14.174000
C          26.772000     -2.931000     14.097000
C          29.265000     -2.679000     13.792000
C          25.288000     -4.596000     14.697000
C          26.568000     -4.296000     14.332000
N          29.550000     -3.874000     14.216000
S          30.521000     -1.566000     13.379000
C          30.940000     -3.920000     14.371000
C          31.579000     -2.770000     14.026000
C          17.464000      4.596000     11.881000
H          17.640000      1.773000     12.371000
H          19.692000      0.611000     12.627000
H          21.961000      4.239000     12.161000
H          21.372000     -0.280000     13.446000
H          24.832000     -5.552000     14.922000
H          27.295000     -5.042000     14.629000
H          31.382000     -4.870000     14.639000
H          32.621000     -2.546000     14.214000
H          16.666000      4.175000     12.506000
C          17.088000      4.514000     10.393000
H          17.707000      5.597000     12.258000
H          16.934000      3.462000     10.120000
H          17.928000      4.979000      9.863000
C          15.837000      5.280000     10.181000
H          15.094000      4.845000     10.860000
C          15.418000      5.525000      8.699000
H          16.011000      6.268000     10.626000
H          14.432000      5.996000      8.792000
H          15.166000      4.555000      8.252000
C          16.280000      6.458000      7.747000
H          17.328000      6.304000      8.035000
C          15.952000      7.984000      7.986000
H          16.185000      6.168000      6.693000
H          16.573000      8.706000      7.441000
H          15.924000      8.334000      9.025000
H          14.897000      8.174000      7.753000
C          29.349000      0.144000      8.861000
C          27.929000      0.189000      8.689000
N          30.063000     -0.972000      9.062000
C          27.269000     -1.020000      8.814000
C          29.422000     -2.078000      9.131000
C          28.004000     -2.186000      9.051000
C          27.288000     -3.493000      9.190000
C          26.264000     -3.465000     10.151000
C          27.558000     -4.773000      8.560000
N          25.614000     -4.547000     10.607000
N          28.455000     -5.016000      7.617000
C          26.737000     -5.869000      8.910000
C          25.778000     -5.760000     10.028000
S          28.377000     -6.653000      7.350000
N          27.068000     -7.008000      8.242000
C          24.786000     -6.736000     10.550000
S          24.080000     -6.500000     12.152000
C          24.209000     -7.839000     10.000000
C          22.845000     -7.810000     11.941000
S          24.315000     -8.320000      8.359000
C          23.033000     -8.256000     10.658000
C          21.705000     -8.073000     12.713000
C          22.818000     -9.296000      8.548000
C          22.260000     -9.199000      9.857000
N          20.571000     -8.497000     12.197000
S          21.811000     -8.004000     14.415000
C          19.790000     -8.881000     13.257000
C          20.325000     -8.751000     14.496000
C          30.160000      1.378000      8.911000
H          27.363000      1.101000      8.522000
H          26.189000     -0.954000      8.717000
H          30.008000     -2.945000      9.432000
H          26.147000     -2.556000     10.739000
H          22.498000     -9.968000      7.762000
H          21.464000     -9.833000     10.229000
H          18.856000     -9.380000     13.034000
H          19.858000     -9.000000     15.439000
H          29.561000      2.263000      9.157000
C          30.860000      1.599000      7.589000
H          30.891000      1.280000      9.723000
H          30.078000      1.973000      6.917000
H          31.217000      0.664000      7.140000
C          31.984000      2.685000      7.686000
H          31.549000      3.600000      8.107000
C          32.751000      3.041000      6.415000
H          32.723000      2.328000      8.413000
H          33.474000      3.842000      6.614000
H          32.010000      3.478000      5.734000
C          33.543000      1.852000      5.791000
H          34.162000      1.397000      6.574000
C          34.432000      2.300000      4.646000
H          32.844000      1.042000      5.548000
H          35.017000      1.421000      4.347000
H          35.088000      3.069000      5.072000
H          33.971000      2.557000      3.685000
$end

--------------------------------------------------------------

             Standard Nuclear Orientation (Angstroms)
    I     Atom           X                Y                Z
 ----------------------------------------------------------------
    1      C       8.4523513150     0.9196572608     0.6975243581
    2      C       7.4992496505     2.0007978604     0.5725514780
    3      N       8.1647196054    -0.2709048842     1.0452653228
    4      C       6.1786707419     1.6176667480     0.8624892249
    5      C       6.8438681662    -0.6342322900     1.2867392798
    6      C       5.7652237149     0.3089754103     1.2177800048
    7      C       4.2972969540     0.0563594430     1.4320909885
    8      C       3.4464775028     1.0895628780     1.7464521238
    9      C       3.6360750484    -1.2375781906     1.3908115504
   10      N       2.1455475087     0.9672625390     2.1725340143
   11      N       4.3106874021    -2.3812364836     1.2914894422
   12      C       2.3118023373    -1.3473310345     1.6815727923
   13      C       1.5226340338    -0.2545554468     2.0675739627
   14      S       3.2422786941    -3.5568135047     1.3737238630
   15      N       1.9604784500    -2.6725261468     1.7930781319
   16      C       0.1231267044    -0.3773120414     2.5089627409
   17      S      -0.6744498092    -1.8292222362     2.9298576105
   18      C      -0.5871115910     0.7206728838     2.9100608185
   19      C      -2.2068166015    -0.9217891633     3.1669656701
   20      S      -0.3566742738     2.4721268532     2.5830843120
   21      C      -1.9154948692     0.3934485402     3.1495751085
   22      C      -3.4703062603    -1.5728711581     3.4457615063
   23      C      -2.0701626901     2.6975535217     3.1088430630
   24      C      -2.7510109073     1.5152902321     3.0908369742
   25      N      -4.5174869782    -0.8481927803     3.7051449922
   26      S      -3.5502483662    -3.2977148798     3.5192284744
   27      C      -5.5102486776    -1.7286286479     4.1495523407
   28      C      -5.1340164411    -3.0356047426     4.1599826869
   29      C       9.9008205250     1.1151990612     0.3107345547
   30      H       7.7584522196     3.0258257666     0.3237205722
   31      H       5.5056292254     2.4679870357     0.8137088446
   32      H       6.5332936103    -1.6553240247     1.4993565759
   33      H       3.7205345338     2.1408740127     1.8104415128
   34      H      -2.4366722185     3.7151532321     3.0572814981
   35      H      -3.7845630042     1.5996224050     3.4037461426
   36      H      -6.4938884449    -1.3197495567     4.3365247900
   37      H      -5.6902037662    -3.8490598054     4.6074539378
   38      H      10.1671290030     2.1202354807     0.6623758352
   39      C      10.0637104017     1.0131186086    -1.2141557591
   40      H      10.4630774845     0.3817038709     0.9015229410
   41      H       9.4057281064     1.7487520928    -1.6946260246
   42      H       9.8024450643    -0.0237761867    -1.4577016622
   43      C      11.4771604689     1.2989419226    -1.5564494057
   44      H      11.6966610499     2.2906764221    -1.1434152942
   45      C      11.9055207882     1.0085922753    -3.0275423733
   46      H      12.0796615498     0.6405375461    -0.9177467170
   47      H      12.9307318708     1.3955568180    -3.0709782901
   48      H      11.3700074067     1.7079232812    -3.6820456678
   49      C      11.9550694650    -0.4753094537    -3.5891628743
   50      H      11.1250924219    -1.0112690873    -3.1107808312
   51      C      13.2877018387    -1.2075591014    -3.1633901531
   52      H      11.7846421641    -0.5096220806    -4.6725917731
   53      H      13.3629651626    -2.2707355761    -3.4240455111
   54      H      13.5862244227    -1.1332342650    -2.1106959499
   55      H      14.1498903602    -0.6756028610    -3.5841840594
   56      C      -1.6237829129    -4.9016284066    -0.7733465402
   57      C      -0.6113853110    -4.0046641161    -1.2408025885
   58      N      -2.9172922596    -4.5868298203    -0.6204138094
   59      C      -1.0212760869    -2.7050738004    -1.4773624396
   60      C      -3.2676331968    -3.3850493423    -0.8884863936
   61      C      -2.3644170548    -2.3610897677    -1.2940667067
   62      C      -2.8056983127    -0.9533590596    -1.5466357171
   63      C      -2.0505953371    -0.0006909851    -0.8429852102
   64      C      -3.9311297041    -0.4555234698    -2.3171964926
   65      N      -2.3673392162     1.2991819095    -0.7373264531
   66      N      -4.7525582980    -1.1716485109    -3.0690787910
   67      C      -4.1421633925     0.9415921768    -2.3531082225
   68      C      -3.3697019810     1.8390788475    -1.4703245322
   69      S      -5.8843868248    -0.0938960258    -3.6299315047
   70      N      -5.2093271217     1.2922942656    -3.1220527069
   71      C      -3.3712838638     3.3210956205    -1.3574184545
   72      S      -2.6701616973     4.0946917080     0.0675421769
   73      C      -3.7799458870     4.3041349681    -2.2051607454
   74      C      -2.7628980548     5.7631634699    -0.6349163256
   75      S      -4.2425588915     4.0961369666    -3.8416826791
   76      C      -3.2478356994     5.5752867856    -1.9037294846
   77      C      -2.1418692904     6.9380515359    -0.1891424971
   78      C      -3.9026988192     5.8320119207    -4.1587619676
   79      C      -3.4119159425     6.5154806278    -3.0071297805
   80      N      -1.6744754080     7.8573700636    -1.0066902960
   81      S      -2.1213645120     7.2940099669     1.4798913999
   82      C      -1.3819834499     8.9473161201    -0.2272783072
   83      C      -1.6270175044     8.8384868065     1.1017666479
   84      C      -1.2960185569    -6.2728501536    -0.3314207007
   85      H       0.4334834047    -4.2746911443    -1.3645918085
   86      H      -0.2275194890    -2.0347629115    -1.7948506683
   87      H      -4.2904711980    -3.1215577777    -0.6237967289
   88      H      -1.2995213064    -0.3663158872    -0.1444723388
   89      H      -4.1852748848     6.2834095589    -5.1011901820
   90      H      -3.3069801663     7.5914859614    -2.9353174913
   91      H      -1.0996349388     9.8614064785    -0.7330491396
   92      H      -1.4580365516     9.5895296918     1.8611868360
   93      H      -0.2369670190    -6.3868158929    -0.0707223114
   94      C      -1.6565651213    -7.2708983648    -1.4086537039
   95      H      -1.8522545219    -6.4824382955     0.5905247218
   96      H      -0.8625544899    -7.1724533552    -2.1588801345
   97      H      -2.5891348377    -7.0138435664    -1.9258688957
   98      C      -1.6511643930    -8.7446184223    -0.8792190769
   99      H      -0.6796510266    -8.9424991302    -0.4094361436
  100      C      -1.9596076670    -9.8650517666    -1.8691472903
  101      H      -2.4016889188    -8.8095917482    -0.0826072498
  102      H      -1.8787993875   -10.8436326743    -1.3794734915
  103      H      -1.1488838688    -9.8395592989    -2.6079896666
  104      C      -3.3812405220    -9.7850984624    -2.5039137787
  105      H      -4.1176920629    -9.6862567132    -1.6969785666
  106      C      -3.7047273992   -11.0158932688    -3.3300798545
  107      H      -3.4863146282    -8.8292401683    -3.0321602685
  108      H      -4.7511312688   -10.9111335855    -3.6436581551
  109      H      -3.5946067663   -11.8636242749    -2.6427672711
  110      H      -3.2250461421   -11.1400316321    -4.3081322858
 ----------------------------------------------------------------

   10   -5663.4813212843      4.03E-06 Convergence criterion met
 Total energy in the final basis set = -5663.4813212843

                    Orbital Energies (a.u.)
 --------------------------------------------------------------

 Alpha MOs
 -- Occupied --
-88.994 -88.987 -88.925 -88.923 -88.921 -88.916 -88.904 -88.899
-14.390 -14.384 -14.381 -14.378 -14.350 -14.346 -14.341 -14.341
-14.326 -14.324 -10.271 -10.264 -10.264 -10.261 -10.260 -10.260
-10.255 -10.252 -10.242 -10.235 -10.235 -10.234 -10.232 -10.231
-10.228 -10.228 -10.228 -10.227 -10.227 -10.225 -10.225 -10.225
-10.224 -10.224 -10.222 -10.222 -10.221 -10.218 -10.216 -10.213
-10.208 -10.208 -10.208 -10.202 -10.200 -10.200 -10.200 -10.189
-10.186 -10.179 -10.178 -10.177 -10.176 -10.176 -10.175 -10.175
-10.174 -10.174 -10.174 -10.171  -8.050  -8.043  -7.988  -7.987
 -7.981  -7.974  -7.965  -7.958  -6.015  -6.009  -6.008  -6.008
 -6.002  -6.000  -5.951  -5.951  -5.948  -5.947  -5.945  -5.944
 -5.944  -5.941  -5.939  -5.937  -5.935  -5.931  -5.929  -5.926
 -5.923  -5.921  -5.919  -5.914  -1.053  -1.036  -0.982  -0.975
 -0.957  -0.952  -0.950  -0.941  -0.916  -0.910  -0.903  -0.903
 -0.841  -0.836  -0.832  -0.829  -0.824  -0.813  -0.813  -0.810
 -0.806  -0.805  -0.801  -0.796  -0.786  -0.773  -0.769  -0.765
 -0.747  -0.746  -0.738  -0.737  -0.725  -0.714  -0.711  -0.707
 -0.692  -0.691  -0.675  -0.673  -0.654  -0.652  -0.644  -0.640
 -0.637  -0.630  -0.625  -0.623  -0.610  -0.608  -0.600  -0.597
 -0.595  -0.592  -0.588  -0.582  -0.578  -0.576  -0.560  -0.559
 -0.551  -0.549  -0.542  -0.540  -0.523  -0.520  -0.514  -0.511
 -0.511  -0.509  -0.503  -0.498  -0.485  -0.483  -0.480  -0.472
 -0.470  -0.470  -0.468  -0.466  -0.462  -0.458  -0.450  -0.446
 -0.445  -0.441  -0.441  -0.438  -0.434  -0.432  -0.431  -0.428
 -0.425  -0.424  -0.420  -0.420  -0.419  -0.415  -0.414  -0.413
 -0.413  -0.412  -0.409  -0.405  -0.399  -0.397  -0.396  -0.395
 -0.394  -0.392  -0.391  -0.390  -0.385  -0.384  -0.383  -0.383
 -0.378  -0.376  -0.374  -0.372  -0.363  -0.361  -0.356  -0.355
 -0.354  -0.350  -0.348  -0.345  -0.344  -0.342  -0.340  -0.339
 -0.336  -0.334  -0.331  -0.326  -0.323  -0.321  -0.320  -0.318
 -0.312  -0.310  -0.310  -0.307  -0.304  -0.303  -0.302  -0.302
 -0.298  -0.295  -0.293  -0.293  -0.291  -0.289  -0.289  -0.285
 -0.272  -0.272  -0.266  -0.263  -0.252  -0.251  -0.249  -0.243
 -0.242  -0.238  -0.230  -0.229  -0.193  -0.190

          Ground-State Mulliken Net Atomic Charges

     Atom                 Charge (a.u.)
  ----------------------------------------
      1 C                     0.274733
      2 C                    -0.118091
      3 N                    -0.484148
      4 C                    -0.093503
      5 C                     0.060992
      6 C                     0.048748
      7 C                     0.076482
      8 C                     0.034037
      9 C                     0.211809
     10 N                    -0.525229
     11 N                    -0.540149
     12 C                     0.191585
     13 C                     0.298700
     14 S                     0.603966
     15 N                    -0.552928
     16 C                    -0.218478
     17 S                     0.309111
     18 C                    -0.128575
     19 C                    -0.240160
     20 S                     0.273322
     21 C                     0.179901
     22 C                     0.086369
     23 C                    -0.285183
     24 C                    -0.064087
     25 N                    -0.444960
     26 S                     0.281745
     27 C                     0.117110
     28 C                    -0.305279
     29 C                    -0.224878
     30 H                     0.097052
     31 H                     0.090995
     32 H                     0.128611
     33 H                     0.114370
     34 H                     0.131438
     35 H                     0.125896
     36 H                     0.114079
     37 H                     0.130243
     38 H                     0.085061
     39 C                    -0.160888
     40 H                     0.115942
     41 H                     0.090910
     42 H                     0.112144
     43 C                    -0.176291
     44 H                     0.089306
     45 C                    -0.186933
     46 H                     0.093624
     47 H                     0.089574
     48 H                     0.085134
     49 C                    -0.177652
     50 H                     0.102913
     51 C                    -0.328459
     52 H                     0.102750
     53 H                     0.102158
     54 H                     0.107520
     55 H                     0.101659
     56 C                     0.248516
     57 C                    -0.107147
     58 N                    -0.453994
     59 C                    -0.062538
     60 C                     0.105145
     61 C                     0.003888
     62 C                     0.014234
     63 C                     0.067746
     64 C                     0.257116
     65 N                    -0.495194
     66 N                    -0.564731
     67 C                     0.181544
     68 C                     0.297599
     69 S                     0.600018
     70 N                    -0.538498
     71 C                    -0.211303
     72 S                     0.324142
     73 C                    -0.117732
     74 C                    -0.247297
     75 S                     0.274573
     76 C                     0.120340
     77 C                     0.067991
     78 C                    -0.322854
     79 C                    -0.028401
     80 N                    -0.430376
     81 S                     0.275746
     82 C                     0.103406
     83 C                    -0.296756
     84 C                    -0.213343
     85 H                     0.092480
     86 H                     0.100301
     87 H                     0.100873
     88 H                     0.126938
     89 H                     0.129715
     90 H                     0.122314
     91 H                     0.105954
     92 H                     0.134674
     93 H                     0.088162
     94 C                    -0.175279
     95 H                     0.114339
     96 H                     0.087552
     97 H                     0.115389
     98 C                    -0.181833
     99 H                     0.082836
    100 C                    -0.169129
    101 H                     0.090841
    102 H                     0.084253
    103 H                     0.087189
    104 C                    -0.176381
    105 H                     0.094464
    106 C                    -0.313904
    107 H                     0.095743
    108 H                     0.096993
    109 H                     0.103748
    110 H                     0.105810
  ----------------------------------------
  Sum of atomic charges =     0.000000

                    Cartesian Multipole Moments
 -----------------------------------------------------------------
    Charge (ESU x 10^10)
                 0.0000
    Dipole Moment (Debye)
         X      -1.1366      Y       1.1015      Z      -0.1739
       Tot       1.5922
    Quadrupole Moments (Debye-Ang)
        XX    -436.7957     XY       7.0699     YY    -404.3520
        XZ     -11.8019     YZ      -0.0755     ZZ    -442.3410

 Total job time:  95.46s(wall), 1142.72s(cpu)
        *  Thank you very much for using Q-Chem.  Have a nice day.  *
