 Q-Chem 4.4, Q-Chem, Inc., Pleasanton, CA (2016)
 Q-Chem 4.4.2 for Intel X86 Linux

User input:
--------------------------------------------------------------
$comment
SP
$end

$rem
MEM_STATIC 5000
MEM_TOTAL 20000
JOBTYPE SP
EXCHANGE B3LYP
BASIS 6-31g(d,p)
$end

$molecule
0 1
C         -14.224000     14.690000      9.328000
C         -13.376000     15.331000      8.477000
N         -15.526000     14.942000      9.332000
C         -13.913000     16.312000      7.561000
C         -16.086000     15.922000      8.626000
C         -15.282000     16.664000      7.717000
C         -15.873000     17.659000      6.812000
C         -17.093000     17.417000      6.170000
C         -15.360000     18.968000      6.567000
N         -17.786000     18.263000      5.323000
N         -14.273000     19.442000      7.160000
C         -16.124000     19.909000      5.795000
C         -17.251000     19.522000      5.111000
S         -14.182000     20.976000      6.582000
N         -15.569000     21.074000      5.766000
C         -18.150000     20.607000      4.502000
S         -18.263000     22.383000      4.729000
C         -18.920000     20.272000      3.409000
C         -19.382000     22.603000      3.425000
S         -18.866000     18.860000      2.524000
C         -19.551000     21.364000      2.828000
C         -19.687000     23.871000      2.798000
C         -19.760000     19.646000      1.273000
C         -20.111000     20.969000      1.608000
N         -20.594000     23.935000      1.902000
S         -18.717000     25.353000      2.959000
C         -20.747000     25.275000      1.462000
C         -19.869000     26.162000      1.911000
C         -13.790000     13.518000     10.279000
H         -12.302000     15.227000      8.355000
H         -13.211000     16.890000      6.967000
H         -17.165000     16.057000      8.669000
H         -17.517000     16.414000      6.174000
H         -19.937000     19.053000      0.386000
H         -20.679000     21.688000      1.029000
H         -21.630000     25.441000      0.859000
H         -19.835000     27.201000      1.612000
H         -12.735000     13.284000     10.089000
C         -14.717000     12.252000     10.264000
H         -13.796000     13.807000     11.337000
H         -14.082000     11.357000     10.266000
H         -15.216000     12.278000      9.287000
C         -15.704000     12.271000     11.420000
H         -16.028000     13.276000     11.716000
C         -15.156000     11.515000     12.662000
H         -16.628000     11.767000     11.108000
H         -14.236000     12.059000     12.907000
H         -14.863000     10.523000     12.296000
C         -16.077000     11.394000     13.912000
H         -16.460000     12.408000     14.080000
C         -15.307000     10.844000     15.117000
H         -16.969000     10.798000     13.684000
H         -16.012000     10.493000     15.880000
H         -14.587000     11.591000     15.473000
H         -14.799000      9.944000     14.750000
C         -17.575000     14.775000      3.404000
C         -17.769000     14.458000      2.080000
N         -16.428000     15.410000      3.829000
C         -16.657000     14.619000      1.237000
C         -15.438000     15.692000      2.948000
C         -15.510000     15.346000      1.593000
C         -14.302000     15.521000      0.732000
C         -13.036000     15.823000      1.250000
C         -14.316000     15.563000     -0.666000
N         -11.857000     16.034000      0.583000
N         -15.408000     15.399000     -1.462000
C         -13.192000     15.817000     -1.401000
C         -11.911000     16.066000     -0.745000
S         -14.992000     15.694000     -3.008000
N         -13.409000     15.912000     -2.761000
C         -10.672000     16.400000     -1.500000
S         -10.619000     17.180000     -3.129000
C          -9.426000     16.511000     -0.896000
C          -8.873000     17.478000     -2.954000
S          -8.796000     15.823000      0.555000
C          -8.416000     17.083000     -1.749000
C          -8.048000     18.125000     -3.945000
C          -7.244000     16.529000      0.112000
C          -7.154000     17.021000     -1.178000
N          -6.721000     17.973000     -3.867000
S          -8.793000     18.986000     -5.215000
C          -6.202000     18.571000     -4.996000
C          -7.149000     19.052000     -5.816000
C         -18.603000     14.526000      4.456000
H         -18.682000     13.964000      1.763000
H         -16.624000     14.116000      0.276000
H         -14.600000     16.210000      3.412000
H         -12.903000     15.762000      2.329000
H          -6.458000     16.435000      0.849000
H          -6.243000     17.453000     -1.578000
H          -5.142000     18.456000     -5.183000
H          -7.011000     19.631000     -6.719000
H         -18.872000     15.521000      4.831000
C         -18.113000     13.632000      5.613000
H         -19.466000     14.073000      3.951000
H         -17.175000     14.081000      5.963000
H         -17.994000     12.592000      5.285000
C         -19.086000     13.770000      6.732000
H         -19.249000     14.812000      7.033000
C         -18.563000     12.762000      7.826000
H         -20.099000     13.562000      6.364000
H         -17.563000     13.129000      8.084000
H         -18.410000     11.730000      7.488000
C         -19.495000     12.767000      9.099000
H         -19.147000     12.046000      9.850000
C         -20.967000     12.703000      8.886000
H         -19.396000     13.756000      9.563000
H         -21.505000     12.585000      9.835000
H         -21.115000     11.743000      8.378000
H         -21.479000     13.464000      8.284000
$end

--------------------------------------------------------------

             Standard Nuclear Orientation (Angstroms)
    I     Atom           X                Y                Z
 ----------------------------------------------------------------
    1      C      -5.2717270872     3.5871685982    -1.9389652424
    2      C      -4.0022428704     3.4562391470    -2.4137844733
    3      N      -5.8775738650     2.5993285787    -1.2941041893
    4      C      -3.3045698792     2.2064950541    -2.2108605969
    5      C      -5.3684403257     1.3742039720    -1.1832496128
    6      C      -4.0520368856     1.1280384604    -1.6625673818
    7      C      -3.3879051901    -0.1634601174    -1.4405504575
    8      C      -3.5072747229    -0.8365927631    -0.2191695358
    9      C      -2.6633533930    -0.9048894475    -2.4213573915
   10      N      -2.9728314741    -2.0648613020     0.1259403167
   11      N      -2.5231324973    -0.5007408730    -3.6763060080
   12      C      -2.2087029559    -2.2362435593    -2.1281847308
   13      C      -2.2750073555    -2.7483369983    -0.8549533942
   14      S      -1.6848987500    -1.7332380731    -4.3646633546
   15      N      -1.6736775630    -2.8019776524    -3.1576427265
   16      C      -1.9965534898    -4.2437511401    -0.6487811627
   17      S      -1.8900929878    -5.6422248294    -1.7674462162
   18      C      -1.5291515354    -4.6520022267     0.5819261393
   19      C      -1.3093086447    -6.7296695635    -0.5504291674
   20      S      -1.0385867149    -3.6890801238     1.8515765560
   21      C      -1.1385174883    -5.9843128743     0.6051506813
   22      C      -0.6814045352    -8.0072619525    -0.8101831222
   23      C      -0.2767324762    -5.0665050602     2.5617255991
   24      C      -0.4708744617    -6.2410886722     1.8077911008
   25      N      -0.3689667778    -8.7714379251     0.1634588709
   26      S      -0.0350665887    -8.5302372672    -2.3824073680
   27      C       0.1920571241    -9.9781576770    -0.3281594994
   28      C       0.4311143835   -10.0461536514    -1.6310340805
   29      C      -6.0886021994     4.9277949122    -1.9811213477
   30      H      -3.3818316812     4.1695298004    -2.9480900040
   31      H      -2.3372275401     2.0814873299    -2.6887160854
   32      H      -5.9186611188     0.6196933682    -0.6244242129
   33      H      -3.9232642479    -0.3204812913     0.6447648736
   34      H       0.2630617377    -4.8768346123     3.4795460216
   35      H      -0.1247371510    -7.2467794225     2.0165998099
   36      H       0.2901805472   -10.7535612073     0.4201553802
   37      H       0.9071374177   -10.8811155683    -2.1273390958
   38      H      -5.4463932122     5.7175506599    -2.3906753439
   39      C      -6.7932246077     5.3366469072    -0.6399810464
   40      H      -6.9247491256     4.8919424676    -2.6899894031
   41      H      -6.6550721610     6.4149484274    -0.4902020995
   42      H      -6.2156224832     4.8360275640     0.1473956480
   43      C      -8.2575481134     4.9285032292    -0.6335460732
   44      H      -8.4687450172     4.0087459185    -1.1921688056
   45      C      -9.1793040376     6.0701267561    -1.1448832801
   46      H      -8.5586221990     4.6976010629     0.3965872116
   47      H      -8.8158464973     6.2556381227    -2.1626480610
   48      H      -8.9221192705     6.9483199341    -0.5394894102
   49      C     -10.7176062739     5.8272254213    -1.1422053583
   50      H     -10.8488175757     4.8414523773    -1.6049624220
   51      C     -11.4558251304     6.9386098299    -1.8953870204
   52      H     -11.0917111984     5.7019847173    -0.1188655948
   53      H     -12.5216842766     6.9170983587    -1.6387227705
   54      H     -11.2456018823     6.8655095944    -2.9694482577
   55      H     -11.0716608091     7.8767585378    -1.4769999076
   56      C      -1.9470525278     0.4093222926     3.0788065672
   57      C      -0.9927995974     0.2968243559     4.0625984959
   58      N      -1.6031915474     0.6955249773     1.7752320010
   59      C       0.3065633021     0.6987576105     3.7115718382
   60      C      -0.3088636310     0.9228231026     1.4453292772
   61      C       0.7268687032     0.9015212690     2.3875233994
   62      C       2.0923075010     1.3479556704     1.9782762677
   63      C       2.3511075797     1.9804788231     0.7554839793
   64      C       3.2707101929     1.0548628026     2.6724143422
   65      N       3.5458499531     2.4164355020     0.2436408047
   66      N       3.3607295826     0.3718320827     3.8464422572
   67      C       4.5037081060     1.4118280264     2.2029369995
   68      C       4.6432681606     2.1192883277     0.9327712964
   69      S       4.9297783625     0.1190720408     4.1991394186
   70      N       5.5589163313     0.9608788777     2.9703315958
   71      C       5.9667153917     2.4810516210     0.3545699941
   72      S       7.5203964709     1.6176626536     0.6793539150
   73      C       6.1049850104     3.2642776723    -0.7843292399
   74      C       8.3078293079     2.4841643673    -0.6611942219
   75      S       5.0619345314     4.4411349618    -1.4933409594
   76      C       7.4436073903     3.2850380899    -1.3158855672
   77      C       9.6848523064     2.3093265452    -1.0543282927
   78      C       6.3538101979     4.7630083005    -2.6469630016
   79      C       7.5831768164     4.2055706542    -2.3433431933
   80      N      10.2541383489     3.2500362287    -1.8166246218
   81      S      10.5523621219     0.9614752622    -0.4712591383
   82      C      11.5841675259     2.9014891761    -1.9221866425
   83      C      11.8957368617     1.8048355512    -1.2144823426
   84      C      -3.3978224580     0.1642240186     3.3251446392
   85      H      -1.2821546619     0.0640126105     5.0824839492
   86      H       1.0318937228     0.9337110970     4.4837840111
   87      H      -0.1760884183     1.1178845645     0.3822273212
   88      H       1.4971560612     2.3032775309     0.1620037368
   89      H       6.1085967154     5.4478584721    -3.4473701420
   90      H       8.4628401363     4.3556880953    -2.9599485756
   91      H      12.2500926324     3.6030061371    -2.4082028006
   92      H      12.8406862369     1.2793371295    -1.1896612388
   93      H      -3.6499542857    -0.7000231700     2.6986325974
   94      C      -4.3046152826     1.3616335374     2.9759710187
   95      H      -3.4956465749    -0.1036388167     4.3851837628
   96      H      -4.0394866023     1.6503702601     1.9511379163
   97      H      -4.1762312498     2.1775969856     3.6978201659
   98      C      -5.7070326805     0.8635258232     2.9207609922
   99      H      -5.8343440533     0.0143133763     2.2384384625
  100      C      -6.5669765833     2.1576706027     2.6522190519
  101      H      -5.9465377052     0.3398257382     3.8552301271
  102      H      -6.2096610753     2.5309058235     1.6856404996
  103      H      -6.4115319268     2.9863938873     3.3534548727
  104      C      -8.1050268874     1.8149774435     2.5738566855
  105      H      -8.7066726183     2.7190539404     2.4138126223
  106      C      -8.6764263674     0.9281645078     3.6242444479
  107      H      -8.2487965450     1.1958582364     1.6798546201
  108      H      -9.7686912721     0.8622541398     3.5431136803
  109      H      -8.5143922968     1.4870838111     4.5531804912
  110      H      -8.2744721594    -0.0799301046     3.7850146785
 ----------------------------------------------------------------

    9   -5663.4887281470      7.49E-06 Convergence criterion met
 Total energy in the final basis set = -5663.4887281470

                    Orbital Energies (a.u.)
 --------------------------------------------------------------

 Alpha MOs
 -- Occupied --
-88.993 -88.983 -88.931 -88.924 -88.924 -88.916 -88.910 -88.901
-14.385 -14.382 -14.381 -14.375 -14.355 -14.352 -14.343 -14.334
-14.327 -14.326 -10.268 -10.267 -10.265 -10.262 -10.255 -10.254
-10.252 -10.248 -10.243 -10.241 -10.240 -10.234 -10.233 -10.232
-10.231 -10.230 -10.229 -10.228 -10.228 -10.226 -10.225 -10.225
-10.223 -10.222 -10.221 -10.220 -10.220 -10.216 -10.215 -10.215
-10.214 -10.208 -10.202 -10.200 -10.198 -10.197 -10.192 -10.188
-10.184 -10.180 -10.175 -10.175 -10.174 -10.174 -10.174 -10.171
-10.170 -10.169 -10.166 -10.163  -8.048  -8.040  -7.993  -7.983
 -7.983  -7.977  -7.971  -7.964  -6.013  -6.007  -6.006  -6.005
 -5.999  -5.997  -5.957  -5.954  -5.950  -5.947  -5.947  -5.943
 -5.943  -5.941  -5.940  -5.939  -5.938  -5.935  -5.933  -5.932
 -5.928  -5.927  -5.925  -5.920  -1.051  -1.036  -0.974  -0.969
 -0.959  -0.945  -0.942  -0.931  -0.921  -0.916  -0.910  -0.893
 -0.848  -0.844  -0.836  -0.829  -0.816  -0.812  -0.806  -0.805
 -0.801  -0.797  -0.797  -0.788  -0.786  -0.780  -0.769  -0.762
 -0.752  -0.749  -0.746  -0.742  -0.721  -0.720  -0.710  -0.702
 -0.693  -0.689  -0.673  -0.672  -0.652  -0.650  -0.648  -0.646
 -0.634  -0.633  -0.625  -0.624  -0.609  -0.608  -0.594  -0.593
 -0.591  -0.586  -0.583  -0.580  -0.579  -0.578  -0.562  -0.561
 -0.553  -0.548  -0.537  -0.536  -0.526  -0.520  -0.513  -0.509
 -0.506  -0.505  -0.501  -0.497  -0.491  -0.487  -0.476  -0.474
 -0.473  -0.471  -0.468  -0.468  -0.462  -0.460  -0.450  -0.445
 -0.442  -0.438  -0.437  -0.434  -0.432  -0.431  -0.429  -0.429
 -0.428  -0.427  -0.420  -0.418  -0.417  -0.414  -0.414  -0.411
 -0.410  -0.408  -0.406  -0.406  -0.399  -0.398  -0.396  -0.394
 -0.392  -0.391  -0.391  -0.389  -0.385  -0.383  -0.381  -0.381
 -0.376  -0.372  -0.372  -0.367  -0.363  -0.358  -0.358  -0.353
 -0.352  -0.351  -0.349  -0.348  -0.346  -0.345  -0.342  -0.340
 -0.336  -0.335  -0.334  -0.333  -0.330  -0.329  -0.319  -0.316
 -0.313  -0.306  -0.304  -0.302  -0.301  -0.300  -0.299  -0.297
 -0.295  -0.292  -0.292  -0.288  -0.286  -0.280  -0.280  -0.277
 -0.276  -0.272  -0.270  -0.267  -0.254  -0.254  -0.249  -0.245
 -0.244  -0.243  -0.231  -0.230  -0.194  -0.191

          Ground-State Mulliken Net Atomic Charges

     Atom                 Charge (a.u.)
  ----------------------------------------
      1 C                     0.283945
      2 C                    -0.126278
      3 N                    -0.474598
      4 C                    -0.066011
      5 C                     0.087088
      6 C                     0.022568
      7 C                     0.044553
      8 C                     0.076526
      9 C                     0.194519
     10 N                    -0.493362
     11 N                    -0.546750
     12 C                     0.230682
     13 C                     0.236355
     14 S                     0.584112
     15 N                    -0.543532
     16 C                    -0.190185
     17 S                     0.316159
     18 C                    -0.116226
     19 C                    -0.228111
     20 S                     0.292280
     21 C                     0.149990
     22 C                     0.081358
     23 C                    -0.321423
     24 C                    -0.067278
     25 N                    -0.436853
     26 S                     0.239894
     27 C                     0.112810
     28 C                    -0.298533
     29 C                    -0.224431
     30 H                     0.094963
     31 H                     0.115203
     32 H                     0.114574
     33 H                     0.114903
     34 H                     0.130330
     35 H                     0.122018
     36 H                     0.110558
     37 H                     0.135692
     38 H                     0.086101
     39 C                    -0.173710
     40 H                     0.114372
     41 H                     0.091033
     42 H                     0.106236
     43 C                    -0.182136
     44 H                     0.108872
     45 C                    -0.174542
     46 H                     0.086363
     47 H                     0.084986
     48 H                     0.085414
     49 C                    -0.181255
     50 H                     0.092351
     51 C                    -0.310779
     52 H                     0.092202
     53 H                     0.099559
     54 H                     0.107244
     55 H                     0.103548
     56 C                     0.289634
     57 C                    -0.120063
     58 N                    -0.502312
     59 C                    -0.081878
     60 C                     0.067608
     61 C                     0.067345
     62 C                     0.078762
     63 C                     0.028809
     64 C                     0.230880
     65 N                    -0.529985
     66 N                    -0.577318
     67 C                     0.189469
     68 C                     0.309398
     69 S                     0.614676
     70 N                    -0.557395
     71 C                    -0.226284
     72 S                     0.309303
     73 C                    -0.106663
     74 C                    -0.251274
     75 S                     0.283725
     76 C                     0.171305
     77 C                     0.077965
     78 C                    -0.311866
     79 C                    -0.041371
     80 N                    -0.447745
     81 S                     0.280493
     82 C                     0.134061
     83 C                    -0.306167
     84 C                    -0.252861
     85 H                     0.094286
     86 H                     0.115585
     87 H                     0.098797
     88 H                     0.104887
     89 H                     0.124713
     90 H                     0.130152
     91 H                     0.117772
     92 H                     0.119871
     93 H                     0.138686
     94 C                    -0.170190
     95 H                     0.089150
     96 H                     0.123536
     97 H                     0.096237
     98 C                    -0.178354
     99 H                     0.091840
    100 C                    -0.197971
    101 H                     0.091633
    102 H                     0.120359
    103 H                     0.089799
    104 C                    -0.181427
    105 H                     0.091054
    106 C                    -0.311270
    107 H                     0.092138
    108 H                     0.098210
    109 H                     0.092398
    110 H                     0.104485
  ----------------------------------------
  Sum of atomic charges =     0.000000

                    Cartesian Multipole Moments
 -----------------------------------------------------------------
    Charge (ESU x 10^10)
                 0.0000
    Dipole Moment (Debye)
         X       4.5575      Y      -0.0967      Z       0.0180
       Tot       4.5585
    Quadrupole Moments (Debye-Ang)
        XX    -420.0795     XY     -15.9979     YY    -430.1666
        XZ      -5.4942     YZ      -2.9623     ZZ    -423.2400

 Total job time:  87.07s(wall), 1044.98s(cpu)
        *  Thank you very much for using Q-Chem.  Have a nice day.  *
