 Q-Chem 4.4, Q-Chem, Inc., Pleasanton, CA (2016)
 Q-Chem 4.4.2 for Intel X86 Linux

User input:
--------------------------------------------------------------
$comment
SP
$end

$rem
MEM_STATIC 5000
MEM_TOTAL 20000
JOBTYPE SP
EXCHANGE B3LYP
BASIS 6-31g(d,p)
$end

$molecule
0 1
C         -17.561000     21.699000     -5.864000
C         -18.676000     21.815000     -5.028000
N         -17.005000     20.574000     -6.251000
C         -19.157000     20.655000     -4.392000
C         -17.536000     19.463000     -5.722000
C         -18.609000     19.439000     -4.744000
C         -19.182000     18.100000     -4.360000
C         -20.265000     17.581000     -5.019000
C         -18.842000     17.529000     -3.127000
N         -20.887000     16.472000     -4.639000
N         -17.845000     17.973000     -2.411000
C         -19.540000     16.465000     -2.575000
C         -20.517000     15.940000     -3.433000
S         -17.999000     17.286000     -0.970000
N         -19.188000     16.161000     -1.315000
C         -21.496000     15.013000     -2.947000
S         -21.723000     14.693000     -1.179000
C         -22.471000     14.402000     -3.713000
C         -23.001000     13.521000     -1.604000
S         -22.603000     14.170000     -5.449000
C         -23.269000     13.525000     -2.941000
C         -23.578000     12.570000     -0.642000
C         -24.090000     13.177000     -5.100000
C         -24.198000     12.870000     -3.758000
N         -24.115000     11.433000     -1.016000
S         -23.366000     12.810000      1.073000
C         -24.149000     10.504000     -0.005000
C         -23.727000     11.073000      1.191000
C         -16.935000     23.001000     -6.253000
H         -19.045000     22.822000     -4.859000
H         -19.908000     20.707000     -3.609000
H         -17.201000     18.511000     -6.131000
H         -20.535000     18.056000     -5.961000
H         -24.776000     13.011000     -5.920000
H         -25.066000     12.313000     -3.423000
H         -24.520000      9.509000     -0.214000
H         -23.572000     10.511000      2.102000
H         -16.876000     23.701000     -5.411000
C         -17.784000     23.639000     -7.358000
H         -15.876000     22.912000     -6.528000
H         -18.822000     23.385000     -7.109000
H         -17.460000     23.154000     -8.286000
C         -17.708000     25.196000     -7.598000
H         -18.108000     25.784000     -6.763000
C         -18.383000     25.554000     -8.931000
H         -16.705000     25.638000     -7.635000
H         -18.000000     24.901000     -9.724000
H         -18.141000     26.591000     -9.196000
C         -19.921000     25.259000     -8.903000
H         -20.291000     25.630000     -9.866000
C         -20.644000     26.142000     -7.841000
H         -20.237000     24.216000     -8.777000
H         -20.135000     26.173000     -6.869000
H         -21.653000     25.774000     -7.615000
H         -20.629000     27.173000     -8.216000
C         -17.575000     14.775000      3.404000
C         -17.769000     14.458000      2.080000
N         -16.428000     15.410000      3.829000
C         -16.657000     14.619000      1.237000
C         -15.438000     15.692000      2.948000
C         -15.510000     15.346000      1.593000
C         -14.302000     15.521000      0.732000
C         -13.036000     15.823000      1.250000
C         -14.316000     15.563000     -0.666000
N         -11.857000     16.034000      0.583000
N         -15.408000     15.399000     -1.462000
C         -13.192000     15.817000     -1.401000
C         -11.911000     16.066000     -0.745000
S         -14.992000     15.694000     -3.008000
N         -13.409000     15.912000     -2.761000
C         -10.672000     16.400000     -1.500000
S         -10.619000     17.180000     -3.129000
C          -9.426000     16.511000     -0.896000
C          -8.873000     17.478000     -2.954000
S          -8.796000     15.823000      0.555000
C          -8.416000     17.083000     -1.749000
C          -8.048000     18.125000     -3.945000
C          -7.244000     16.529000      0.112000
C          -7.154000     17.021000     -1.178000
N          -6.721000     17.973000     -3.867000
S          -8.793000     18.986000     -5.215000
C          -6.202000     18.571000     -4.996000
C          -7.149000     19.052000     -5.816000
C         -18.603000     14.526000      4.456000
H         -18.682000     13.964000      1.763000
H         -16.624000     14.116000      0.276000
H         -14.600000     16.210000      3.412000
H         -12.903000     15.762000      2.329000
H          -6.458000     16.435000      0.849000
H          -6.243000     17.453000     -1.578000
H          -5.142000     18.456000     -5.183000
H          -7.011000     19.631000     -6.719000
H         -18.872000     15.521000      4.831000
C         -18.113000     13.632000      5.613000
H         -19.466000     14.073000      3.951000
H         -17.175000     14.081000      5.963000
H         -17.994000     12.592000      5.285000
C         -19.086000     13.770000      6.732000
H         -19.249000     14.812000      7.033000
C         -18.563000     12.762000      7.826000
H         -20.099000     13.562000      6.364000
H         -17.563000     13.129000      8.084000
H         -18.410000     11.730000      7.488000
C         -19.495000     12.767000      9.099000
H         -19.147000     12.046000      9.850000
C         -20.967000     12.703000      8.886000
H         -19.396000     13.756000      9.563000
H         -21.505000     12.585000      9.835000
H         -21.115000     11.743000      8.378000
H         -21.479000     13.464000      8.284000
$end

--------------------------------------------------------------

             Standard Nuclear Orientation (Angstroms)
    I     Atom           X                Y                Z
 ----------------------------------------------------------------
    1      C       3.1546007033    -5.5441068873    -1.5675935219
    2      C       1.9730096814    -5.6498466690    -2.3080249875
    3      N       3.2692846329    -5.0002420847    -0.3778083846
    4      C       0.8309008817    -4.9709829496    -1.8430641933
    5      C       2.1496244023    -4.4456973237     0.1069225470
    6      C       0.8859487476    -4.3672705756    -0.6039656896
    7      C      -0.3100659063    -3.8367591039     0.1422330279
    8      C      -1.1571317205    -4.6818576598     0.8091805050
    9      C      -0.7632687909    -2.5358348824    -0.1110125353
   10      N      -2.2916140816    -4.2834020805     1.3707389825
   11      N      -0.0408270919    -1.6670793896    -0.7645742275
   12      C      -2.0071282608    -2.0811190614     0.3013600404
   13      C      -2.6929959482    -3.0013274330     1.1070399199
   14      S      -1.0267055939    -0.4519089175    -1.1160999065
   15      N      -2.3453291639    -0.8723202262    -0.1764950896
   16      C      -4.0798208868    -2.8127759225     1.4154729234
   17      S      -5.0935251250    -1.5740101825     0.5683506426
   18      C      -4.8373008264    -3.6300914593     2.2333491086
   19      C      -6.4735512850    -2.0798888301     1.5818138100
   20      S      -4.3670125102    -4.8077049638     3.4486677227
   21      C      -6.1671850372    -3.1620618357     2.3528198465
   22      C      -7.7302992963    -1.3215709163     1.6729860515
   23      C      -6.1414350979    -4.9743372057     3.8263940468
   24      C      -6.8864769324    -3.9691869155     3.2420460691
   25      N      -8.5133901625    -1.3856362448     2.7235470107
   26      S      -8.1239568064    -0.1165134624     0.4743871621
   27      C      -9.3388317829    -0.2938832862     2.8377381172
   28      C      -9.2165532567     0.5255320427     1.7215537773
   29      C       4.3795554054    -6.0316058061    -2.2748641787
   30      H       2.0441384240    -6.1865238557    -3.2491356608
   31      H      -0.0621863097    -4.8780678013    -2.4542565065
   32      H       2.1684889580    -4.1191732064     1.1455929131
   33      H      -0.8023946068    -5.6986687602     0.9708770301
   34      H      -6.4501528357    -5.8607572796     4.3644505596
   35      H      -7.9637123086    -3.9853297310     3.3653398392
   36      H      -9.9899954328    -0.2115341448     3.6982911487
   37      H      -9.6902931439     1.4937107136     1.6321637298
   38      H       4.4021787029    -5.7222557508    -3.3266415932
   39      C       4.3985232697    -7.5630076244    -2.2172560978
   40      H       5.3082557201    -5.5803309721    -1.9021796611
   41      H       3.3482625322    -7.8691753533    -2.3019597279
   42      H       4.8137307523    -7.8087708999    -1.2330873324
   43      C       5.2292894372    -8.3726227155    -3.2858888594
   44      H       4.8333717536    -8.2800678408    -4.3045408034
   45      C       5.3571568425    -9.8397675479    -2.8479231445
   46      H       6.2498625996    -8.0221294582    -3.4816614234
   47      H       5.6946732652    -9.8842015833    -1.8057833838
   48      H       6.1069394612   -10.3430115706    -3.4714048831
   49      C       3.9694483969   -10.5658782096    -2.8311428968
   50      H       4.2060830123   -11.6083489506    -2.5878964928
   51      C       3.3505429015   -10.6297115404    -4.2605285318
   52      H       3.2112714062   -10.1985792044    -2.1284053273
   53      H       3.3976153310    -9.6790652366    -4.8072293564
   54      H       2.2833688189   -10.8850795466    -4.2379972471
   55      H       3.9563708773   -11.3358778483    -4.8420030448
   56      C      -3.4800256895     3.9317528397    -1.7337592841
   57      C      -3.2578767356     3.0422268641    -0.7088230027
   58      N      -2.4392791147     4.5997643068    -2.3420899893
   59      C      -1.9558455166     3.0192987980    -0.1822273243
   60      C      -1.1689854245     4.4276741172    -1.9033145260
   61      C      -0.8482443420     3.5988725280    -0.8211231918
   62      C       0.5448398652     3.6119342582    -0.2822764761
   63      C       1.5014549067     4.5590183567    -0.6698372750
   64      C       1.0977571655     2.6152799676     0.5284803826
   65      N       2.8108281016     4.6743318412    -0.2803560345
   66      N       0.4508691506     1.5134990878     0.9981513196
   67      C       2.4076830155     2.6331376630     0.9182140997
   68      C       3.2995865332     3.7078916197     0.4907681409
   69      S       1.5204793975     0.5474118902     1.7549910956
   70      N       2.8039131070     1.5239244905     1.6381876078
   71      C       4.7454000354     3.7420748748     0.8445432417
   72      S       5.7630392902     2.2979444266     1.2236838432
   73      C       5.5693417984     4.8216476718     0.5524892276
   74      C       7.2416471690     3.2820223769     1.1085563989
   75      S       5.2157144320     6.4905273162     0.2966896610
   76      C       6.9707183688     4.5525419934     0.7490059998
   77      C       8.5792409191     2.7787687445     1.3057713604
   78      C       6.9551535242     6.7554408278     0.2097329141
   79      C       7.7455073521     5.6945812726     0.6149264863
   80      N       9.5603424520     3.6553571499     1.5489781645
   81      S       8.8438253899     1.0937698389     1.3013277097
   82      C      10.6821220904     2.9037301075     1.8287517015
   83      C      10.4420982456     1.5835246558     1.8247368212
   84      C      -4.8336554114     4.1863322024    -2.3067906306
   85      H      -4.0896507029     2.5202265434    -0.2464792641
   86      H      -1.7718407222     2.5929035801     0.7985623340
   87      H      -0.4451196431     4.9984115622    -2.4830912929
   88      H       1.1615258582     5.4104176827    -1.2573901915
   89      H       7.2647209084     7.7557995763    -0.0609170607
   90      H       8.8288315937     5.7451960362     0.6347187410
   91      H      11.5659841150     3.4281044760     2.1687714704
   92      H      11.1579962263     0.7802080660     1.9336704605
   93      H      -4.7669985833     3.8548321947    -3.3501868219
   94      C      -5.2754686751     5.6622882576    -2.2409137506
   95      H      -5.5336136243     3.5442574241    -1.7565166269
   96      H      -4.4558029164     6.2412581086    -2.6846332067
   97      H      -5.5017983992     5.9608464448    -1.2099031470
   98      C      -6.4427586052     5.8240845612    -3.1515125510
   99      H      -6.2407420848     5.4808585145    -4.1734319247
  100      C      -6.8826130225     7.3253587149    -2.9536919073
  101      H      -7.2117640302     5.0836926955    -2.8959591486
  102      H      -6.0122342401     7.9119254674    -3.2693392105
  103      H      -7.0739596155     7.6328068732    -1.9185401738
  104      C      -8.1344507707     7.6759942806    -3.8476353911
  105      H      -8.4579440538     8.7130995080    -3.6904385618
  106      C      -9.2742418515     6.7183850969    -3.8581207719
  107      H      -7.8063523259     7.6184036513    -4.8927443472
  108      H     -10.1329517222     7.1226958705    -4.4086833536
  109      H      -9.6123624919     6.7047622330    -2.8155005870
  110      H      -9.1247644271     5.6736846892    -4.1579983433
 ----------------------------------------------------------------

   10   -5663.4846243573      4.51E-06 Convergence criterion met
 Total energy in the final basis set = -5663.4846243573

                    Orbital Energies (a.u.)
 --------------------------------------------------------------

 Alpha MOs
 -- Occupied --
-88.992 -88.987 -88.929 -88.926 -88.925 -88.923 -88.908 -88.907
-14.389 -14.385 -14.377 -14.375 -14.351 -14.348 -14.342 -14.339
-14.329 -14.326 -10.269 -10.267 -10.265 -10.258 -10.254 -10.252
-10.250 -10.246 -10.241 -10.241 -10.239 -10.236 -10.233 -10.232
-10.232 -10.231 -10.229 -10.228 -10.227 -10.227 -10.226 -10.226
-10.225 -10.225 -10.224 -10.223 -10.221 -10.215 -10.212 -10.212
-10.211 -10.208 -10.206 -10.201 -10.198 -10.197 -10.197 -10.191
-10.183 -10.182 -10.181 -10.180 -10.180 -10.179 -10.179 -10.175
-10.175 -10.174 -10.171 -10.168  -8.047  -8.042  -7.992  -7.987
 -7.984  -7.981  -7.969  -7.966  -6.012  -6.007  -6.007  -6.005
 -6.002  -6.000  -5.955  -5.952  -5.951  -5.949  -5.948  -5.948
 -5.945  -5.945  -5.944  -5.942  -5.940  -5.938  -5.933  -5.931
 -5.930  -5.927  -5.925  -5.922  -1.048  -1.036  -0.972  -0.968
 -0.963  -0.958  -0.948  -0.931  -0.915  -0.909  -0.906  -0.893
 -0.842  -0.838  -0.836  -0.835  -0.814  -0.813  -0.811  -0.808
 -0.804  -0.800  -0.798  -0.796  -0.787  -0.785  -0.770  -0.765
 -0.752  -0.745  -0.744  -0.735  -0.723  -0.719  -0.711  -0.711
 -0.694  -0.693  -0.677  -0.671  -0.654  -0.654  -0.649  -0.641
 -0.638  -0.634  -0.632  -0.623  -0.613  -0.608  -0.601  -0.594
 -0.594  -0.591  -0.585  -0.582  -0.579  -0.577  -0.566  -0.554
 -0.552  -0.550  -0.541  -0.536  -0.525  -0.524  -0.512  -0.510
 -0.506  -0.505  -0.500  -0.496  -0.496  -0.487  -0.479  -0.473
 -0.472  -0.470  -0.469  -0.467  -0.462  -0.458  -0.455  -0.451
 -0.448  -0.443  -0.441  -0.436  -0.432  -0.431  -0.431  -0.428
 -0.428  -0.425  -0.423  -0.420  -0.419  -0.415  -0.415  -0.413
 -0.410  -0.410  -0.405  -0.403  -0.400  -0.399  -0.397  -0.396
 -0.395  -0.394  -0.392  -0.389  -0.388  -0.387  -0.384  -0.383
 -0.381  -0.379  -0.375  -0.372  -0.365  -0.364  -0.356  -0.354
 -0.354  -0.353  -0.351  -0.350  -0.348  -0.347  -0.345  -0.340
 -0.340  -0.338  -0.337  -0.330  -0.326  -0.325  -0.318  -0.318
 -0.316  -0.313  -0.307  -0.305  -0.303  -0.302  -0.301  -0.299
 -0.294  -0.292  -0.291  -0.290  -0.290  -0.288  -0.280  -0.279
 -0.278  -0.274  -0.272  -0.261  -0.253  -0.252  -0.248  -0.246
 -0.244  -0.241  -0.236  -0.231  -0.193  -0.193

          Ground-State Mulliken Net Atomic Charges

     Atom                 Charge (a.u.)
  ----------------------------------------
      1 C                     0.280051
      2 C                    -0.105276
      3 N                    -0.468256
      4 C                    -0.064114
      5 C                     0.072065
      6 C                     0.025373
      7 C                    -0.024389
      8 C                     0.086048
      9 C                     0.211094
     10 N                    -0.497435
     11 N                    -0.534849
     12 C                     0.252495
     13 C                     0.272779
     14 S                     0.628254
     15 N                    -0.592716
     16 C                    -0.221340
     17 S                     0.316974
     18 C                    -0.111183
     19 C                    -0.235383
     20 S                     0.263891
     21 C                     0.174515
     22 C                     0.067520
     23 C                    -0.307499
     24 C                    -0.041930
     25 N                    -0.432388
     26 S                     0.246834
     27 C                     0.129612
     28 C                    -0.317139
     29 C                    -0.237586
     30 H                     0.095835
     31 H                     0.099041
     32 H                     0.097165
     33 H                     0.112005
     34 H                     0.133629
     35 H                     0.119077
     36 H                     0.123714
     37 H                     0.125273
     38 H                     0.101468
     39 C                    -0.176658
     40 H                     0.110075
     41 H                     0.101631
     42 H                     0.110344
     43 C                    -0.183976
     44 H                     0.090254
     45 C                    -0.176671
     46 H                     0.085843
     47 H                     0.094676
     48 H                     0.088128
     49 C                    -0.181599
     50 H                     0.093834
     51 C                    -0.317400
     52 H                     0.100934
     53 H                     0.098283
     54 H                     0.097181
     55 H                     0.102368
     56 C                     0.268259
     57 C                    -0.123381
     58 N                    -0.495861
     59 C                    -0.089317
     60 C                     0.061419
     61 C                     0.060792
     62 C                     0.080965
     63 C                     0.029416
     64 C                     0.234744
     65 N                    -0.529083
     66 N                    -0.588332
     67 C                     0.187848
     68 C                     0.310211
     69 S                     0.625352
     70 N                    -0.554905
     71 C                    -0.225765
     72 S                     0.312738
     73 C                    -0.107024
     74 C                    -0.252670
     75 S                     0.286157
     76 C                     0.170890
     77 C                     0.077219
     78 C                    -0.311400
     79 C                    -0.042029
     80 N                    -0.448135
     81 S                     0.283900
     82 C                     0.134309
     83 C                    -0.306745
     84 C                    -0.230852
     85 H                     0.105913
     86 H                     0.121994
     87 H                     0.104651
     88 H                     0.107978
     89 H                     0.124844
     90 H                     0.130161
     91 H                     0.117498
     92 H                     0.120195
     93 H                     0.118001
     94 C                    -0.166860
     95 H                     0.090154
     96 H                     0.126160
     97 H                     0.095712
     98 C                    -0.173592
     99 H                     0.096628
    100 C                    -0.184078
    101 H                     0.088560
    102 H                     0.099558
    103 H                     0.092802
    104 C                    -0.180348
    105 H                     0.087760
    106 C                    -0.310051
    107 H                     0.090839
    108 H                     0.098845
    109 H                     0.092865
    110 H                     0.104615
  ----------------------------------------
  Sum of atomic charges =     0.000000

                    Cartesian Multipole Moments
 -----------------------------------------------------------------
    Charge (ESU x 10^10)
                 0.0000
    Dipole Moment (Debye)
         X      -0.4067      Y      -1.1728      Z      -0.6808
       Tot       1.4158
    Quadrupole Moments (Debye-Ang)
        XX    -393.2912     XY     -10.0111     YY    -438.7748
        XZ      -6.3976     YZ       8.5821     ZZ    -443.9749

 Total job time:  90.88s(wall), 1068.83s(cpu)
        *  Thank you very much for using Q-Chem.  Have a nice day.  *
