 Q-Chem 4.4, Q-Chem, Inc., Pleasanton, CA (2016)
 Q-Chem 4.4.2 for Intel X86 Linux

User input:
--------------------------------------------------------------
$comment
SP
$end

$rem
MEM_STATIC 5000
MEM_TOTAL 20000
JOBTYPE SP
EXCHANGE B3LYP
BASIS 6-31g(d,p)
$end

$molecule
0 1
C         -13.296000     12.157000     -7.563000
C         -13.507000     12.886000     -6.374000
N         -12.703000     12.722000     -8.687000
C         -13.044000     14.228000     -6.284000
C         -12.342000     14.013000     -8.618000
C         -12.492000     14.837000     -7.441000
C         -12.180000     16.316000     -7.513000
C         -11.117000     16.845000     -8.233000
C         -12.968000     17.288000     -6.823000
N         -10.838000     18.153000     -8.195000
N         -13.938000     16.940000     -5.929000
C         -12.644000     18.662000     -6.851000
C         -11.545000     19.054000     -7.673000
S         -14.462000     18.366000     -5.326000
N         -13.434000     19.403000     -6.010000
C         -10.934000     20.372000     -7.731000
S         -11.504000     21.705000     -6.869000
C          -9.759000     20.714000     -8.451000
C         -10.135000     22.776000     -7.391000
S          -8.747000     19.834000     -9.596000
C          -9.363000     22.060000     -8.318000
C          -9.944000     24.188000     -7.003000
C          -7.677000     21.308000     -9.686000
C          -8.140000     22.376000     -8.944000
N         -10.542000     24.585000     -5.924000
S          -8.910000     25.385000     -7.832000
C         -10.231000     25.935000     -5.619000
C          -9.471000     26.587000     -6.603000
C         -13.696000     10.616000     -7.611000
H         -13.955000     12.372000     -5.529000
H         -13.132000     14.693000     -5.307000
H         -11.952000     14.349000     -9.577000
H         -10.439000     16.227000     -8.819000
H          -6.821000     21.371000    -10.344000
H          -7.582000     23.304000     -8.993000
H         -10.734000     26.441000     -4.805000
H          -9.188000     27.617000     -6.777000
H         -14.665000     10.375000     -7.156000
C         -12.579000      9.824000     -6.881000
H         -13.704000     10.274000     -8.653000
H         -12.471000     10.053000     -5.813000
H         -11.580000     10.076000     -7.256000
C         -12.857000      8.326000     -6.966000
H         -13.795000      8.093000     -6.447000
C         -11.739000      7.510000     -6.320000
H         -13.047000      8.042000     -8.008000
H         -11.768000      7.684000     -5.237000
H         -10.759000      7.756000     -6.747000
C         -11.985000      6.056000     -6.507000
H         -13.024000      5.844000     -6.226000
C         -11.071000      5.212000     -5.596000
H         -11.851000      5.819000     -7.570000
H          -9.986000      5.305000     -5.731000
H         -11.239000      4.141000     -5.761000
H         -11.269000      5.493000     -4.554000
C         -17.575000     14.775000      3.404000
C         -17.769000     14.458000      2.080000
N         -16.428000     15.410000      3.829000
C         -16.657000     14.619000      1.237000
C         -15.438000     15.692000      2.948000
C         -15.510000     15.346000      1.593000
C         -14.302000     15.521000      0.732000
C         -13.036000     15.823000      1.250000
C         -14.316000     15.563000     -0.666000
N         -11.857000     16.034000      0.583000
N         -15.408000     15.399000     -1.462000
C         -13.192000     15.817000     -1.401000
C         -11.911000     16.066000     -0.745000
S         -14.992000     15.694000     -3.008000
N         -13.409000     15.912000     -2.761000
C         -10.672000     16.400000     -1.500000
S         -10.619000     17.180000     -3.129000
C          -9.426000     16.511000     -0.896000
C          -8.873000     17.478000     -2.954000
S          -8.796000     15.823000      0.555000
C          -8.416000     17.083000     -1.749000
C          -8.048000     18.125000     -3.945000
C          -7.244000     16.529000      0.112000
C          -7.154000     17.021000     -1.178000
N          -6.721000     17.973000     -3.867000
S          -8.793000     18.986000     -5.215000
C          -6.202000     18.571000     -4.996000
C          -7.149000     19.052000     -5.816000
C         -18.603000     14.526000      4.456000
H         -18.682000     13.964000      1.763000
H         -16.624000     14.116000      0.276000
H         -14.600000     16.210000      3.412000
H         -12.903000     15.762000      2.329000
H          -6.458000     16.435000      0.849000
H          -6.243000     17.453000     -1.578000
H          -5.142000     18.456000     -5.183000
H          -7.011000     19.631000     -6.719000
H         -18.872000     15.521000      4.831000
C         -18.113000     13.632000      5.613000
H         -19.466000     14.073000      3.951000
H         -17.175000     14.081000      5.963000
H         -17.994000     12.592000      5.285000
C         -19.086000     13.770000      6.732000
H         -19.249000     14.812000      7.033000
C         -18.563000     12.762000      7.826000
H         -20.099000     13.562000      6.364000
H         -17.563000     13.129000      8.084000
H         -18.410000     11.730000      7.488000
C         -19.495000     12.767000      9.099000
H         -19.147000     12.046000      9.850000
C         -20.967000     12.703000      8.886000
H         -19.396000     13.756000      9.563000
H         -21.505000     12.585000      9.835000
H         -21.115000     11.743000      8.378000
H         -21.479000     13.464000      8.284000
$end

--------------------------------------------------------------

             Standard Nuclear Orientation (Angstroms)
    I     Atom           X                Y                Z
 ----------------------------------------------------------------
    1      C       0.0588036768    -5.9390805411    -1.7771850899
    2      C      -0.5200942178    -4.6651873341    -1.5989820462
    3      N       1.4341865571    -6.1257574903    -1.8650693845
    4      C       0.3216896198    -3.5300283027    -1.4369729596
    5      C       2.2162529731    -5.0373572390    -1.7907725892
    6      C       1.7235585911    -3.6951752930    -1.5843631182
    7      C       2.6790386575    -2.5237643304    -1.6538123757
    8      C       3.9715276650    -2.5526727018    -1.1470121474
    9      C       2.3055588120    -1.2794705336    -2.2488533426
   10      N       4.7452909268    -1.4612390722    -1.1615739828
   11      N       1.0254375200    -1.0109974364    -2.6367343473
   12      C       3.1816997800    -0.1723575950    -2.2665718395
   13      C       4.4943838330    -0.3739014993    -1.7437050958
   14      S       1.0719881784     0.5453650370    -3.1339565185
   15      N       2.5813534090     0.9621822922    -2.7491332131
   16      C       5.5004201700     0.6496687803    -1.5113179805
   17      S       5.2923092649     2.2736016269    -1.9167374682
   18      C       6.7509209758     0.4568865906    -0.8670573485
   19      C       6.8659891353     2.7832068299    -1.1700647135
   20      S       7.6037068399    -0.9758116344    -0.2928613316
   21      C       7.5320062542     1.6236962935    -0.7458884371
   22      C       7.4005274661     4.1592718371    -1.1315566772
   23      C       8.9314159230     0.1276235708     0.2947570296
   24      C       8.7249282258     1.4572966840    -0.0132839466
   25      N       6.5460365903     5.1236835808    -1.2701544109
   26      S       9.0981329020     4.6296511144    -0.8381540197
   27      C       7.1655754544     6.3940666070    -1.1495535719
   28      C       8.5649857756     6.3447007894    -1.0486884684
   29      C      -0.8845255800    -7.2216307012    -1.8238755612
   30      H      -1.6006857074    -4.5990946919    -1.5160435427
   31      H      -0.1816419871    -2.6010799115    -1.1875532731
   32      H       3.2598103660    -5.3101480932    -1.9365467902
   33      H       4.3988284647    -3.4370555027    -0.6776667648
   34      H       9.8428418782    -0.2411050643     0.7453243627
   35      H       9.5001296044     2.1644239172     0.2587140293
   36      H       6.6016001239     7.2974740058    -1.3430164843
   37      H       9.3503515418     7.0879875442    -1.0933025172
   38      H      -1.7955976014    -7.1044228450    -2.4241064253
   39      C      -1.2775805022    -7.5616703374    -0.3617764285
   40      H      -0.3177538878    -8.0767955531    -2.2115028630
   41      H      -1.8728868469    -6.7935934388     0.1485148941
   42      H      -0.4037810520    -7.6280340191     0.2971624022
   43      C      -2.1142488497    -8.8373161232    -0.3267492148
   44      H      -3.0522051589    -8.6805981105    -0.8737148687
   45      C      -2.4590060533    -9.2434349046     1.1047905178
   46      H      -1.6047646837    -9.6311724958    -0.8859789924
   47      H      -3.1585278606    -8.5032465757     1.5131977640
   48      H      -1.5601536345    -9.3419241297     1.7257649148
   49      C      -3.1849892784   -10.5405314659     1.1142703655
   50      H      -3.9902433231   -10.4894479329     0.3710460412
   51      C      -3.8309541091   -10.8103580180     2.4881612160
   52      H      -2.4817991609   -11.3297641732     0.8197718215
   53      H      -3.1688975311   -10.8839752588     3.3601477924
   54      H      -4.3399090399   -11.7816509431     2.4948643637
   55      H      -4.5272212806    -9.9913870344     2.7082238296
   56      C      -8.4907307092     2.5537306635    -1.3119178289
   57      C      -7.7983318341     1.5782211961    -1.9901995378
   58      N      -7.9228641555     3.2342278981    -0.2564984379
   59      C      -6.5823475710     1.1716670837    -1.4164312695
   60      C      -6.6761834783     2.9164258912     0.1684417621
   61      C      -5.9181703201     1.8910799070    -0.4103558403
   62      C      -4.6363310669     1.4795079127     0.2367195978
   63      C      -4.2481515440     1.9248402180     1.5068691149
   64      C      -3.6218017497     0.7499630057    -0.3916580699
   65      N      -3.1005186727     1.6515816265     2.2052383116
   66      N      -3.6576457036     0.2550620133    -1.6592401061
   67      C      -2.4298475401     0.4792308131     0.2199514804
   68      C      -2.1602525702     0.9548792833     1.5743425188
   69      S      -2.2028147606    -0.3752074128    -2.0285968147
   70      N      -1.5123602438    -0.1708703324    -0.5808603339
   71      C      -0.8582487091     0.7317060066     2.2611333418
   72      S       0.7302149228     0.4861668824     1.4356978032
   73      C      -0.6386255609     1.0663190638     3.5913411356
   74      C       1.5908243473     0.7061708537     2.9780643845
   75      S      -1.7267277226     1.2424722355     4.9182355345
   76      C       0.7456241187     1.0042001828     3.9848980810
   77      C       3.0237226042     0.6441769215     3.1338666237
   78      C      -0.3085017925     1.4780123554     5.9363441060
   79      C       0.9081703781     1.1753729201     5.3512097612
   80      N       3.5239250863     0.4657190922     4.3619005321
   81      S       4.0157924023     0.7195564219     1.7484564149
   82      C       4.8843986054     0.3090831805     4.2000889286
   83      C       5.2642190385     0.3284570550     2.9132590674
   84      C      -9.8609979930     2.9953905400    -1.7028054399
   85      H      -8.2597301800     1.0577628314    -2.8234633957
   86      H      -6.1361170361     0.2237143539    -1.6990669567
   87      H      -6.3434684644     3.5427296586     0.9948244280
   88      H      -4.9874321921     2.4553878726     2.1048944568
   89      H      -0.5082728276     1.7472887336     6.9646352932
   90      H       1.8497220369     1.2516487390     5.8843208878
   91      H       5.4655231227     0.0353596426     5.0713889459
   92      H       6.2714609896     0.3068578463     2.5199511395
   93      H      -9.7496679482     4.0494231907    -1.9849964962
   94      C     -10.9108531393     2.8487686061    -0.5828540211
   95      H     -10.1431460889     2.4026048119    -2.5825784405
   96      H     -10.4840906187     3.3480021024     0.2961139347
   97      H     -11.1503852033     1.7936331499    -0.4021372280
   98      C     -12.1052130743     3.6458463282    -0.9779558441
   99      H     -11.8663590043     4.6909954353    -1.2093560976
  100      C     -13.1524547675     3.3673342664     0.1675330766
  101      H     -12.4318822278     3.3430161450    -1.9811697516
  102      H     -12.6721575772     3.7434113873     1.0781008161
  103      H     -13.3645180278     2.3109724061     0.3719977277
  104      C     -14.5052675440     4.1349431946    -0.0967624499
  105      H     -15.2442561178     3.9203293923     0.6860419980
  106      C     -15.0884233030     4.0697145398    -1.4649450339
  107      H     -14.2849459207     5.2065185731    -0.0167462610
  108      H     -16.0842039335     4.5293101707    -1.4990301012
  109      H     -15.2858693076     3.0017092920    -1.6130931554
  110      H     -14.5138736655     4.4109427266    -2.3350743569
 ----------------------------------------------------------------

   10   -5663.5262247137      8.68E-06 Convergence criterion met
 Total energy in the final basis set = -5663.5262247137

                    Orbital Energies (a.u.)
 --------------------------------------------------------------

 Alpha MOs
 -- Occupied --
-88.993 -88.992 -88.928 -88.927 -88.924 -88.922 -88.918 -88.907
-14.393 -14.388 -14.385 -14.374 -14.350 -14.346 -14.343 -14.337
-14.333 -14.324 -10.276 -10.266 -10.262 -10.261 -10.261 -10.259
-10.254 -10.251 -10.248 -10.242 -10.241 -10.240 -10.240 -10.239
-10.238 -10.237 -10.236 -10.234 -10.232 -10.231 -10.229 -10.228
-10.225 -10.224 -10.223 -10.223 -10.221 -10.219 -10.217 -10.217
-10.213 -10.213 -10.210 -10.207 -10.200 -10.199 -10.196 -10.193
-10.189 -10.181 -10.180 -10.179 -10.175 -10.174 -10.174 -10.174
-10.173 -10.171 -10.171 -10.166  -8.048  -8.048  -7.988  -7.986
 -7.986  -7.980  -7.977  -7.968  -6.013  -6.013  -6.007  -6.007
 -6.006  -6.005  -5.952  -5.951  -5.949  -5.949  -5.947  -5.946
 -5.945  -5.945  -5.943  -5.943  -5.941  -5.941  -5.938  -5.937
 -5.933  -5.932  -5.928  -5.924  -1.041  -1.036  -0.984  -0.967
 -0.963  -0.957  -0.929  -0.927  -0.913  -0.907  -0.905  -0.893
 -0.848  -0.841  -0.835  -0.832  -0.812  -0.812  -0.808  -0.806
 -0.803  -0.796  -0.794  -0.794  -0.786  -0.785  -0.772  -0.768
 -0.750  -0.748  -0.743  -0.743  -0.730  -0.717  -0.709  -0.709
 -0.693  -0.692  -0.675  -0.670  -0.655  -0.653  -0.649  -0.647
 -0.633  -0.631  -0.624  -0.622  -0.609  -0.606  -0.601  -0.596
 -0.592  -0.587  -0.582  -0.580  -0.579  -0.578  -0.572  -0.565
 -0.550  -0.549  -0.544  -0.535  -0.529  -0.523  -0.516  -0.508
 -0.506  -0.504  -0.501  -0.495  -0.487  -0.486  -0.482  -0.479
 -0.472  -0.471  -0.470  -0.467  -0.466  -0.461  -0.453  -0.449
 -0.443  -0.443  -0.442  -0.438  -0.435  -0.433  -0.430  -0.429
 -0.428  -0.427  -0.425  -0.423  -0.419  -0.418  -0.416  -0.411
 -0.410  -0.407  -0.404  -0.402  -0.399  -0.399  -0.397  -0.396
 -0.395  -0.394  -0.393  -0.392  -0.391  -0.386  -0.385  -0.382
 -0.376  -0.374  -0.372  -0.371  -0.364  -0.363  -0.357  -0.355
 -0.355  -0.353  -0.352  -0.352  -0.349  -0.348  -0.345  -0.343
 -0.342  -0.339  -0.336  -0.335  -0.328  -0.328  -0.325  -0.320
 -0.319  -0.316  -0.307  -0.304  -0.302  -0.301  -0.300  -0.299
 -0.297  -0.291  -0.289  -0.288  -0.285  -0.284  -0.283  -0.278
 -0.276  -0.272  -0.271  -0.267  -0.258  -0.253  -0.249  -0.246
 -0.246  -0.243  -0.238  -0.229  -0.199  -0.191

          Ground-State Mulliken Net Atomic Charges

     Atom                 Charge (a.u.)
  ----------------------------------------
      1 C                     0.246398
      2 C                    -0.116607
      3 N                    -0.476100
      4 C                    -0.063130
      5 C                     0.077420
      6 C                     0.016553
      7 C                     0.036210
      8 C                     0.050558
      9 C                     0.222848
     10 N                    -0.508466
     11 N                    -0.567902
     12 C                     0.179984
     13 C                     0.360695
     14 S                     0.621080
     15 N                    -0.549134
     16 C                    -0.232533
     17 S                     0.357483
     18 C                    -0.122954
     19 C                    -0.229708
     20 S                     0.268919
     21 C                     0.127072
     22 C                     0.068863
     23 C                    -0.311096
     24 C                    -0.070142
     25 N                    -0.424268
     26 S                     0.242252
     27 C                     0.110739
     28 C                    -0.303166
     29 C                    -0.225634
     30 H                     0.090929
     31 H                     0.136548
     32 H                     0.105829
     33 H                     0.119706
     34 H                     0.126426
     35 H                     0.125083
     36 H                     0.123082
     37 H                     0.143319
     38 H                     0.103258
     39 C                    -0.177654
     40 H                     0.120095
     41 H                     0.092102
     42 H                     0.107516
     43 C                    -0.178386
     44 H                     0.087435
     45 C                    -0.159710
     46 H                     0.090344
     47 H                     0.087652
     48 H                     0.093996
     49 C                    -0.170724
     50 H                     0.090631
     51 C                    -0.322071
     52 H                     0.092354
     53 H                     0.101057
     54 H                     0.096839
     55 H                     0.100297
     56 C                     0.268491
     57 C                    -0.118766
     58 N                    -0.496345
     59 C                    -0.080892
     60 C                     0.062055
     61 C                     0.066542
     62 C                     0.077570
     63 C                     0.029638
     64 C                     0.225030
     65 N                    -0.529019
     66 N                    -0.575015
     67 C                     0.193229
     68 C                     0.311490
     69 S                     0.616135
     70 N                    -0.575303
     71 C                    -0.228074
     72 S                     0.303903
     73 C                    -0.106961
     74 C                    -0.252484
     75 S                     0.284711
     76 C                     0.171008
     77 C                     0.066075
     78 C                    -0.311131
     79 C                    -0.041107
     80 N                    -0.452024
     81 S                     0.303557
     82 C                     0.131983
     83 C                    -0.312616
     84 C                    -0.230917
     85 H                     0.092260
     86 H                     0.113957
     87 H                     0.104464
     88 H                     0.107936
     89 H                     0.124090
     90 H                     0.130769
     91 H                     0.114622
     92 H                     0.132414
     93 H                     0.118858
     94 C                    -0.166773
     95 H                     0.088225
     96 H                     0.126338
     97 H                     0.095146
     98 C                    -0.174100
     99 H                     0.096657
    100 C                    -0.183660
    101 H                     0.089449
    102 H                     0.099163
    103 H                     0.092754
    104 C                    -0.180099
    105 H                     0.087416
    106 C                    -0.310491
    107 H                     0.090593
    108 H                     0.098574
    109 H                     0.093683
    110 H                     0.104802
  ----------------------------------------
  Sum of atomic charges =     0.000000

                    Cartesian Multipole Moments
 -----------------------------------------------------------------
    Charge (ESU x 10^10)
                 0.0000
    Dipole Moment (Debye)
         X       2.3492      Y       0.4667      Z      -0.7490
       Tot       2.5095
    Quadrupole Moments (Debye-Ang)
        XX    -392.9834     XY      32.3535     YY    -442.1576
        XZ      18.9072     YZ      -3.7281     ZZ    -440.8735

 Total job time:  95.28s(wall), 1134.23s(cpu)
        *  Thank you very much for using Q-Chem.  Have a nice day.  *
