 Q-Chem 4.4, Q-Chem, Inc., Pleasanton, CA (2016)
 Q-Chem 4.4.2 for Intel X86 Linux

User input:
--------------------------------------------------------------
$comment
SP
$end

$rem
MEM_STATIC 5000
MEM_TOTAL 20000
JOBTYPE SP
EXCHANGE B3LYP
BASIS 6-31g(d,p)
$end

$molecule
0 1
C          12.212000     29.930000      6.050000
C          12.413000     28.888000      5.198000
N          11.702000     29.723000      7.272000
C          11.695000     27.654000      5.441000
C          11.123000     28.563000      7.516000
C          11.014000     27.431000      6.684000
C          10.075000     26.286000      6.860000
C           9.444000     25.801000      5.736000
C           9.646000     25.808000      8.124000
N           8.440000     24.950000      5.797000
N          10.091000     26.312000      9.326000
C           8.659000     24.870000      8.208000
C           8.062000     24.404000      7.001000
S           9.324000     25.505000     10.525000
N           8.265000     24.682000      9.476000
C           6.914000     23.477000      7.003000
S           6.636000     22.442000      8.421000
C           6.151000     23.080000      5.880000
C           5.321000     21.615000      7.516000
S           6.033000     23.708000      4.267000
C           5.336000     21.990000      6.170000
C           4.512000     20.548000      8.005000
C           4.761000     22.425000      3.975000
C           4.479000     21.659000      5.069000
N           4.953000     19.891000      9.096000
S           2.890000     20.162000      7.565000
C           4.071000     18.964000      9.569000
C           2.904000     18.954000      8.840000
C          12.908000     31.243000      5.846000
H          13.025000     28.966000      4.305000
H          11.624000     26.885000      4.678000
H          10.615000     28.499000      8.477000
H           9.714000     26.200000      4.760000
H           4.399000     22.322000      2.960000
H           3.863000     20.767000      5.052000
H           4.369000     18.264000     10.339000
H           2.027000     18.339000      8.989000
H          13.702000     31.396000      6.588000
C          11.899000     32.461000      5.791000
H          13.386000     31.164000      4.862000
H          11.502000     32.692000      6.788000
H          11.040000     32.191000      5.165000
C          12.477000     33.740000      5.245000
H          13.234000     33.945000      6.012000
C          11.425000     34.866000      5.253000
H          12.786000     33.676000      4.194000
H          11.957000     35.824000      5.292000
H          10.904000     34.873000      6.218000
C          10.463000     34.773000      4.019000
H          11.091000     34.667000      3.125000
C           9.539000     36.078000      3.816000
H           9.863000     33.858000      4.089000
H          10.126000     37.004000      3.828000
H           8.829000     36.186000      4.645000
H           9.057000     36.069000      2.830000
C          -6.372000     27.211000      9.212000
C          -5.215000     26.747000      8.552000
N          -6.460000     27.481000     10.521000
C          -4.104000     26.419000      9.338000
C          -5.399000     27.066000     11.297000
C          -4.162000     26.548000     10.722000
C          -3.028000     26.115000     11.636000
C          -2.079000     25.203000     11.075000
C          -2.735000     26.596000     12.942000
N          -0.965000     24.759000     11.694000
N          -3.434000     27.570000     13.606000
C          -1.543000     26.146000     13.576000
C          -0.679000     25.176000     12.946000
S          -2.593000     27.707000     15.016000
N          -1.385000     26.618000     14.814000
C           0.499000     24.434000     13.557000
S           0.954000     24.628000     15.276000
C           1.359000     23.647000     12.879000
C           2.342000     23.620000     15.038000
S           1.292000     22.958000     11.266000
C           2.420000     23.173000     13.727000
C           3.294000     23.275000     16.033000
C           2.622000     21.894000     11.834000
C           3.185000     22.193000     13.047000
N           4.530000     23.235000     15.590000
S           3.195000     23.517000     17.721000
C           5.459000     23.155000     16.577000
C           4.931000     23.313000     17.855000
C          -7.583000     27.727000      8.406000
H          -5.231000     26.548000      7.484000
H          -3.234000     25.998000      8.843000
H          -5.544000     27.138000     12.374000
H          -2.228000     24.717000     10.112000
H           3.039000     21.112000     11.213000
H           3.911000     21.615000     13.607000
H           6.505000     23.073000     16.311000
H           5.382000     23.385000     18.836000
H          -7.225000     27.825000      7.374000
C          -8.122000     29.119000      8.741000
H          -8.400000     27.005000      8.520000
H          -7.402000     29.944000      8.673000
H          -8.347000     29.121000      9.815000
C          -9.413000     29.529000      8.071000
H          -9.250000     29.472000      6.988000
C          -9.774000     30.935000      8.513000
H         -10.182000     28.808000      8.377000
H          -8.910000     31.574000      8.290000
H          -9.921000     31.041000      9.595000
C         -10.953000     31.608000      7.741000
H         -10.591000     31.630000      6.706000
C         -11.255000     32.979000      8.407000
H         -11.855000     30.992000      7.846000
H         -11.608000     32.679000      9.401000
H         -12.105000     33.378000      7.841000
H         -10.457000     33.707000      8.217000
$end

--------------------------------------------------------------

             Standard Nuclear Orientation (Angstroms)
    I     Atom           X                Y                Z
 ----------------------------------------------------------------
    1      C      -9.9030345171    -3.4490512991     1.4432938640
    2      C     -10.3020288346    -3.0148130230     0.2167908456
    3      N      -9.0508887725    -2.7226981677     2.1798342624
    4      C      -9.4956569967    -2.0161536801    -0.4538603125
    5      C      -8.3800203504    -1.7564797831     1.5825616332
    6      C      -8.4733264235    -1.2993580144     0.2529516658
    7      C      -7.4788538241    -0.4535603944    -0.4677234588
    8      C      -7.1843392132    -0.7871741112    -1.7710749202
    9      C      -6.6810350932     0.5334016253     0.1644254510
   10      N      -6.1730450399    -0.2569574859    -2.4284122957
   11      N      -6.7758004640     0.8565201304     1.4998875269
   12      C      -5.6758009635     1.1506194393    -0.5208595368
   13      C      -5.4387511793     0.7634985221    -1.8715478040
   14      S      -5.6607799711     2.0107175121     1.8187867346
   15      N      -4.9218528916     1.9092341974     0.2881336360
   16      C      -4.3040151197     1.2955615922    -2.6503417205
   17      S      -3.5833181810     2.8515404711    -2.1826252990
   18      C      -3.8865772681     0.8642096452    -3.9311961767
   19      C      -2.5575723731     2.7800367795    -3.6573835028
   20      S      -4.2694502796    -0.5422066741    -4.8721947920
   21      C      -2.9795493383     1.7510058870    -4.5033130879
   22      C      -1.5991451870     3.7563740138    -4.0577257735
   23      C      -3.0877505280     0.0983707983    -6.1142025211
   24      C      -2.4684983347     1.2587887943    -5.7494110798
   25      N      -1.6760723199     4.9695495401    -3.4757478026
   26      S      -0.1619825875     3.5132402228    -4.9790995426
   27      C      -0.6581436329     5.8081345985    -3.8244285846
   28      C       0.2448566581     5.1918585145    -4.6600267314
   29      C     -10.6801615896    -4.4957613219     2.1852322991
   30      H     -11.1505214936    -3.4380777892    -0.3113986519
   31      H      -9.6196561610    -1.8115471339    -1.5127896626
   32      H      -7.6116396767    -1.2873939087     2.1951223099
   33      H      -7.7430340846    -1.5859183010    -2.2553731341
   34      H      -3.0337788692    -0.4358834550    -7.0541692508
   35      H      -1.8491192389     1.8576415685    -6.4075553576
   36      H      -0.6903341190     6.8552209694    -3.5518888545
   37      H       1.1510211934     5.6014617789    -5.0850514375
   38      H     -11.2286198531    -4.0636691826     3.0319311336
   39      C      -9.7806112442    -5.7231299791     2.6199797608
   40      H     -11.4208671375    -4.8661049282     1.4660786962
   41      H      -9.1195967794    -5.4541528158     3.4540601903
   42      H      -9.1315193204    -6.0098559897     1.7838428884
   43      C     -10.5433791760    -6.9496428295     3.0464681075
   44      H     -11.0512627475    -6.5540137068     3.9346656503
   45      C      -9.5806801328    -8.0762911563     3.4689821309
   46      H     -11.1427214877    -7.4019265854     2.2462142744
   47      H     -10.1160027605    -8.7340225834     4.1640562667
   48      H      -8.8015462306    -7.6657687026     4.1225390737
   49      C      -9.0175938867    -8.8558767791     2.2312304853
   50      H      -9.8743158459    -9.1258410402     1.6003558684
   51      C      -8.2459267523   -10.2173095778     2.6172882118
   52      H      -8.3872066507    -8.1881547012     1.6321610741
   53      H      -8.8404087957   -10.8524556690     3.2846483415
   54      H      -7.3298817517   -10.0002812682     3.1801072500
   55      H      -8.0725714712   -10.8367502792     1.7279951419
   56      C       8.8881856677    -3.2113522467    -1.6534470243
   57      C       7.6084843637    -2.9570649451    -2.1894018179
   58      N       9.3433568981    -2.7448823265    -0.4832547475
   59      C       6.7891369302    -2.0444557506    -1.5144831254
   60      C       8.5723524220    -1.7763552930     0.1230698216
   61      C       7.2431518802    -1.4161792806    -0.3592341902
   62      C       6.4433603857    -0.3440853019     0.3617297939
   63      C       5.4092216842     0.2890305866    -0.3977354243
   64      C       6.5251146949     0.0236856512     1.7331913351
   65      N       4.5429255591     1.2072710456     0.0794002830
   66      N       7.3479058451    -0.5550580791     2.6639133225
   67      C       5.5888920206     0.9704126255     2.2357001810
   68      C       4.6181742378     1.5969707039     1.3700051073
   69      S       6.9500399517     0.2592572705     4.0396833768
   70      N       5.7801842220     1.2821103013     3.5189163953
   71      C       3.7002904195     2.7676207641     1.6840699616
   72      S       3.7591763318     3.6250132639     3.2528378063
   73      C       2.7120795679     3.2176894665     0.8843634680
   74      C       2.4035613809     4.5979100461     2.7891224238
   75      S       2.3330981856     2.8997747260    -0.7997631096
   76      C       1.9644367696     4.2733054905     1.5138124779
   77      C       1.7978141970     5.6054214454     3.5849522610
   78      C       1.2702767358     4.3411158722    -0.6710531014
   79      C       1.0741437512     4.8614553001     0.5813516783
   80      N       0.4889743343     5.6451038551     3.4805083998
   81      S       2.3751788519     6.2967628001     5.0362985968
   82      C      -0.1077163252     6.4267533230     4.4167745832
   83      C       0.7633814644     6.8808274366     5.4026941236
   84      C       9.7897525622    -4.3085343496    -2.2582458072
   85      H       7.3201699749    -3.3725268297    -3.1510396060
   86      H       5.8301279666    -1.7935203112    -1.9577654430
   87      H       9.0222301542    -1.2840398827     0.9841003454
   88      H       5.2901111176     0.1386994659    -1.4696399103
   89      H       0.7218552425     4.7297891817    -1.5191220397
   90      H       0.5667904282     5.7805626565     0.8507849222
   91      H      -1.1816662141     6.5584147697     4.3868931587
   92      H       0.6156756576     7.4398320832     6.3173759261
   93      H       9.1426512537    -4.8734977996    -2.9400582423
   94      C      10.3469563242    -5.3749559163    -1.3134288885
   95      H      10.6326427681    -3.8182506957    -2.7591719888
   96      H       9.6060689552    -5.9440701344    -0.7382385607
   97      H      10.8752097459    -4.8428316757    -0.5122440690
   98      C      11.3688867291    -6.3279864917    -1.8888174266
   99      H      10.8994572034    -6.8322399473    -2.7420884111
  100      C      11.7866361500    -7.3128814469    -0.8127187561
  101      H      12.2218752515    -5.7255750039    -2.2269726868
  102      H      10.8703488750    -7.7845750566    -0.4352684041
  103      H      12.2385250945    -6.8461098085     0.0713002592
  104      C      12.6612660327    -8.5139472190    -1.2937775669
  105      H      12.0125040448    -9.0175024492    -2.0206152470
  106      C      13.0893751310    -9.3378168550    -0.0478391965
  107      H      13.5785265324    -8.1321898419    -1.7595881301
  108      H      13.7286851544    -8.6269277468     0.4893426811
  109      H      13.7206343118   -10.1382216548    -0.4514739362
  110      H      12.2422320808    -9.8777214042     0.3923195592
 ----------------------------------------------------------------

   10   -5663.5149627829      5.26E-06 Convergence criterion met
 Total energy in the final basis set = -5663.5149627829

                    Orbital Energies (a.u.)
 --------------------------------------------------------------

 Alpha MOs
 -- Occupied --
-88.990 -88.986 -88.935 -88.926 -88.925 -88.920 -88.917 -88.910
-14.391 -14.388 -14.380 -14.379 -14.349 -14.348 -14.341 -14.336
-14.330 -14.320 -10.269 -10.267 -10.265 -10.262 -10.261 -10.260
-10.251 -10.250 -10.243 -10.242 -10.240 -10.238 -10.235 -10.235
-10.234 -10.234 -10.234 -10.233 -10.233 -10.232 -10.230 -10.229
-10.228 -10.224 -10.221 -10.220 -10.218 -10.216 -10.214 -10.213
-10.212 -10.212 -10.211 -10.210 -10.204 -10.201 -10.196 -10.190
-10.185 -10.182 -10.181 -10.176 -10.174 -10.174 -10.174 -10.172
-10.172 -10.170 -10.168 -10.165  -8.044  -8.042  -7.996  -7.987
 -7.984  -7.980  -7.976  -7.969  -6.010  -6.007  -6.004  -6.002
 -6.001  -5.999  -5.960  -5.957  -5.953  -5.951  -5.948  -5.948
 -5.945  -5.944  -5.944  -5.941  -5.940  -5.940  -5.937  -5.937
 -5.934  -5.932  -5.930  -5.925  -1.036  -1.023  -0.977  -0.969
 -0.957  -0.953  -0.941  -0.931  -0.910  -0.909  -0.904  -0.888
 -0.842  -0.839  -0.832  -0.830  -0.810  -0.806  -0.805  -0.804
 -0.803  -0.802  -0.796  -0.794  -0.780  -0.778  -0.765  -0.763
 -0.749  -0.748  -0.740  -0.739  -0.727  -0.721  -0.710  -0.706
 -0.693  -0.690  -0.678  -0.672  -0.652  -0.648  -0.644  -0.643
 -0.633  -0.630  -0.622  -0.619  -0.610  -0.608  -0.601  -0.596
 -0.594  -0.589  -0.586  -0.577  -0.574  -0.567  -0.566  -0.560
 -0.548  -0.545  -0.542  -0.536  -0.525  -0.521  -0.519  -0.512
 -0.504  -0.504  -0.498  -0.496  -0.482  -0.482  -0.477  -0.477
 -0.473  -0.471  -0.466  -0.464  -0.464  -0.459  -0.453  -0.448
 -0.447  -0.443  -0.442  -0.442  -0.437  -0.432  -0.430  -0.425
 -0.424  -0.422  -0.420  -0.419  -0.416  -0.415  -0.414  -0.410
 -0.410  -0.409  -0.408  -0.405  -0.399  -0.396  -0.396  -0.394
 -0.393  -0.392  -0.388  -0.387  -0.385  -0.384  -0.382  -0.379
 -0.379  -0.374  -0.366  -0.366  -0.362  -0.358  -0.357  -0.357
 -0.356  -0.354  -0.351  -0.349  -0.344  -0.343  -0.342  -0.341
 -0.333  -0.332  -0.330  -0.329  -0.327  -0.326  -0.324  -0.319
 -0.314  -0.308  -0.305  -0.305  -0.303  -0.299  -0.298  -0.297
 -0.295  -0.294  -0.293  -0.289  -0.286  -0.279  -0.278  -0.277
 -0.273  -0.273  -0.265  -0.264  -0.260  -0.253  -0.251  -0.247
 -0.243  -0.243  -0.235  -0.227  -0.194  -0.191

          Ground-State Mulliken Net Atomic Charges

     Atom                 Charge (a.u.)
  ----------------------------------------
      1 C                     0.275538
      2 C                    -0.124967
      3 N                    -0.463817
      4 C                    -0.117284
      5 C                     0.077021
      6 C                     0.052760
      7 C                     0.044114
      8 C                     0.078200
      9 C                     0.220631
     10 N                    -0.527413
     11 N                    -0.558860
     12 C                     0.254636
     13 C                     0.290701
     14 S                     0.608154
     15 N                    -0.591997
     16 C                    -0.226709
     17 S                     0.376087
     18 C                    -0.097518
     19 C                    -0.190295
     20 S                     0.283050
     21 C                     0.102899
     22 C                     0.031307
     23 C                    -0.308114
     24 C                    -0.063767
     25 N                    -0.429944
     26 S                     0.279728
     27 C                     0.126341
     28 C                    -0.313815
     29 C                    -0.223354
     30 H                     0.090319
     31 H                     0.092972
     32 H                     0.108665
     33 H                     0.111166
     34 H                     0.130625
     35 H                     0.118045
     36 H                     0.125132
     37 H                     0.133650
     38 H                     0.117799
     39 C                    -0.175044
     40 H                     0.087922
     41 H                     0.112473
     42 H                     0.088627
     43 C                    -0.171227
     44 H                     0.089545
     45 C                    -0.176152
     46 H                     0.087234
     47 H                     0.086326
     48 H                     0.087994
     49 C                    -0.179464
     50 H                     0.092803
     51 C                    -0.327319
     52 H                     0.102522
     53 H                     0.103895
     54 H                     0.107678
     55 H                     0.101699
     56 C                     0.268240
     57 C                    -0.122428
     58 N                    -0.474793
     59 C                    -0.079604
     60 C                     0.070798
     61 C                     0.040026
     62 C                     0.035165
     63 C                     0.051103
     64 C                     0.223907
     65 N                    -0.530131
     66 N                    -0.546978
     67 C                     0.195343
     68 C                     0.314335
     69 S                     0.601193
     70 N                    -0.549188
     71 C                    -0.227420
     72 S                     0.314281
     73 C                    -0.098559
     74 C                    -0.203179
     75 S                     0.287951
     76 C                     0.152198
     77 C                     0.020190
     78 C                    -0.317467
     79 C                    -0.042048
     80 N                    -0.405871
     81 S                     0.268062
     82 C                     0.125901
     83 C                    -0.320865
     84 C                    -0.226172
     85 H                     0.096462
     86 H                     0.098451
     87 H                     0.126570
     88 H                     0.113400
     89 H                     0.125979
     90 H                     0.110743
     91 H                     0.116906
     92 H                     0.141070
     93 H                     0.089368
     94 C                    -0.176239
     95 H                     0.111035
     96 H                     0.086641
     97 H                     0.116226
     98 C                    -0.166581
     99 H                     0.083034
    100 C                    -0.170824
    101 H                     0.089057
    102 H                     0.087104
    103 H                     0.088421
    104 C                    -0.185874
    105 H                     0.090297
    106 C                    -0.313456
    107 H                     0.090416
    108 H                     0.111086
    109 H                     0.097344
    110 H                     0.108177
  ----------------------------------------
  Sum of atomic charges =     0.000000

                    Cartesian Multipole Moments
 -----------------------------------------------------------------
    Charge (ESU x 10^10)
                 0.0000
    Dipole Moment (Debye)
         X      -0.6566      Y       2.1858      Z      -2.7402
       Tot       3.5662
    Quadrupole Moments (Debye-Ang)
        XX    -458.1233     XY      12.7347     YY    -416.8265
        XZ       0.4909     YZ      17.6597     ZZ    -406.7569

 Total job time:  85.62s(wall), 994.42s(cpu)
        *  Thank you very much for using Q-Chem.  Have a nice day.  *
