 Q-Chem 4.4, Q-Chem, Inc., Pleasanton, CA (2016)
 Q-Chem 4.4.2 for Intel X86 Linux

User input:
--------------------------------------------------------------
$comment
SP
$end

$rem
MEM_STATIC 5000
MEM_TOTAL 20000
JOBTYPE SP
EXCHANGE B3LYP
BASIS 6-31g(d,p)
$end

$molecule
0 1
C          10.042000     22.664000      3.320000
C          11.152000     22.924000      4.143000
N           8.963000     21.959000      3.734000
C          11.109000     22.529000      5.497000
C           8.948000     21.536000      5.042000
C          10.010000     21.772000      5.981000
C           9.869000     21.197000      7.367000
C          10.631000     21.890000      8.331000
C           9.005000     20.135000      7.870000
N          10.546000     21.679000      9.697000
N           8.196000     19.353000      7.060000
C           8.994000     19.868000      9.255000
C           9.725000     20.697000     10.148000
S           7.567000     18.310000      8.175000
N           8.134000     18.905000      9.604000
C           9.667000     20.568000     11.615000
S           8.941000     19.149000     12.486000
C          10.153000     21.452000     12.601000
C           9.223000     19.943000     14.085000
S          10.750000     23.045000     12.386000
C           9.841000     21.112000     13.892000
C           8.569000     19.492000     15.268000
C          10.868000     23.233000     14.160000
C          10.395000     22.074000     14.820000
N           8.235000     18.244000     15.386000
S           8.338000     20.506000     16.619000
C           7.797000     18.025000     16.687000
C           7.785000     19.155000     17.518000
C          10.049000     23.118000      1.868000
H          12.032000     23.384000      3.704000
H          12.002000     22.636000      6.106000
H           8.027000     21.002000      5.273000
H          11.294000     22.682000      7.985000
H          11.280000     24.137000     14.588000
H          10.325000     21.911000     15.889000
H           7.442000     17.017000     16.858000
H           7.381000     19.334000     18.505000
H          10.943000     23.694000      1.600000
C           8.857000     24.069000      1.668000
H           9.834000     22.315000      1.152000
H           8.915000     24.728000      2.543000
H           7.884000     23.572000      1.765000
C           8.842000     24.955000      0.407000
H           8.091000     25.749000      0.498000
C           8.678000     24.075000     -0.843000
H           9.819000     25.420000      0.222000
H           7.842000     23.374000     -0.726000
H           9.497000     23.376000     -1.055000
C           8.393000     24.916000     -2.112000
H           7.582000     25.619000     -1.883000
C           7.831000     24.074000     -3.284000
H           9.240000     25.540000     -2.423000
H           7.147000     24.563000     -3.989000
H           7.194000     23.314000     -2.815000
H           8.668000     23.598000     -3.809000
C          -6.372000     27.211000      9.212000
C          -5.215000     26.747000      8.552000
N          -6.460000     27.481000     10.521000
C          -4.104000     26.419000      9.338000
C          -5.399000     27.066000     11.297000
C          -4.162000     26.548000     10.722000
C          -3.028000     26.115000     11.636000
C          -2.079000     25.203000     11.075000
C          -2.735000     26.596000     12.942000
N          -0.965000     24.759000     11.694000
N          -3.434000     27.570000     13.606000
C          -1.543000     26.146000     13.576000
C          -0.679000     25.176000     12.946000
S          -2.593000     27.707000     15.016000
N          -1.385000     26.618000     14.814000
C           0.499000     24.434000     13.557000
S           0.954000     24.628000     15.276000
C           1.359000     23.647000     12.879000
C           2.342000     23.620000     15.038000
S           1.292000     22.958000     11.266000
C           2.420000     23.173000     13.727000
C           3.294000     23.275000     16.033000
C           2.622000     21.894000     11.834000
C           3.185000     22.193000     13.047000
N           4.530000     23.235000     15.590000
S           3.195000     23.517000     17.721000
C           5.459000     23.155000     16.577000
C           4.931000     23.313000     17.855000
C          -7.583000     27.727000      8.406000
H          -5.231000     26.548000      7.484000
H          -3.234000     25.998000      8.843000
H          -5.544000     27.138000     12.374000
H          -2.228000     24.717000     10.112000
H           3.039000     21.112000     11.213000
H           3.911000     21.615000     13.607000
H           6.505000     23.073000     16.311000
H           5.382000     23.385000     18.836000
H          -7.225000     27.825000      7.374000
C          -8.122000     29.119000      8.741000
H          -8.400000     27.005000      8.520000
H          -7.402000     29.944000      8.673000
H          -8.347000     29.121000      9.815000
C          -9.413000     29.529000      8.071000
H          -9.250000     29.472000      6.988000
C          -9.774000     30.935000      8.513000
H         -10.182000     28.808000      8.377000
H          -8.910000     31.574000      8.290000
H          -9.921000     31.041000      9.595000
C         -10.953000     31.608000      7.741000
H         -10.591000     31.630000      6.706000
C         -11.255000     32.979000      8.407000
H         -11.855000     30.992000      7.846000
H         -11.608000     32.679000      9.401000
H         -12.105000     33.378000      7.841000
H         -10.457000     33.707000      8.217000
$end

--------------------------------------------------------------

             Standard Nuclear Orientation (Angstroms)
    I     Atom           X                Y                Z
 ----------------------------------------------------------------
    1      C      -7.0181831748    -6.7598398393     0.6130894815
    2      C      -7.8276689276    -5.9711555116     1.4495934248
    3      N      -6.2805050919    -6.2474120371    -0.3997830641
    4      C      -7.7990549882    -4.5676446578     1.3063156329
    5      C      -6.2937735608    -4.8825366521    -0.5639693337
    6      C      -7.0566198871    -3.9769294810     0.2504028995
    7      C      -7.0087900461    -2.5093217585    -0.0892172989
    8      C      -7.3109678990    -1.6792611623     1.0107267688
    9      C      -6.6013829294    -1.8321607829    -1.3151134830
   10      N      -7.1681074562    -0.3018482332     1.0158761804
   11      N      -6.2756895680    -2.4951284082    -2.4883580279
   12      C      -6.5462916299    -0.4227318437    -1.3256022481
   13      C      -6.7729293316     0.3098018897    -0.1293244034
   14      S      -6.0057384687    -1.2150105334    -3.4958994070
   15      N      -6.1193405819     0.0840261038    -2.4873591871
   16      C      -6.6099965219     1.7706896230    -0.0227695820
   17      S      -6.4320744232     2.8835166789    -1.4472827165
   18      C      -6.5817788215     2.5758572131     1.1351409989
   19      C      -6.1874420623     4.3007712710    -0.3526113370
   20      S      -6.4991614863     2.0670902278     2.7705655709
   21      C      -6.2938581740     3.8984493733     0.9172495616
   22      C      -5.6465204823     5.5291015836    -0.8313748355
   23      C      -6.3328400047     3.7711361422     3.2852583787
   24      C      -6.3020188158     4.6333952699     2.1635769395
   25      N      -5.8380879554     5.8823907821    -2.0648547281
   26      S      -4.8747490379     6.6439227064     0.2022114947
   27      C      -5.3855918563     7.1868592749    -2.2261471068
   28      C      -4.8229428661     7.7759894756    -1.0842378633
   29      C      -7.0010335430    -8.2721801975     0.7774109079
   30      H      -8.4873034221    -6.4655146282     2.1561430674
   31      H      -8.4977343586    -3.9648659148     1.8792762986
   32      H      -5.6501369976    -4.5784874901    -1.3886171868
   33      H      -7.6284874242    -2.1551644165     1.9376822390
   34      H      -6.2913089017     4.0234485938     4.3363328738
   35      H      -6.1861993055     5.7107976780     2.1680369897
   36      H      -5.4546317566     7.5437322527    -3.2455612375
   37      H      -4.2742658688     8.6948347116    -0.9289865032
   38      H      -7.6072118844    -8.6216498364     1.6219550393
   39      C      -5.5555640934    -8.6937348748     1.0907393685
   40      H      -7.2120914616    -8.8206180279    -0.1490665614
   41      H      -5.2430545131    -7.9657623592     1.8494644694
   42      H      -4.8645970929    -8.5299009426     0.2547548909
   43      C      -5.3215831933   -10.1054906683     1.6630509252
   44      H      -4.3075701181   -10.1972234329     2.0705807808
   45      C      -5.6694629198   -11.1601538712     0.5998194244
   46      H      -6.0389569119   -10.3490459884     2.4574278848
   47      H      -5.1834713680   -10.9319784976    -0.3571206001
   48      H      -6.7199321889   -11.2037340606     0.2853022044
   49      C      -5.2098328210   -12.5791124982     1.0171485357
   50      H      -4.1631047138   -12.5194281330     1.3414463093
   51      C      -5.1726940272   -13.5771653001    -0.1664490795
   52      H      -5.7586425977   -12.9816876530     1.8775246592
   53      H      -4.4318098381   -14.3859771463    -0.1361833254
   54      H      -4.8520878471   -12.9863323726    -1.0333159258
   55      H      -6.1835313852   -13.9711092089    -0.3270293780
   56      C      10.3691590180    -2.3966956963    -1.2452898282
   57      C       9.0580423976    -2.9154208461    -1.2832691214
   58      N      10.7040270066    -1.1707850477    -0.8220505203
   59      C       8.0044164308    -2.0461153059    -0.9768687302
   60      C       9.6592504951    -0.2955269535    -0.6159260198
   61      C       8.2630615763    -0.7177967602    -0.6541714574
   62      C       7.1600825088     0.2984657500    -0.4102684296
   63      C       5.8663757041    -0.0406641964    -0.9185789478
   64      C       7.2349338797     1.4912352706     0.3607984566
   65      N       4.7443217843     0.6881932506    -0.7423551611
   66      N       8.3385837308     1.9266346555     1.0467703087
   67      C       6.0413736535     2.2383785610     0.5669801481
   68      C       4.7935007025     1.8405669160    -0.0403541859
   69      S       7.7881492623     3.3064940351     1.7589219698
   70      N       6.2274374202     3.3621712721     1.2618630284
   71      C       3.4913330256     2.6227691648    -0.1042915257
   72      S       3.3483974371     4.2821153058     0.5482127287
   73      C       2.3161828059     2.1414528682    -0.5581743120
   74      C       1.6534064847     4.2919715962     0.1930218999
   75      S       1.9177348732     0.6962361851    -1.4711732078
   76      C       1.2554023924     3.0989637643    -0.3925880859
   77      C       0.7602427734     5.3644944295     0.4524585144
   78      C       0.3420101219     1.5049744699    -1.7655435440
   79      C       0.0876876926     2.6511140907    -1.0588448305
   80      N      -0.4259980558     4.9765201267     0.8621579597
   81      S       1.1357579691     6.9668900585     0.9096516747
   82      C      -1.1914230520     5.9878435063     1.3468842711
   83      C      -0.5065488033     7.1921031042     1.4800686707
   84      C      11.5877017536    -3.3260250433    -1.4294461929
   85      H       8.8731013001    -3.9225609035    -1.6465137982
   86      H       6.9893510734    -2.4205849357    -1.0695014277
   87      H       9.9395378385     0.7407102084    -0.4321066810
   88      H       5.6969751826    -0.8920143881    -1.5760531408
   89      H      -0.4230661963     1.0648698935    -2.3916587005
   90      H      -0.7435680965     3.3368636796    -1.1751260178
   91      H      -2.2028088121     5.7757536409     1.6689288851
   92      H      -0.7773712564     8.1526391997     1.8983647478
   93      H      11.1883940950    -4.3454061739    -1.3645809145
   94      C      12.6797439408    -3.2910396463    -0.3586381413
   95      H      12.0475908095    -3.0960311177    -2.3976268839
   96      H      12.3548078284    -3.4994235694     0.6683193377
   97      H      13.0037752804    -2.2462938376    -0.2713748263
   98      C      13.9428156871    -4.0685459203    -0.6481459260
   99      H      13.6516401800    -5.1130871837    -0.8120281188
  100      C      14.8910142343    -3.9260506133     0.5279219303
  101      H      14.3808918619    -3.6491948946    -1.5630623059
  102      H      14.3426547089    -4.2448803522     1.4235755622
  103      H      15.1874971537    -2.8917328563     0.7420565986
  104      C      16.1481609495    -4.8522854035     0.5029169291
  105      H      15.7139855276    -5.8593810922     0.5011916150
  106      C      17.0534824882    -4.4815949042     1.7101378970
  107      H      16.7272377162    -4.6547851056    -0.4079885164
  108      H      17.3618898930    -3.4591467446     1.4608797305
  109      H      17.9237207746    -5.1414702648     1.6136659662
  110      H      16.6048287499    -4.7878135254     2.6629379700
 ----------------------------------------------------------------

   10   -5663.5239343229      3.91E-06 Convergence criterion met
 Total energy in the final basis set = -5663.5239343229

                    Orbital Energies (a.u.)
 --------------------------------------------------------------

 Alpha MOs
 -- Occupied --
-88.989 -88.987 -88.930 -88.927 -88.922 -88.921 -88.913 -88.912
-14.396 -14.395 -14.392 -14.389 -14.354 -14.350 -14.344 -14.337
-14.331 -14.331 -10.269 -10.268 -10.267 -10.265 -10.263 -10.263
-10.262 -10.261 -10.246 -10.242 -10.241 -10.240 -10.238 -10.238
-10.237 -10.236 -10.235 -10.235 -10.233 -10.233 -10.231 -10.231
-10.231 -10.230 -10.228 -10.228 -10.226 -10.225 -10.221 -10.219
-10.219 -10.212 -10.212 -10.207 -10.205 -10.204 -10.201 -10.192
-10.186 -10.182 -10.178 -10.175 -10.175 -10.174 -10.173 -10.172
-10.170 -10.169 -10.169 -10.165  -8.044  -8.043  -7.993  -7.989
 -7.982  -7.979  -7.973  -7.971  -6.009  -6.008  -6.004  -6.002
 -6.002  -6.001  -5.957  -5.953  -5.953  -5.950  -5.949  -5.946
 -5.946  -5.943  -5.942  -5.940  -5.938  -5.937  -5.936  -5.936
 -5.933  -5.932  -5.929  -5.927  -1.037  -1.037  -0.981  -0.978
 -0.954  -0.949  -0.931  -0.930  -0.915  -0.910  -0.909  -0.906
 -0.841  -0.840  -0.831  -0.830  -0.822  -0.807  -0.806  -0.805
 -0.804  -0.803  -0.798  -0.797  -0.782  -0.778  -0.767  -0.765
 -0.749  -0.749  -0.740  -0.740  -0.723  -0.722  -0.709  -0.707
 -0.692  -0.691  -0.673  -0.672  -0.652  -0.649  -0.648  -0.645
 -0.635  -0.631  -0.625  -0.623  -0.611  -0.609  -0.608  -0.596
 -0.595  -0.590  -0.585  -0.581  -0.576  -0.567  -0.566  -0.564
 -0.551  -0.550  -0.540  -0.537  -0.529  -0.523  -0.522  -0.514
 -0.507  -0.505  -0.500  -0.499  -0.483  -0.481  -0.478  -0.474
 -0.473  -0.472  -0.468  -0.467  -0.465  -0.462  -0.451  -0.449
 -0.448  -0.446  -0.444  -0.444  -0.441  -0.435  -0.432  -0.427
 -0.426  -0.424  -0.421  -0.420  -0.420  -0.417  -0.415  -0.414
 -0.410  -0.410  -0.406  -0.403  -0.402  -0.397  -0.396  -0.393
 -0.392  -0.390  -0.389  -0.388  -0.388  -0.384  -0.383  -0.381
 -0.380  -0.376  -0.375  -0.367  -0.366  -0.362  -0.360  -0.358
 -0.356  -0.354  -0.351  -0.350  -0.349  -0.344  -0.342  -0.342
 -0.335  -0.334  -0.333  -0.329  -0.328  -0.326  -0.321  -0.320
 -0.318  -0.314  -0.312  -0.307  -0.306  -0.305  -0.299  -0.298
 -0.296  -0.295  -0.294  -0.291  -0.290  -0.287  -0.286  -0.280
 -0.279  -0.274  -0.270  -0.266  -0.257  -0.255  -0.252  -0.252
 -0.247  -0.244  -0.234  -0.228  -0.194  -0.193

          Ground-State Mulliken Net Atomic Charges

     Atom                 Charge (a.u.)
  ----------------------------------------
      1 C                     0.283848
      2 C                    -0.127893
      3 N                    -0.487465
      4 C                    -0.089891
      5 C                     0.060042
      6 C                     0.037135
      7 C                     0.061731
      8 C                     0.051939
      9 C                     0.196583
     10 N                    -0.541794
     11 N                    -0.539897
     12 C                     0.232404
     13 C                     0.313180
     14 S                     0.603011
     15 N                    -0.551208
     16 C                    -0.224790
     17 S                     0.336508
     18 C                    -0.118792
     19 C                    -0.222366
     20 S                     0.294384
     21 C                     0.157601
     22 C                     0.063057
     23 C                    -0.314988
     24 C                    -0.076502
     25 N                    -0.423824
     26 S                     0.273082
     27 C                     0.107172
     28 C                    -0.315024
     29 C                    -0.216923
     30 H                     0.095184
     31 H                     0.104287
     32 H                     0.128386
     33 H                     0.112430
     34 H                     0.135181
     35 H                     0.110848
     36 H                     0.116198
     37 H                     0.142319
     38 H                     0.094362
     39 C                    -0.182566
     40 H                     0.121719
     41 H                     0.082533
     42 H                     0.118919
     43 C                    -0.176670
     44 H                     0.096924
     45 C                    -0.174982
     46 H                     0.088638
     47 H                     0.090008
     48 H                     0.093948
     49 C                    -0.181105
     50 H                     0.091634
     51 C                    -0.323736
     52 H                     0.090688
     53 H                     0.101045
     54 H                     0.101093
     55 H                     0.102308
     56 C                     0.268354
     57 C                    -0.122337
     58 N                    -0.474774
     59 C                    -0.079838
     60 C                     0.070980
     61 C                     0.040240
     62 C                     0.036081
     63 C                     0.050600
     64 C                     0.223852
     65 N                    -0.530177
     66 N                    -0.547175
     67 C                     0.195695
     68 C                     0.314169
     69 S                     0.601477
     70 N                    -0.549137
     71 C                    -0.226315
     72 S                     0.315622
     73 C                    -0.100119
     74 C                    -0.202509
     75 S                     0.290667
     76 C                     0.152427
     77 C                     0.021026
     78 C                    -0.312207
     79 C                    -0.043314
     80 N                    -0.406558
     81 S                     0.267469
     82 C                     0.127930
     83 C                    -0.326239
     84 C                    -0.225986
     85 H                     0.097351
     86 H                     0.098825
     87 H                     0.126483
     88 H                     0.114777
     89 H                     0.120732
     90 H                     0.115685
     91 H                     0.122897
     92 H                     0.137661
     93 H                     0.089619
     94 C                    -0.176708
     95 H                     0.111443
     96 H                     0.086537
     97 H                     0.116219
     98 C                    -0.166236
     99 H                     0.083273
    100 C                    -0.171466
    101 H                     0.089242
    102 H                     0.087150
    103 H                     0.088425
    104 C                    -0.185658
    105 H                     0.090334
    106 C                    -0.313387
    107 H                     0.090537
    108 H                     0.111008
    109 H                     0.097389
    110 H                     0.108049
  ----------------------------------------
  Sum of atomic charges =     0.000000

                    Cartesian Multipole Moments
 -----------------------------------------------------------------
    Charge (ESU x 10^10)
                 0.0000
    Dipole Moment (Debye)
         X      -1.9514      Y       2.6131      Z       1.8856
       Tot       3.7672
    Quadrupole Moments (Debye-Ang)
        XX    -464.3636     XY      -7.3571     YY    -394.6394
        XZ     -18.4778     YZ       5.1280     ZZ    -436.6217

 Total job time:  86.04s(wall), 996.18s(cpu)
        *  Thank you very much for using Q-Chem.  Have a nice day.  *
