 Q-Chem 4.4, Q-Chem, Inc., Pleasanton, CA (2016)
 Q-Chem 4.4.2 for Intel X86 Linux

User input:
--------------------------------------------------------------
$comment
SP
$end

$rem
MEM_STATIC 5000
MEM_TOTAL 20000
JOBTYPE SP
EXCHANGE B3LYP
BASIS 6-31g(d,p)
$end

$molecule
0 1
C          33.172000    -26.716000      0.835000
C          32.873000    -25.741000      1.811000
N          32.361000    -27.787000      0.572000
C          31.679000    -25.834000      2.534000
C          31.253000    -27.963000      1.284000
C          30.776000    -26.969000      2.264000
C          29.420000    -27.090000      2.939000
C          29.281000    -26.632000      4.224000
C          28.239000    -27.577000      2.322000
N          28.048000    -26.561000      4.840000
N          28.133000    -28.037000      1.036000
C          26.997000    -27.646000      2.980000
C          26.976000    -27.040000      4.231000
S          26.554000    -28.370000      0.770000
N          25.969000    -28.129000      2.285000
C          25.712000    -26.683000      4.912000
S          24.083000    -27.454000      4.737000
C          25.519000    -25.564000      5.757000
C          23.331000    -26.246000      5.804000
S          26.648000    -24.317000      6.069000
C          24.220000    -25.345000      6.236000
C          21.891000    -25.947000      5.947000
C          25.365000    -23.462000      6.933000
C          24.194000    -24.134000      6.956000
N          21.433000    -25.103000      6.863000
S          20.591000    -26.782000      5.010000
C          20.022000    -25.089000      6.910000
C          19.415000    -25.838000      5.932000
C          34.469000    -26.589000      0.039000
H          33.592000    -24.945000      1.982000
H          31.439000    -25.085000      3.283000
H          30.562000    -28.776000      1.065000
H          30.136000    -26.205000      4.747000
H          25.541000    -22.442000      7.247000
H          23.327000    -23.666000      7.408000
H          19.575000    -24.488000      7.690000
H          18.350000    -26.030000      5.945000
H          35.088000    -25.762000      0.408000
C          34.158000    -26.214000     -1.452000
H          35.028000    -27.532000      0.050000
H          33.806000    -25.175000     -1.432000
H          33.262000    -26.717000     -1.837000
C          35.383000    -26.414000     -2.388000
H          35.203000    -25.893000     -3.337000
C          35.804000    -27.868000     -2.593000
H          36.150000    -25.794000     -1.909000
H          34.968000    -28.285000     -3.169000
H          35.840000    -28.542000     -1.728000
C          37.152000    -27.994000     -3.308000
H          37.261000    -27.544000     -4.302000
C          37.716000    -29.462000     -3.435000
H          37.882000    -27.465000     -2.683000
H          37.155000    -30.052000     -4.170000
H          37.563000    -30.028000     -2.508000
H          38.793000    -29.483000     -3.643000
C          17.108000    -22.065000     -0.197000
C          17.087000    -21.944000      1.175000
N          17.137000    -23.257000     -0.853000
C          17.166000    -23.081000      1.927000
C          17.088000    -24.359000     -0.162000
C          16.998000    -24.360000      1.337000
C          16.881000    -25.642000      2.172000
C          16.172000    -25.661000      3.429000
C          17.401000    -26.887000      1.783000
N          16.006000    -26.741000      4.228000
N          18.360000    -27.065000      0.798000
C          17.152000    -28.014000      2.569000
C          16.318000    -27.961000      3.723000
S          18.770000    -28.607000      0.890000
N          17.875000    -29.075000      2.203000
C          15.915000    -29.052000      4.652000
S          15.450000    -28.920000      6.330000
C          15.693000    -30.363000      4.300000
C          14.971000    -30.616000      6.500000
S          15.492000    -31.039000      2.681000
C          15.211000    -31.241000      5.271000
C          14.298000    -31.179000      7.666000
C          14.960000    -32.641000      3.362000
C          14.770000    -32.515000      4.760000
N          14.298000    -32.506000      7.848000
S          13.964000    -30.224000      9.085000
C          13.844000    -32.828000      9.064000
C          13.541000    -31.746000      9.857000
C          17.031000    -20.744000     -1.031000
H          17.141000    -21.024000      1.750000
H          17.339000    -23.015000      2.997000
H          17.135000    -25.284000     -0.736000
H          15.985000    -24.687000      3.877000
H          14.873000    -33.432000      2.629000
H          14.484000    -33.353000      5.385000
H          13.734000    -33.881000      9.285000
H          13.301000    -31.732000     10.911000
H          17.568000    -19.863000     -0.656000
C          15.584000    -20.378000     -1.612000
H          17.659000    -20.925000     -1.912000
H          15.283000    -21.062000     -2.416000
H          15.526000    -19.340000     -1.963000
C          14.538000    -20.539000     -0.590000
H          13.570000    -20.322000     -1.058000
C          14.682000    -19.575000      0.636000
H          14.505000    -21.568000     -0.212000
H          14.770000    -18.578000      0.188000
H          15.543000    -19.852000      1.258000
C          13.477000    -19.562000      1.567000
H          12.623000    -19.616000      0.881000
C          13.365000    -18.332000      2.495000
H          13.499000    -20.485000      2.160000
H          13.388000    -17.415000      1.894000
H          14.176000    -18.441000      3.226000
H          12.484000    -18.291000      3.147000
$end

--------------------------------------------------------------

             Standard Nuclear Orientation (Angstroms)
    I     Atom           X                Y                Z
 ----------------------------------------------------------------
    1      C     -11.5180601502    -0.1884000969    -0.1332070793
    2      C     -11.0263285790     0.1295464772    -1.4176182432
    3      N     -10.7709027645    -0.8289015622     0.8183415080
    4      C      -9.7033035758    -0.1850378938    -1.7457272408
    5      C      -9.5332694590    -1.2175497728     0.5305909749
    6      C      -8.8671093462    -0.8628910662    -0.7368524779
    7      C      -7.3959790945    -1.1536078091    -0.9823347746
    8      C      -6.9877688371    -1.4531503530    -2.2566772130
    9      C      -6.3707687684    -1.0693247504    -0.0053705208
   10      N      -5.6516664102    -1.5685093705    -2.5827272120
   11      N      -6.5399795751    -0.7390772952     1.3133168270
   12      C      -5.0152041514    -1.3224745553    -0.2858143572
   13      C      -4.7312346886    -1.4960890068    -1.6355911411
   14      S      -5.0520976516    -0.6658770451     1.9883983812
   15      N      -4.1562713769    -1.2124001628     0.7257270988
   16      C      -3.3540825874    -1.4054131208    -2.1686352047
   17      S      -1.7927185150    -1.7385317942    -1.3143043655
   18      C      -2.9957956030    -0.9106392678    -3.4454532306
   19      C      -0.8417155473    -1.2178287863    -2.7241691580
   20      S      -4.0448336225    -0.1920137258    -4.5900451072
   21      C      -1.6265571423    -0.8202549511    -3.7314946844
   22      C       0.5916466454    -0.8603466297    -2.7577746973
   23      C      -2.6152632380     0.2149761132    -5.5462343075
   24      C      -1.4593785553    -0.2029786733    -4.9871293116
   25      N       1.2271365511    -0.5978671695    -3.8928575633
   26      S       1.6678452770    -0.8756231716    -1.3063074629
   27      C       2.6146900922    -0.4285011491    -3.6945236995
   28      C       3.0044718666    -0.4401741464    -2.3777595181
   29      C     -12.9578095898     0.1806465397     0.2173355448
   30      H     -11.7004122808     0.6037732342    -2.1251054487
   31      H      -9.3156565290     0.0609660038    -2.7300106601
   32      H      -8.8967024812    -1.6834599947     1.2816709626
   33      H      -7.7143381503    -1.4938429712    -3.0674325052
   34      H      -2.7308671206     0.8679516792    -6.4007696506
   35      H      -0.5205779588     0.0525504205    -5.4650156185
   36      H       3.2128199618    -0.2952370766    -4.5855295054
   37      H       4.0492292685    -0.4682091735    -2.0967719589
   38      H     -13.4918228561     0.5860921723    -0.6508203573
   39      C     -12.9807172509     1.3416146189     1.2718758987
   40      H     -13.4904192285    -0.6803421915     0.6379022786
   41      H     -12.6445966196     2.2385399037     0.7367376411
   42      H     -12.1834258305     1.2496573398     2.0201540888
   43      C     -14.3766998838     1.5247024601     1.9309907073
   44      H     -14.4120241207     2.4955515778     2.4415259058
   45      C     -14.8154332323     0.3749203609     2.8359195295
   46      H     -15.0290677626     1.6794594704     1.0634675557
   47      H     -14.1189828045     0.4502149135     3.6808151040
   48      H     -14.6559312383    -0.6585685099     2.5038700333
   49      C     -16.2845793484     0.4834541534     3.2530946792
   50      H     -16.6109690896     1.3822874956     3.7897373533
   51      C     -16.8459049140    -0.7388618306     4.0777802221
   52      H     -16.8682300330     0.4882531075     2.3242810012
   53      H     -16.4503269496    -0.7565062625     5.1006451926
   54      H     -16.4897151307    -1.6918531374     3.6678650997
   55      H     -17.9420929659    -0.7832509637     4.0718338039
   56      C       3.8890399781     6.3172599482     0.8898149208
   57      C       4.2046971973     5.6755498324    -0.2874848062
   58      N       3.7325482280     5.6806140721     2.0823891787
   59      C       4.3030796981     4.3136678618    -0.2768837813
   60      C       3.9423130887     4.3975125802     2.1451208670
   61      C       4.3541762741     3.5945945395     0.9447903557
   62      C       4.6635070648     2.0928033571     1.0028911853
   63      C       5.6275990607     1.4867255425     0.1161627567
   64      C       4.0859662252     1.2034612382     1.9233601821
   65      N       5.9746820558     0.1784428394     0.0992286645
   66      N       2.9388369185     1.4659527361     2.6560146487
   67      C       4.5118085579    -0.1259798478     1.9575757679
   68      C       5.5748540918    -0.6001667535     1.1358933649
   69      S       2.5760390546     0.0833497746     3.3709375543
   70      N       3.7389504412    -0.9015087590     2.7215464738
   71      C       6.1815424525    -1.9573683047     1.0606326030
   72      S       6.9966870192    -2.6984048436    -0.2942611875
   73      C       6.3371642160    -2.8251840498     2.1163724854
   74      C       7.5204332965    -4.1356607424     0.5972220250
   75      S       6.1911942672    -2.4810348367     3.8422902393
   76      C       7.0276266035    -4.0181985367     1.9018331523
   77      C       8.4359193188    -5.1483719820     0.0817074392
   78      C       6.8760559536    -4.1108265315     4.2758020638
   79      C       7.3622697807    -4.7405527123     3.1038715831
   80      N       8.4904013898    -6.3481953144     0.6745891095
   81      S       9.0577969679    -5.0829696500    -1.5449863625
   82      C       9.2001344375    -7.2165360457    -0.0539157808
   83      C       9.6549974126    -6.7099443301    -1.2488410954
   84      C       3.7688818090     7.8760641477     0.8427247740
   85      H       4.2657538963     6.1197088299    -1.2768966843
   86      H       4.3646905413     3.7650764677    -1.2119969223
   87      H       3.7829235971     3.9355439481     3.1190253659
   88      H       5.8958779697     2.0759363616    -0.7585978034
   89      H       6.8115955275    -4.3578922609     5.3271547063
   90      H       7.7861390183    -5.7379994888     3.1138614532
   91      H       9.3673111179    -8.1959052556     0.3734457854
   92      H      10.1169542588    -7.2393524591    -2.0704461740
   93      H       3.3156053721     8.3337070315    -0.0462400524
   94      C       5.0518322764     8.6830912210     1.3604808953
   95      H       2.9674189885     8.1225983762     1.5499618076
   96      H       5.1797326394     8.5911435404     2.4467866171
   97      H       5.0207472535     9.7424097297     1.0760744633
   98      C       6.2957655448     8.1305428689     0.8020533331
   99      H       7.1371935241     8.6903841753     1.2283321940
  100      C       6.4091566357     8.2461042008    -0.7557964796
  101      H       6.4214264921     7.0758533285     1.0752808935
  102      H       6.2150351974     9.3051012128    -0.9638810676
  103      H       5.7061618942     7.5667745027    -1.2550394612
  104      C       7.7866669757     7.9079781809    -1.3099544517
  105      H       8.4727729099     8.3465105539    -0.5752599541
  106      C       8.0825461433     8.4392696964    -2.7300998118
  107      H       7.9038905984     6.8173745216    -1.2798831942
  108      H       7.9197285646     9.5233934126    -2.7581213077
  109      H       7.4500074081     7.8466507070    -3.4029002887
  110      H       9.0831152685     8.2337568499    -3.1295643227
 ----------------------------------------------------------------

   10   -5663.5068860056      3.77E-06 Convergence criterion met
 Total energy in the final basis set = -5663.5068860056

                    Orbital Energies (a.u.)
 --------------------------------------------------------------

 Alpha MOs
 -- Occupied --
-88.991 -88.991 -88.932 -88.928 -88.924 -88.920 -88.902 -88.902
-14.389 -14.385 -14.385 -14.383 -14.357 -14.350 -14.345 -14.340
-14.334 -14.333 -10.274 -10.272 -10.271 -10.262 -10.261 -10.260
-10.259 -10.255 -10.249 -10.245 -10.244 -10.242 -10.241 -10.239
-10.236 -10.236 -10.235 -10.235 -10.235 -10.233 -10.233 -10.232
-10.230 -10.229 -10.228 -10.228 -10.228 -10.226 -10.225 -10.221
-10.216 -10.213 -10.211 -10.206 -10.203 -10.201 -10.196 -10.188
-10.188 -10.187 -10.182 -10.180 -10.180 -10.180 -10.178 -10.175
-10.175 -10.173 -10.172 -10.170  -8.047  -8.046  -7.993  -7.987
 -7.982  -7.980  -7.963  -7.963  -6.012  -6.011  -6.006  -6.006
 -6.005  -6.005  -5.957  -5.954  -5.951  -5.950  -5.947  -5.946
 -5.944  -5.944  -5.943  -5.940  -5.939  -5.937  -5.927  -5.927
 -5.924  -5.924  -5.919  -5.919  -1.039  -1.039  -0.976  -0.962
 -0.960  -0.951  -0.947  -0.933  -0.913  -0.912  -0.905  -0.903
 -0.842  -0.839  -0.832  -0.830  -0.813  -0.810  -0.809  -0.807
 -0.805  -0.801  -0.795  -0.789  -0.781  -0.781  -0.767  -0.765
 -0.750  -0.742  -0.738  -0.738  -0.723  -0.721  -0.708  -0.706
 -0.692  -0.690  -0.675  -0.674  -0.659  -0.657  -0.648  -0.646
 -0.638  -0.637  -0.628  -0.623  -0.616  -0.609  -0.600  -0.594
 -0.591  -0.586  -0.584  -0.584  -0.579  -0.576  -0.568  -0.556
 -0.553  -0.547  -0.542  -0.541  -0.527  -0.522  -0.515  -0.509
 -0.508  -0.505  -0.502  -0.495  -0.486  -0.484  -0.481  -0.478
 -0.476  -0.474  -0.473  -0.471  -0.469  -0.459  -0.450  -0.448
 -0.445  -0.442  -0.441  -0.436  -0.435  -0.433  -0.433  -0.427
 -0.425  -0.425  -0.422  -0.421  -0.419  -0.417  -0.416  -0.413
 -0.409  -0.408  -0.406  -0.406  -0.401  -0.400  -0.399  -0.397
 -0.394  -0.394  -0.392  -0.390  -0.389  -0.387  -0.386  -0.384
 -0.381  -0.376  -0.374  -0.372  -0.365  -0.363  -0.354  -0.352
 -0.351  -0.351  -0.349  -0.348  -0.346  -0.343  -0.339  -0.338
 -0.336  -0.334  -0.332  -0.331  -0.326  -0.325  -0.321  -0.321
 -0.314  -0.312  -0.312  -0.308  -0.308  -0.307  -0.302  -0.301
 -0.300  -0.297  -0.296  -0.294  -0.288  -0.285  -0.283  -0.281
 -0.277  -0.272  -0.270  -0.269  -0.253  -0.252  -0.250  -0.248
 -0.246  -0.242  -0.232  -0.232  -0.195  -0.194

          Ground-State Mulliken Net Atomic Charges

     Atom                 Charge (a.u.)
  ----------------------------------------
      1 C                     0.273234
      2 C                    -0.115065
      3 N                    -0.480966
      4 C                    -0.077964
      5 C                     0.098488
      6 C                    -0.000131
      7 C                     0.069279
      8 C                     0.039004
      9 C                     0.211350
     10 N                    -0.530550
     11 N                    -0.552651
     12 C                     0.249972
     13 C                     0.294717
     14 S                     0.609894
     15 N                    -0.570101
     16 C                    -0.214336
     17 S                     0.308373
     18 C                    -0.121390
     19 C                    -0.248845
     20 S                     0.269092
     21 C                     0.189408
     22 C                     0.060994
     23 C                    -0.305960
     24 C                    -0.047002
     25 N                    -0.438469
     26 S                     0.247104
     27 C                     0.114690
     28 C                    -0.318070
     29 C                    -0.218246
     30 H                     0.093581
     31 H                     0.101701
     32 H                     0.121700
     33 H                     0.117255
     34 H                     0.125376
     35 H                     0.127797
     36 H                     0.116953
     37 H                     0.146235
     38 H                     0.096252
     39 C                    -0.189862
     40 H                     0.120052
     41 H                     0.085736
     42 H                     0.113142
     43 C                    -0.181147
     44 H                     0.094824
     45 C                    -0.162570
     46 H                     0.084721
     47 H                     0.097833
     48 H                     0.099078
     49 C                    -0.176556
     50 H                     0.095020
     51 C                    -0.330263
     52 H                     0.094287
     53 H                     0.104073
     54 H                     0.098840
     55 H                     0.101482
     56 C                     0.243633
     57 C                    -0.084548
     58 N                    -0.459355
     59 C                    -0.091819
     60 C                     0.103396
     61 C                     0.017084
     62 C                     0.021279
     63 C                     0.057747
     64 C                     0.195425
     65 N                    -0.492685
     66 N                    -0.524294
     67 C                     0.218656
     68 C                     0.273882
     69 S                     0.619308
     70 N                    -0.547538
     71 C                    -0.218431
     72 S                     0.315141
     73 C                    -0.120631
     74 C                    -0.226685
     75 S                     0.238142
     76 C                     0.143832
     77 C                     0.048940
     78 C                    -0.300125
     79 C                    -0.060457
     80 N                    -0.418923
     81 S                     0.281693
     82 C                     0.140210
     83 C                    -0.318015
     84 C                    -0.239976
     85 H                     0.103098
     86 H                     0.100902
     87 H                     0.118281
     88 H                     0.104294
     89 H                     0.143041
     90 H                     0.130074
     91 H                     0.118380
     92 H                     0.132854
     93 H                     0.104200
     94 C                    -0.166925
     95 H                     0.113023
     96 H                     0.107162
     97 H                     0.092609
     98 C                    -0.182163
     99 H                     0.084448
    100 C                    -0.160436
    101 H                     0.098199
    102 H                     0.081826
    103 H                     0.082880
    104 C                    -0.178274
    105 H                     0.088251
    106 C                    -0.314738
    107 H                     0.088818
    108 H                     0.103574
    109 H                     0.098648
    110 H                     0.101695
  ----------------------------------------
  Sum of atomic charges =     0.000000

                    Cartesian Multipole Moments
 -----------------------------------------------------------------
    Charge (ESU x 10^10)
                 0.0000
    Dipole Moment (Debye)
         X       1.3565      Y       0.5310      Z      -1.7110
       Tot       2.2471
    Quadrupole Moments (Debye-Ang)
        XX    -408.6554     XY     -30.2328     YY    -428.4020
        XZ       1.8247     YZ     -14.1472     ZZ    -430.4172

 Total job time:  88.52s(wall), 1035.98s(cpu)
        *  Thank you very much for using Q-Chem.  Have a nice day.  *
