 Q-Chem 4.4, Q-Chem, Inc., Pleasanton, CA (2016)
 Q-Chem 4.4.2 for Intel X86 Linux

User input:
--------------------------------------------------------------
$comment
SP
$end

$rem
MEM_STATIC 5000
MEM_TOTAL 20000
JOBTYPE SP
EXCHANGE B3LYP
BASIS 6-31g(d,p)
$end

$molecule
0 1
C          15.972000    -24.772000    -10.833000
C          16.000000    -23.753000     -9.909000
N          15.387000    -25.913000    -10.577000
C          15.437000    -24.001000     -8.595000
C          14.838000    -26.125000     -9.323000
C          14.758000    -25.137000     -8.293000
C          14.224000    -25.480000     -6.955000
C          13.127000    -26.368000     -6.820000
C          14.824000    -25.087000     -5.714000
N          12.497000    -26.532000     -5.641000
N          15.982000    -24.438000     -5.600000
C          14.230000    -25.368000     -4.474000
C          12.999000    -26.103000     -4.478000
S          16.161000    -24.118000     -4.016000
N          14.824000    -24.788000     -3.405000
C          12.239000    -26.359000     -3.274000
S          12.690000    -25.898000     -1.628000
C          10.960000    -26.932000     -3.256000
C          11.257000    -26.737000     -0.943000
S          10.000000    -27.537000     -4.576000
C          10.431000    -27.042000     -1.971000
C          10.908000    -26.654000      0.455000
C           8.790000    -27.818000     -3.292000
C           9.178000    -27.592000     -1.949000
N           9.979000    -27.483000      0.871000
S          11.515000    -25.561000      1.627000
C           9.722000    -27.301000      2.216000
C          10.377000    -26.180000      2.815000
C          16.346000    -24.508000    -12.290000
H          16.477000    -22.803000    -10.134000
H          15.445000    -23.174000     -7.891000
H          14.312000    -27.065000     -9.165000
H          12.718000    -26.908000     -7.672000
H           7.829000    -28.214000     -3.592000
H           8.592000    -27.923000     -1.099000
H           9.089000    -27.978000      2.774000
H          10.322000    -25.790000      3.822000
H          17.311000    -23.986000    -12.277000
C          15.319000    -23.752000    -13.061000
H          16.667000    -25.465000    -12.720000
H          15.754000    -23.575000    -14.052000
H          15.157000    -22.777000    -12.585000
C          13.938000    -24.421000    -13.187000
H          13.550000    -24.824000    -12.243000
C          14.050000    -25.657000    -14.185000
H          13.228000    -23.670000    -13.557000
H          14.779000    -26.385000    -13.810000
H          14.508000    -25.319000    -15.123000
C          12.719000    -26.373000    -14.407000
H          12.386000    -26.898000    -13.503000
C          12.876000    -27.491000    -15.496000
H          11.973000    -25.664000    -14.787000
H          13.434000    -28.363000    -15.136000
H          13.362000    -27.062000    -16.382000
H          11.939000    -27.907000    -15.887000
C          17.108000    -22.065000     -0.197000
C          17.087000    -21.944000      1.175000
N          17.137000    -23.257000     -0.853000
C          17.166000    -23.081000      1.927000
C          17.088000    -24.359000     -0.162000
C          16.998000    -24.360000      1.337000
C          16.881000    -25.642000      2.172000
C          16.172000    -25.661000      3.429000
C          17.401000    -26.887000      1.783000
N          16.006000    -26.741000      4.228000
N          18.360000    -27.065000      0.798000
C          17.152000    -28.014000      2.569000
C          16.318000    -27.961000      3.723000
S          18.770000    -28.607000      0.890000
N          17.875000    -29.075000      2.203000
C          15.915000    -29.052000      4.652000
S          15.450000    -28.920000      6.330000
C          15.693000    -30.363000      4.300000
C          14.971000    -30.616000      6.500000
S          15.492000    -31.039000      2.681000
C          15.211000    -31.241000      5.271000
C          14.298000    -31.179000      7.666000
C          14.960000    -32.641000      3.362000
C          14.770000    -32.515000      4.760000
N          14.298000    -32.506000      7.848000
S          13.964000    -30.224000      9.085000
C          13.844000    -32.828000      9.064000
C          13.541000    -31.746000      9.857000
C          17.031000    -20.744000     -1.031000
H          17.141000    -21.024000      1.750000
H          17.339000    -23.015000      2.997000
H          17.135000    -25.284000     -0.736000
H          15.985000    -24.687000      3.877000
H          14.873000    -33.432000      2.629000
H          14.484000    -33.353000      5.385000
H          13.734000    -33.881000      9.285000
H          13.301000    -31.732000     10.911000
H          17.568000    -19.863000     -0.656000
C          15.584000    -20.378000     -1.612000
H          17.659000    -20.925000     -1.912000
H          15.283000    -21.062000     -2.416000
H          15.526000    -19.340000     -1.963000
C          14.538000    -20.539000     -0.590000
H          13.570000    -20.322000     -1.058000
C          14.682000    -19.575000      0.636000
H          14.505000    -21.568000     -0.212000
H          14.770000    -18.578000      0.188000
H          15.543000    -19.852000      1.258000
C          13.477000    -19.562000      1.567000
H          12.623000    -19.616000      0.881000
C          13.365000    -18.332000      2.495000
H          13.499000    -20.485000      2.160000
H          13.388000    -17.415000      1.894000
H          14.176000    -18.441000      3.226000
H          12.484000    -18.291000      3.147000
$end

--------------------------------------------------------------

             Standard Nuclear Orientation (Angstroms)
    I     Atom           X                Y                Z
 ----------------------------------------------------------------
    1      C       9.6773627643    -0.3403038657     2.1164832500
    2      C       9.0582011303     0.8178178450     1.7062223886
    3      N       9.1457452134    -1.5150831503     1.8998766669
    4      C       7.7449440870     0.7167236302     1.0977777340
    5      C       7.8994211424    -1.5930964364     1.3003341437
    6      C       7.1734493530    -0.4743783052     0.7856704632
    7      C       5.8107827294    -0.6462539742     0.2319129104
    8      C       5.4800601623    -1.7938705721    -0.5321399202
    9      C       4.7004783492     0.2129487194     0.5209196831
   10      N       4.3214478768    -1.8737508281    -1.2141030544
   11      N       4.7256081775     1.2237383096     1.3885796948
   12      C       3.4507193916     0.0535440530    -0.0972143641
   13      C       3.2991046058    -1.0338209495    -1.0193056330
   14      S       3.2793230741     1.9559860044     1.2638010377
   15      N       2.5561593866     1.0394550219     0.1472011813
   16      C       2.0961584977    -1.2355037823    -1.7971209683
   17      S       0.6187972862    -0.2677793940    -1.7186903680
   18      C       1.9681406123    -2.1865603485    -2.8186868393
   19      C      -0.2175542476    -1.3528226875    -2.8805131441
   20      S       3.1098592493    -3.3797714221    -3.3689148717
   21      C       0.7185017324    -2.1575777238    -3.4357189920
   22      C      -1.5304932917    -1.0600641031    -3.4035594880
   23      C       1.8380152936    -3.7377747190    -4.5713971343
   24      C       0.5919085157    -3.0779288319    -4.4406672471
   25      N      -2.1216791341    -2.0294875224    -4.0623883989
   26      S      -2.3878734996     0.4215233869    -3.3230629749
   27      C      -3.3601953500    -1.6281889854    -4.5241622257
   28      C      -3.6597671621    -0.2424675650    -4.3384208070
   29      C      11.1388541509    -0.3231824058     2.5593949595
   30      H       9.5125769738     1.7896752030     1.8785298712
   31      H       7.2871415223     1.6406076814     0.7565094058
   32      H       7.5138622407    -2.5885906911     1.0868499002
   33      H       6.1701751442    -2.6284665891    -0.6415739192
   34      H       2.0530287244    -4.4962681781    -5.3122033823
   35      H      -0.2957953782    -3.3737606361    -4.9883189068
   36      H      -4.0573715286    -2.3247678538    -4.9703743459
   37      H      -4.5238978679     0.3353931717    -4.6359591949
   38      H      11.2337563779     0.4823197356     3.2983387108
   39      C      12.1169597854    -0.1695851100     1.4456520634
   40      H      11.2872240845    -1.1877628149     3.2183919845
   41      H      13.1043798152    -0.0989407496     1.9175059171
   42      H      11.9238437765     0.7764027098     0.9248274749
   43      C      12.1054020362    -1.2771661321     0.3761995410
   44      H      11.1014293588    -1.5486648818     0.0263191442
   45      C      12.7333539281    -2.6028639378     0.9962364347
   46      H      12.6854801462    -0.9241607693    -0.4862954446
   47      H      12.1539679134    -2.9273005508     1.8686484533
   48      H      13.7119051225    -2.3652661724     1.4319391565
   49      C      12.8000822828    -3.7592670848     0.0003548714
   50      H      11.8002881043    -4.1326447155    -0.2540675045
   51      C      13.5456751491    -4.9842326422     0.6359999463
   52      H      13.3797771217    -3.4590825029    -0.8813707722
   53      H      12.9479661934    -5.5012900653     1.3954363330
   54      H      14.4974866816    -4.6418819677     1.0627127563
   55      H      13.8422162924    -5.7746219226    -0.0648952924
   56      C       0.1171461356     5.0618270546     1.0384848580
   57      C      -1.1714217638     5.4942725834     0.8147671042
   58      N       0.4301482207     3.8301041772     1.5252388494
   59      C      -2.2016051652     4.6677300618     1.1612690803
   60      C      -0.5277269673     2.9772759435     1.7476014537
   61      C      -1.9688876282     3.3058490451     1.4826530317
   62      C      -3.1112320290     2.3008258707     1.6811868802
   63      C      -4.3037000159     2.3447185289     0.8692850790
   64      C      -3.0857215487     1.2517574006     2.6142198702
   65      N      -5.3558799248     1.4981093513     0.9616286734
   66      N      -2.2160259922     1.1789331413     3.6912139584
   67      C      -4.1351800112     0.3311007051     2.6451097516
   68      C      -5.2051155420     0.3732862510     1.7051420182
   69      S      -2.7294087416    -0.0620480682     4.5576617586
   70      N      -4.0894385021    -0.4761835805     3.7074683523
   71      C      -6.3776382865    -0.5325767694     1.5625460799
   72      S      -7.9433869729    -0.1673933101     0.8810733421
   73      C      -6.3809212303    -1.8847298193     1.8146975264
   74      C      -8.5436814628    -1.8315535183     0.9516022493
   75      S      -4.9951454402    -2.9566012218     2.0366325534
   76      C      -7.5344880455    -2.6136274244     1.5247994683
   77      C      -9.7947701505    -2.2920082808     0.3581273069
   78      C      -6.0608263307    -4.4305378744     1.9657524895
   79      C      -7.3675359519    -4.0446855193     1.5784439227
   80      N     -10.3239918298    -3.4550694897     0.7597067366
   81      S     -10.8958648354    -1.1961144556    -0.4316506486
   82      C     -11.5661813334    -3.6099861963     0.2891516906
   83      C     -12.0314533745    -2.5384301683    -0.4365697481
   84      C       1.2753208552     6.0366830687     0.6450219367
   85      H      -1.4816817376     6.4873662429     0.5026057165
   86      H      -3.2203429236     5.0434955828     1.1738648295
   87      H      -0.2230915591     2.0141706924     2.1561789170
   88      H      -4.4692889877     3.2745827511     0.3286541321
   89      H      -5.5628862212    -5.3554739253     2.2247659042
   90      H      -8.1836201581    -4.7537591909     1.5017230214
   91      H     -12.0562670659    -4.5518553339     0.4951820338
   92      H     -13.0350404569    -2.3540334475    -0.7936731189
   93      H       1.1313881514     7.1102782568     0.8234364790
   94      C       1.9802394716     5.7386358662    -0.7619548255
   95      H       2.0549479890     5.8737169456     1.3992961409
   96      H       2.5821562483     4.8212872351    -0.7296952062
   97      H       2.5970779952     6.5785939503    -1.1054510449
   98      C       0.9873587633     5.4825186286    -1.8169964643
   99      H       1.5279126689     5.2387595949    -2.7397748822
  100      C       0.0588153913     6.7025487808    -2.1370615109
  101      H       0.3499121131     4.6263305870    -1.5651675432
  102      H       0.7533403742     7.5314984022    -2.3185403616
  103      H      -0.6425503639     6.8924002036    -1.3142756854
  104      C      -0.7947673485     6.5288206978    -3.3861291871
  105      H      -0.1202655794     6.0249622766    -4.0889819846
  106      C      -1.3568944129     7.8322488986    -3.9958144247
  107      H      -1.6128467665     5.8393453459    -3.1423427951
  108      H      -0.5341921962     8.5296263859    -4.1944213303
  109      H      -2.1167968532     8.1840824542    -3.2867837975
  110      H      -1.9449478494     7.7269878223    -4.9156292221
 ----------------------------------------------------------------

   10   -5663.5078800459      3.24E-06 Convergence criterion met
 Total energy in the final basis set = -5663.5078800459

                    Orbital Energies (a.u.)
 --------------------------------------------------------------

 Alpha MOs
 -- Occupied --
-88.990 -88.980 -88.932 -88.926 -88.925 -88.916 -88.912 -88.901
-14.385 -14.383 -14.382 -14.373 -14.355 -14.345 -14.344 -14.340
-14.339 -14.326 -10.274 -10.270 -10.264 -10.259 -10.258 -10.257
-10.251 -10.248 -10.247 -10.244 -10.243 -10.240 -10.240 -10.239
-10.234 -10.234 -10.234 -10.234 -10.233 -10.233 -10.232 -10.232
-10.231 -10.229 -10.229 -10.224 -10.223 -10.219 -10.217 -10.214
-10.212 -10.210 -10.205 -10.205 -10.199 -10.197 -10.195 -10.192
-10.189 -10.184 -10.178 -10.176 -10.176 -10.176 -10.175 -10.173
-10.173 -10.172 -10.168 -10.165  -8.046  -8.035  -7.993  -7.986
 -7.986  -7.975  -7.971  -7.961  -6.011  -6.005  -6.004  -6.000
 -5.994  -5.993  -5.957  -5.954  -5.950  -5.950  -5.950  -5.946
 -5.946  -5.943  -5.942  -5.939  -5.935  -5.935  -5.932  -5.931
 -5.927  -5.926  -5.922  -5.918  -1.039  -1.039  -0.976  -0.968
 -0.958  -0.955  -0.952  -0.937  -0.912  -0.911  -0.903  -0.902
 -0.838  -0.837  -0.832  -0.832  -0.816  -0.810  -0.808  -0.805
 -0.803  -0.801  -0.800  -0.792  -0.782  -0.773  -0.768  -0.763
 -0.751  -0.747  -0.740  -0.738  -0.722  -0.711  -0.706  -0.703
 -0.690  -0.689  -0.674  -0.669  -0.661  -0.649  -0.646  -0.645
 -0.638  -0.633  -0.630  -0.626  -0.617  -0.606  -0.600  -0.593
 -0.592  -0.587  -0.583  -0.581  -0.576  -0.573  -0.559  -0.558
 -0.554  -0.552  -0.542  -0.536  -0.522  -0.521  -0.514  -0.510
 -0.507  -0.505  -0.501  -0.493  -0.488  -0.485  -0.482  -0.477
 -0.475  -0.471  -0.470  -0.469  -0.467  -0.461  -0.449  -0.448
 -0.447  -0.441  -0.441  -0.438  -0.437  -0.435  -0.433  -0.432
 -0.431  -0.426  -0.421  -0.419  -0.418  -0.413  -0.412  -0.410
 -0.410  -0.408  -0.402  -0.402  -0.399  -0.395  -0.395  -0.392
 -0.392  -0.390  -0.389  -0.388  -0.386  -0.385  -0.384  -0.383
 -0.380  -0.378  -0.373  -0.368  -0.367  -0.363  -0.355  -0.354
 -0.351  -0.350  -0.348  -0.346  -0.342  -0.342  -0.338  -0.337
 -0.336  -0.335  -0.331  -0.327  -0.326  -0.323  -0.322  -0.317
 -0.312  -0.311  -0.310  -0.308  -0.306  -0.302  -0.301  -0.300
 -0.296  -0.295  -0.292  -0.289  -0.287  -0.285  -0.284  -0.282
 -0.278  -0.270  -0.262  -0.260  -0.257  -0.252  -0.252  -0.249
 -0.244  -0.240  -0.233  -0.225  -0.194  -0.189

          Ground-State Mulliken Net Atomic Charges

     Atom                 Charge (a.u.)
  ----------------------------------------
      1 C                     0.267992
      2 C                    -0.111780
      3 N                    -0.467620
      4 C                    -0.091146
      5 C                     0.052079
      6 C                     0.073236
      7 C                     0.030902
      8 C                     0.059082
      9 C                     0.229370
     10 N                    -0.549924
     11 N                    -0.557851
     12 C                     0.183971
     13 C                     0.336634
     14 S                     0.620608
     15 N                    -0.557497
     16 C                    -0.225422
     17 S                     0.299920
     18 C                    -0.093791
     19 C                    -0.218336
     20 S                     0.298180
     21 C                     0.158186
     22 C                     0.046634
     23 C                    -0.315635
     24 C                    -0.062207
     25 N                    -0.428995
     26 S                     0.280685
     27 C                     0.112513
     28 C                    -0.314959
     29 C                    -0.218044
     30 H                     0.089986
     31 H                     0.100288
     32 H                     0.096517
     33 H                     0.117306
     34 H                     0.112620
     35 H                     0.135179
     36 H                     0.116173
     37 H                     0.141170
     38 H                     0.089775
     39 C                    -0.173253
     40 H                     0.111530
     41 H                     0.095168
     42 H                     0.086946
     43 C                    -0.175671
     44 H                     0.108133
     45 C                    -0.169494
     46 H                     0.085469
     47 H                     0.107247
     48 H                     0.081368
     49 C                    -0.173966
     50 H                     0.099437
     51 C                    -0.326828
     52 H                     0.091652
     53 H                     0.103057
     54 H                     0.097471
     55 H                     0.093269
     56 C                     0.248320
     57 C                    -0.086848
     58 N                    -0.470296
     59 C                    -0.092137
     60 C                     0.114899
     61 C                     0.017965
     62 C                     0.016682
     63 C                     0.061725
     64 C                     0.198423
     65 N                    -0.486993
     66 N                    -0.528630
     67 C                     0.218254
     68 C                     0.278825
     69 S                     0.615432
     70 N                    -0.545311
     71 C                    -0.218922
     72 S                     0.316285
     73 C                    -0.120421
     74 C                    -0.227440
     75 S                     0.241406
     76 C                     0.144185
     77 C                     0.048867
     78 C                    -0.299947
     79 C                    -0.061295
     80 N                    -0.418458
     81 S                     0.279294
     82 C                     0.139822
     83 C                    -0.318627
     84 C                    -0.239833
     85 H                     0.104401
     86 H                     0.100408
     87 H                     0.122678
     88 H                     0.103084
     89 H                     0.143550
     90 H                     0.129288
     91 H                     0.117948
     92 H                     0.132071
     93 H                     0.105752
     94 C                    -0.170944
     95 H                     0.110608
     96 H                     0.106208
     97 H                     0.093803
     98 C                    -0.182525
     99 H                     0.086740
    100 C                    -0.160765
    101 H                     0.102305
    102 H                     0.081751
    103 H                     0.081894
    104 C                    -0.178471
    105 H                     0.089887
    106 C                    -0.314741
    107 H                     0.088589
    108 H                     0.103851
    109 H                     0.098303
    110 H                     0.101769
  ----------------------------------------
  Sum of atomic charges =     0.000000

                    Cartesian Multipole Moments
 -----------------------------------------------------------------
    Charge (ESU x 10^10)
                 0.0000
    Dipole Moment (Debye)
         X      -4.2399      Y       2.5664      Z      -1.4436
       Tot       5.1621
    Quadrupole Moments (Debye-Ang)
        XX    -407.8419     XY      20.9384     YY    -421.8194
        XZ      12.2635     YZ       1.5104     ZZ    -444.0091

 Total job time:  90.28s(wall), 1058.18s(cpu)
        *  Thank you very much for using Q-Chem.  Have a nice day.  *
