 Q-Chem 4.4, Q-Chem, Inc., Pleasanton, CA (2016)
 Q-Chem 4.4.2 for Intel X86 Linux

User input:
--------------------------------------------------------------
$comment
SP
$end

$rem
MEM_STATIC 5000
MEM_TOTAL 20000
JOBTYPE SP
EXCHANGE B3LYP
BASIS 6-31g(d,p)
$end

$molecule
0 1
C          26.601000     25.159000     -2.806000
C          26.070000     23.890000     -3.027000
N          25.989000     26.214000     -2.308000
C          24.787000     23.652000     -2.486000
C          24.701000     26.041000     -1.996000
C          24.041000     24.772000     -2.011000
C          22.631000     24.633000     -1.626000
C          22.195000     23.426000     -1.090000
C          21.623000     25.558000     -1.829000
N          20.951000     23.201000     -0.616000
N          21.831000     26.790000     -2.364000
C          20.304000     25.277000     -1.604000
C          20.004000     24.066000     -0.919000
S          20.325000     27.402000     -2.650000
N          19.431000     26.244000     -1.968000
C          18.563000     23.692000     -0.735000
S          17.096000     24.481000     -1.522000
C          18.103000     22.658000     -0.061000
C          15.920000     23.477000     -0.652000
S          19.048000     21.480000      0.863000
C          16.708000     22.501000     -0.093000
C          14.633000     23.152000     -1.053000
C          17.436000     20.676000      1.149000
C          16.351000     21.311000      0.555000
N          13.772000     22.771000     -0.149000
S          14.350000     22.698000     -2.696000
C          12.762000     22.072000     -0.776000
C          12.983000     21.795000     -2.098000
C          27.959000     25.597000     -3.231000
H          26.677000     23.114000     -3.485000
H          24.350000     22.659000     -2.542000
H          24.246000     26.987000     -1.706000
H          22.870000     22.576000     -1.000000
H          17.460000     19.788000      1.766000
H          15.332000     20.958000      0.662000
H          11.985000     21.662000     -0.145000
H          12.330000     21.240000     -2.759000
H          28.214000     25.082000     -4.165000
C          28.968000     25.241000     -2.157000
H          28.012000     26.661000     -3.494000
H          29.121000     24.156000     -2.123000
H          28.500000     25.459000     -1.189000
C          30.263000     26.097000     -2.275000
H          29.937000     27.145000     -2.288000
C          31.101000     25.780000     -3.614000
H          30.970000     25.959000     -1.448000
H          30.607000     26.118000     -4.534000
H          31.115000     24.702000     -3.819000
C          32.515000     26.379000     -3.577000
H          32.322000     27.419000     -3.290000
C          33.221000     26.307000     -4.904000
H          33.100000     26.074000     -2.700000
H          33.813000     25.388000     -4.991000
H          33.986000     27.093000     -4.932000
H          32.700000     26.432000     -5.861000
C          15.126000      8.824000      3.843000
C          16.233000      9.216000      4.643000
N          14.474000      9.704000      3.085000
C          16.616000     10.586000      4.683000
C          14.868000     10.993000      3.127000
C          15.919000     11.501000      3.932000
C          16.368000     12.964000      3.963000
C          17.724000     13.331000      4.237000
C          15.513000     14.048000      3.672000
N          18.257000     14.545000      4.234000
N          14.204000     13.903000      3.384000
C          16.022000     15.321000      3.662000
C          17.447000     15.582000      3.901000
S          13.743000     15.473000      3.059000
N          15.187000     16.297000      3.275000
C          18.202000     16.808000      3.769000
S          19.978000     16.779000      3.459000
C          17.815000     18.038000      4.240000
C          19.943000     18.557000      3.444000
S          16.387000     18.576000      4.950000
C          18.785000     19.014000      4.057000
C          21.095000     19.360000      3.101000
C          17.010000     20.198000      5.073000
C          18.261000     20.262000      4.449000
N          22.084000     18.847000      2.375000
S          21.451000     20.992000      3.691000
C          23.086000     19.748000      2.139000
C          22.931000     20.919000      2.845000
C          14.765000      7.380000      3.802000
H          16.787000      8.409000      5.114000
H          17.473000     10.753000      5.329000
H          14.292000     11.642000      2.468000
H          18.452000     12.553000      4.463000
H          16.380000     20.887000      5.621000
H          18.753000     21.221000      4.336000
H          23.940000     19.463000      1.538000
H          23.579000     21.786000      2.861000
H          14.626000      6.993000      2.785000
C          13.526000      6.961000      4.583000
H          15.586000      6.770000      4.197000
H          12.668000      7.608000      4.363000
H          13.692000      7.095000      5.659000
C          13.143000      5.444000      4.297000
H          12.786000      5.295000      3.271000
C          12.098000      4.977000      5.291000
H          14.023000      4.802000      4.428000
H          12.495000      5.138000      6.301000
H          12.009000      3.891000      5.161000
C          10.738000      5.649000      5.157000
H          10.672000      6.700000      5.462000
C           9.656000      4.919000      5.945000
H          10.346000      5.710000      4.134000
H           8.948000      5.689000      6.275000
H          10.173000      4.407000      6.766000
H           9.157000      4.136000      5.361000
$end

--------------------------------------------------------------

             Standard Nuclear Orientation (Angstroms)
    I     Atom           X                Y                Z
 ----------------------------------------------------------------
    1      C     -10.0046796940     2.4374114630    -1.1478711302
    2      C      -8.8147108006     2.6276340409    -1.8471224466
    3      N     -10.3033975113     1.4619438975    -0.3143222748
    4      C      -7.7400631923     1.7865077599    -1.4823580055
    5      C      -9.3510630535     0.5410464634    -0.1376191439
    6      C      -8.0212539432     0.6613772615    -0.6507606733
    7      C      -7.0027758972    -0.3655432111    -0.3982080794
    8      C      -5.6631906692     0.0071714305    -0.3692907347
    9      C      -7.2131235678    -1.7271916636    -0.2775210898
   10      N      -4.6422850889    -0.8205453287    -0.0603024457
   11      N      -8.4444120438    -2.3020904337    -0.3045967791
   12      C      -6.1899225689    -2.6324171699    -0.2229912949
   13      C      -4.8738886040    -2.1179047477    -0.0524698281
   14      S      -8.1661825153    -3.9264496470    -0.3963653772
   15      N      -6.5606114243    -3.9332796235    -0.2307790765
   16      C      -3.7253773976    -3.0825893209    -0.0752444396
   17      S      -3.7690783929    -4.8584261607    -0.5635811486
   18      C      -2.4587245051    -2.7963318126     0.1453889413
   19      C      -2.0617299383    -5.1467031572    -0.1766061778
   20      S      -1.7825642098    -1.2233029458     0.5958025726
   21      C      -1.5724842640    -3.8764558943     0.0053596471
   22      C      -1.2293878028    -6.1149594068    -0.7174216774
   23      C      -0.1774395524    -2.0842412050     0.5003240497
   24      C      -0.2529082042    -3.4269978302     0.1473436991
   25      N      -0.1610792714    -6.4649927701    -0.0541784896
   26      S      -1.2678919874    -6.4059655667    -2.4202096392
   27      C       0.7273885221    -7.0465434996    -0.9340953770
   28      C       0.3791402672    -6.9550970896    -2.2545554132
   29      C     -11.2352478999     3.2559800420    -1.3275385229
   30      H      -8.7126274883     3.4587297159    -2.5393998306
   31      H      -6.7583488135     1.9386060905    -1.9219680331
   32      H      -9.7228136445    -0.2840610128     0.4682192428
   33      H      -5.3617714632     1.0325565756    -0.5789494252
   34      H       0.6895058567    -1.4838724729     0.7406822058
   35      H       0.6190955929    -4.0665580691     0.0766961324
   36      H       1.6809183030    -7.3607694219    -0.5315621153
   37      H       0.9477657202    -7.3226960382    -3.0988842041
   38      H     -11.2930342395     3.5713338844    -2.3762609328
   39      C     -11.1716716602     4.4747669641    -0.4282001548
   40      H     -12.1624047762     2.6902922185    -1.1711690472
   41      H     -10.4188374517     5.1811789853    -0.7969991662
   42      H     -10.7576678181     4.1457772549     0.5330170891
   43      C     -12.5843882867     5.0755170653    -0.1693255728
   44      H     -13.2057181038     4.2489177997     0.1986851779
   45      C     -13.2514933838     5.6969127088    -1.4976674880
   46      H     -12.6002036686     5.8840406648     0.5715262765
   47      H     -13.5374426291     4.9426490549    -2.2419788271
   48      H     -12.5054203923     6.2412312546    -2.0904553187
   49      C     -14.4835057819     6.5601325224    -1.1869216044
   50      H     -15.0738413692     5.9021720352    -0.5389942230
   51      C     -15.2598224560     6.9447145523    -2.4173597719
   52      H     -14.2875898829     7.3647030101    -0.4667394810
   53      H     -14.9179860194     7.9058008627    -2.8199202698
   54      H     -16.2942336229     7.1589777189    -2.1208975766
   55      H     -15.3806170458     6.2739389400    -3.2766523559
   56      C      11.0305191800     2.7479108766    -1.5234366364
   57      C      10.3790550594     3.6033457197    -0.5944916817
   58      N      10.4730025994     1.6053541690    -1.9206864724
   59      C       9.1348422200     3.2043440678    -0.0306467632
   60      C       9.2850496846     1.2586420543    -1.3848883931
   61      C       8.5780322964     2.0072208844    -0.4099801164
   62      C       7.2232081727     1.6122075865     0.1827652657
   63      C       6.2785124856     2.5926230093     0.6241683216
   64      C       6.7774167738     0.2776088742     0.2870643826
   65      N       5.0554296058     2.3927500144     1.0953509349
   66      N       7.5221285300    -0.7836502924    -0.0825075067
   67      C       5.5204320460     0.0253856478     0.7729479472
   68      C       4.6065274009     1.1127506254     1.1448117734
   69      S       6.4752524772    -2.0543260206     0.1867130793
   70      N       5.1141253657    -1.2528526398     0.7486217962
   71      C       3.2080570713     1.0674613239     1.5091668425
   72      S       2.1384572157     2.5003179454     1.2767984902
   73      C       2.6417195144     0.1813158125     2.3915034587
   74      C       0.7980368177     1.5290202662     1.9268661599
   75      S       3.2615417642    -1.1597105623     3.1978511756
   76      C       1.2971629502     0.4373114792     2.6230177441
   77      C      -0.5688685113     1.9985878564     1.9521268000
   78      C       1.7189699324    -1.4778090314     3.9417782605
   79      C       0.7673628033    -0.5862427787     3.4338151821
   80      N      -0.9684555828     2.9593160928     1.1240583076
   81      S      -1.8162182599     1.5378680487     3.1226462844
   82      C      -2.2911722634     3.2719395630     1.2795837033
   83      C      -2.8642508366     2.6517999030     2.3661883927
   84      C      12.3185394079     3.2040881296    -2.1150819745
   85      H      10.8408337067     4.5742952063    -0.4394962776
   86      H       8.7433039915     3.9435147949     0.6621580086
   87      H       8.8939001780     0.3190486694    -1.7740211913
   88      H       6.5404123313     3.6484432593     0.5694319488
   89      H       1.7256979804    -2.2657906096     4.6840482692
   90      H      -0.2748468971    -0.7052056134     3.7061399593
   91      H      -2.7480574113     4.0227157481     0.6476556367
   92      H      -3.8806906469     2.7341247537     2.7293987051
   93      H      12.3553168759     3.1099719317    -3.2074045272
   94      C      13.5858036884     2.5383692918    -1.5940227911
   95      H      12.4563658255     4.2787464449    -1.9469172217
   96      H      13.4981384160     1.4450047815    -1.5875538192
   97      H      13.7462578994     2.7992134050    -0.5406934054
   98      C      14.8608682347     2.9707120400    -2.4408191956
   99      H      14.8347497659     2.5683488796    -3.4604993968
  100      C      16.1269190479     2.5296954243    -1.7331683755
  101      H      14.9030993659     4.0636447394    -2.5270725792
  102      H      16.1163290779     2.9560183613    -0.7223436598
  103      H      16.9612178339     3.0063084696    -2.2632651033
  104      C      16.3282434405     1.0221510772    -1.6562363894
  105      H      15.6647129211     0.4669839253    -0.9828132807
  106      C      17.7473582450     0.6522876204    -1.2392445491
  107      H      16.1625776255     0.4803205709    -2.5958578771
  108      H      17.6638778972    -0.2824997418    -0.6715583514
  109      H      18.1204279399     1.4997365510    -0.6509220926
  110      H      18.4293513953     0.5468118330    -2.0918324924
 ----------------------------------------------------------------

   10   -5663.4834726380      4.38E-06 Convergence criterion met
 Total energy in the final basis set = -5663.4834726380

                    Orbital Energies (a.u.)
 --------------------------------------------------------------

 Alpha MOs
 -- Occupied --
-88.993 -88.985 -88.927 -88.926 -88.923 -88.913 -88.912 -88.904
-14.395 -14.390 -14.388 -14.382 -14.355 -14.347 -14.341 -14.340
-14.326 -14.326 -10.268 -10.267 -10.262 -10.260 -10.259 -10.254
-10.253 -10.252 -10.245 -10.242 -10.238 -10.237 -10.236 -10.236
-10.230 -10.228 -10.228 -10.228 -10.227 -10.226 -10.226 -10.226
-10.224 -10.224 -10.224 -10.223 -10.223 -10.222 -10.220 -10.220
-10.218 -10.212 -10.210 -10.209 -10.207 -10.203 -10.197 -10.190
-10.184 -10.180 -10.180 -10.179 -10.178 -10.178 -10.177 -10.175
-10.175 -10.172 -10.171 -10.167  -8.048  -8.040  -7.988  -7.985
 -7.984  -7.975  -7.972  -7.963  -6.013  -6.007  -6.006  -6.005
 -6.000  -5.998  -5.952  -5.949  -5.948  -5.948  -5.945  -5.945
 -5.945  -5.942  -5.940  -5.939  -5.937  -5.935  -5.933  -5.931
 -5.928  -5.927  -5.924  -5.919  -1.043  -1.035  -0.977  -0.971
 -0.967  -0.959  -0.953  -0.938  -0.925  -0.912  -0.909  -0.904
 -0.853  -0.843  -0.831  -0.831  -0.816  -0.808  -0.808  -0.807
 -0.806  -0.806  -0.804  -0.799  -0.786  -0.784  -0.774  -0.762
 -0.751  -0.750  -0.744  -0.741  -0.731  -0.713  -0.713  -0.706
 -0.696  -0.691  -0.678  -0.673  -0.659  -0.654  -0.652  -0.644
 -0.638  -0.632  -0.630  -0.626  -0.614  -0.609  -0.603  -0.601
 -0.598  -0.592  -0.589  -0.588  -0.582  -0.572  -0.571  -0.564
 -0.552  -0.551  -0.548  -0.541  -0.526  -0.522  -0.516  -0.515
 -0.513  -0.506  -0.500  -0.495  -0.487  -0.483  -0.482  -0.477
 -0.475  -0.471  -0.471  -0.465  -0.462  -0.459  -0.453  -0.450
 -0.445  -0.443  -0.442  -0.440  -0.438  -0.437  -0.432  -0.430
 -0.429  -0.423  -0.422  -0.421  -0.421  -0.420  -0.417  -0.415
 -0.414  -0.411  -0.410  -0.404  -0.402  -0.399  -0.397  -0.397
 -0.394  -0.393  -0.392  -0.392  -0.389  -0.388  -0.386  -0.383
 -0.382  -0.378  -0.378  -0.376  -0.369  -0.363  -0.361  -0.355
 -0.354  -0.354  -0.351  -0.350  -0.349  -0.346  -0.345  -0.342
 -0.338  -0.334  -0.332  -0.328  -0.326  -0.324  -0.322  -0.320
 -0.318  -0.307  -0.307  -0.306  -0.305  -0.304  -0.303  -0.301
 -0.299  -0.297  -0.292  -0.291  -0.288  -0.287  -0.286  -0.280
 -0.279  -0.276  -0.271  -0.262  -0.257  -0.256  -0.250  -0.249
 -0.247  -0.242  -0.232  -0.228  -0.196  -0.192

          Ground-State Mulliken Net Atomic Charges

     Atom                 Charge (a.u.)
  ----------------------------------------
      1 C                     0.261834
      2 C                    -0.117909
      3 N                    -0.465404
      4 C                    -0.078007
      5 C                     0.085275
      6 C                     0.016392
      7 C                     0.073515
      8 C                     0.034902
      9 C                     0.226308
     10 N                    -0.519705
     11 N                    -0.569388
     12 C                     0.206927
     13 C                     0.301702
     14 S                     0.611206
     15 N                    -0.547415
     16 C                    -0.220384
     17 S                     0.280571
     18 C                    -0.086060
     19 C                    -0.215747
     20 S                     0.280094
     21 C                     0.128723
     22 C                     0.039762
     23 C                    -0.307733
     24 C                    -0.058225
     25 N                    -0.399719
     26 S                     0.280315
     27 C                     0.100756
     28 C                    -0.298783
     29 C                    -0.206889
     30 H                     0.098847
     31 H                     0.104812
     32 H                     0.121402
     33 H                     0.109022
     34 H                     0.133848
     35 H                     0.116495
     36 H                     0.111340
     37 H                     0.131685
     38 H                     0.088239
     39 C                    -0.180716
     40 H                     0.118665
     41 H                     0.090003
     42 H                     0.102228
     43 C                    -0.189058
     44 H                     0.102539
     45 C                    -0.172019
     46 H                     0.090398
     47 H                     0.092266
     48 H                     0.084940
     49 C                    -0.175560
     50 H                     0.095374
     51 C                    -0.327390
     52 H                     0.094357
     53 H                     0.104853
     54 H                     0.099740
     55 H                     0.106404
     56 C                     0.292245
     57 C                    -0.130986
     58 N                    -0.489201
     59 C                    -0.088422
     60 C                     0.076287
     61 C                     0.054143
     62 C                     0.033241
     63 C                     0.062205
     64 C                     0.246425
     65 N                    -0.504628
     66 N                    -0.558655
     67 C                     0.212442
     68 C                     0.260201
     69 S                     0.582708
     70 N                    -0.547110
     71 C                    -0.206644
     72 S                     0.357627
     73 C                    -0.123739
     74 C                    -0.206845
     75 S                     0.278616
     76 C                     0.146392
     77 C                     0.046339
     78 C                    -0.294456
     79 C                    -0.110876
     80 N                    -0.431654
     81 S                     0.289937
     82 C                     0.125941
     83 C                    -0.308493
     84 C                    -0.228659
     85 H                     0.087947
     86 H                     0.103441
     87 H                     0.119360
     88 H                     0.102370
     89 H                     0.148725
     90 H                     0.122066
     91 H                     0.115340
     92 H                     0.135390
     93 H                     0.114715
     94 C                    -0.174801
     95 H                     0.092383
     96 H                     0.116524
     97 H                     0.088666
     98 C                    -0.181887
     99 H                     0.097215
    100 C                    -0.179084
    101 H                     0.084532
    102 H                     0.093725
    103 H                     0.088102
    104 C                    -0.170805
    105 H                     0.098151
    106 C                    -0.321171
    107 H                     0.091961
    108 H                     0.098975
    109 H                     0.100697
    110 H                     0.103455
  ----------------------------------------
  Sum of atomic charges =     0.000000

                    Cartesian Multipole Moments
 -----------------------------------------------------------------
    Charge (ESU x 10^10)
                 0.0000
    Dipole Moment (Debye)
         X      -0.6318      Y       0.7480      Z      -0.2802
       Tot       1.0184
    Quadrupole Moments (Debye-Ang)
        XX    -438.2069     XY      -5.7257     YY    -425.2177
        XZ      12.1122     YZ       4.8459     ZZ    -436.4707

 Total job time:  90.84s(wall), 1071.54s(cpu)
        *  Thank you very much for using Q-Chem.  Have a nice day.  *
