 Q-Chem 4.4, Q-Chem, Inc., Pleasanton, CA (2016)
 Q-Chem 4.4.2 for Intel X86 Linux

User input:
--------------------------------------------------------------
$comment
SP
$end

$rem
MEM_STATIC 5000
MEM_TOTAL 20000
JOBTYPE SP
EXCHANGE B3LYP
BASIS 6-31g(d,p)
$end

$molecule
0 1
C          -2.822000    -12.674000    -12.821000
C          -3.128000    -11.312000    -12.782000
N          -1.764000    -13.162000    -12.128000
C          -2.371000    -10.386000    -12.073000
C          -0.917000    -12.263000    -11.546000
C          -1.157000    -10.901000    -11.433000
C          -0.198000     -9.978000    -10.762000
C          -0.722000     -8.901000     -9.954000
C           1.170000    -10.150000    -10.763000
N           0.080000     -8.142000     -9.160000
N           1.826000    -11.113000    -11.447000
C           2.000000     -9.400000     -9.956000
C           1.373000     -8.449000     -9.092000
S           3.399000    -11.087000    -10.982000
N           3.292000     -9.791000     -9.982000
C           2.064000     -7.686000     -7.967000
S           1.128000     -6.425000     -7.105000
C           3.112000     -8.026000     -7.170000
C           2.108000     -6.701000     -5.590000
S           4.320000     -9.293000     -7.418000
C           3.205000     -7.484000     -5.908000
C           1.624000     -6.448000     -4.285000
C           4.786000     -9.106000     -5.696000
C           4.163000     -8.060000     -5.012000
N           2.475000     -6.078000     -3.408000
S          -0.049000     -6.744000     -3.745000
C           1.986000     -6.210000     -2.122000
C           0.634000     -6.486000     -2.132000
C          -3.709000    -13.756000    -13.521000
H          -3.911000    -10.842000    -13.370000
H          -2.642000     -9.334000    -12.076000
H          -0.053000    -12.674000    -11.026000
H          -1.784000     -8.665000     -9.907000
H           5.477000     -9.849000     -5.322000
H           4.289000     -7.779000     -3.972000
H           2.653000     -6.061000     -1.283000
H          -0.016000     -6.620000     -1.278000
H          -3.011000    -14.339000    -14.134000
C          -4.750000    -13.201000    -14.582000
H          -4.195000    -14.374000    -12.755000
H          -4.220000    -12.932000    -15.504000
H          -5.333000    -12.423000    -14.074000
C          -5.755000    -14.335000    -14.963000
H          -5.150000    -15.115000    -15.443000
C          -6.862000    -13.990000    -15.927000
H          -6.181000    -14.779000    -14.055000
H          -7.272000    -13.010000    -15.652000
H          -7.693000    -14.703000    -15.868000
C          -6.300000    -14.020000    -17.423000
H          -5.394000    -13.429000    -17.607000
C          -7.459000    -13.532000    -18.315000
H          -6.178000    -15.054000    -17.766000
H          -8.218000    -14.315000    -18.194000
H          -7.249000    -13.379000    -19.380000
H          -7.896000    -12.604000    -17.927000
C           6.527000    -14.380000    -17.137000
C           7.072000    -13.490000    -16.233000
N           5.626000    -15.269000    -16.743000
C           6.764000    -13.669000    -14.809000
C           5.252000    -15.370000    -15.427000
C           5.783000    -14.574000    -14.413000
C           5.356000    -14.531000    -12.949000
C           6.175000    -14.172000    -11.897000
C           3.978000    -14.717000    -12.537000
N           5.743000    -14.012000    -10.591000
N           3.021000    -14.936000    -13.450000
C           3.553000    -14.575000    -11.234000
C           4.457000    -14.254000    -10.245000
S           1.613000    -14.953000    -12.577000
N           2.257000    -14.783000    -11.043000
C           4.099000    -14.071000     -8.819000
S           2.409000    -14.262000     -8.155000
C           4.893000    -13.502000     -7.823000
C           2.988000    -13.965000     -6.566000
S           6.581000    -13.084000     -7.816000
C           4.219000    -13.476000     -6.590000
C           2.261000    -14.206000     -5.296000
C           6.287000    -12.507000     -6.104000
C           5.023000    -12.918000     -5.572000
N           1.083000    -14.636000     -5.409000
S           2.982000    -14.461000     -3.679000
C           0.509000    -15.014000     -4.136000
C           1.390000    -14.910000     -3.085000
C           6.617000    -14.326000    -18.644000
H           7.864000    -12.800000    -16.509000
H           7.306000    -13.086000    -14.071000
H           4.628000    -16.222000    -15.162000
H           7.228000    -13.943000    -12.049000
H           7.050000    -11.924000     -5.605000
H           4.597000    -12.871000     -4.577000
H          -0.527000    -15.310000     -4.041000
H           1.229000    -15.106000     -2.033000
H           5.675000    -13.973000    -19.083000
C           7.018000    -15.642000    -19.417000
H           7.355000    -13.589000    -18.984000
H           6.252000    -16.422000    -19.321000
H           7.897000    -16.017000    -18.880000
C           7.460000    -15.443000    -20.861000
H           6.559000    -15.104000    -21.385000
C           7.880000    -16.804000    -21.481000
H           8.256000    -14.689000    -20.897000
H           7.311000    -17.643000    -21.061000
H           8.912000    -17.114000    -21.272000
C           7.796000    -16.786000    -22.990000
H           8.210000    -17.694000    -23.446000
C           8.444000    -15.561000    -23.724000
H           6.763000    -16.978000    -23.306000
H           7.734000    -14.725000    -23.705000
H           8.762000    -15.861000    -24.730000
H           9.424000    -15.329000    -23.289000
$end

--------------------------------------------------------------

             Standard Nuclear Orientation (Angstroms)
    I     Atom           X                Y                Z
 ----------------------------------------------------------------
    1      C       1.4285583528     5.4268214976    -0.5703289290
    2      C       0.8032954875     5.8610080170     0.6004526115
    3      N       1.1505957600     4.2045630431    -1.0866409156
    4      C      -0.0992259976     5.0782449461     1.3117492751
    5      C       0.3868461960     3.3571144841    -0.3364065899
    6      C      -0.2957879773     3.7120314567     0.8183477251
    7      C      -1.1334184188     2.7400318111     1.5769272742
    8      C      -2.3718674787     3.2001282626     2.1616701077
    9      C      -0.8651158889     1.3903644673     1.6630714194
   10      N      -3.2778637289     2.3386195444     2.6971087346
   11      N       0.2346382954     0.7886736654     1.1590179370
   12      C      -1.7752052826     0.4980073753     2.1904091818
   13      C      -3.0287912373     1.0336554328     2.6212565012
   14      S       0.0317818880    -0.8341837350     1.2871316990
   15      N      -1.4075877912    -0.7957955094     2.0731382325
   16      C      -4.2519528725     0.2134238843     3.0166940073
   17      S      -5.6727430703     1.0830971620     3.6756967416
   18      C      -4.6847401883    -1.0045406731     2.5943547168
   19      C      -6.7906108261    -0.2076601199     3.0306244047
   20      S      -3.7775666123    -2.2642732603     1.7480882624
   21      C      -6.0300908949    -1.2938759061     2.6314168148
   22      C      -8.1428225023     0.0253410466     2.6863512003
   23      C      -5.3427549243    -3.0476789814     1.3558255649
   24      C      -6.4709681670    -2.4693218863     1.9412646732
   25      N      -8.9609768559    -0.9419104737     2.8453416090
   26      S      -8.7555487906     1.5129206367     1.9183548080
   27      C     -10.1425046979    -0.7409557843     2.1569012184
   28      C     -10.2190778804     0.5479272889     1.6699751753
   29      C       2.3665633832     6.3177835336    -1.4500028534
   30      H       1.0333775763     6.7923499186     1.1097634153
   31      H      -0.5572356273     5.4540593747     2.2223231021
   32      H       0.2064034795     2.3669774607    -0.7522023342
   33      H      -2.6630217118     4.2493641056     2.1707452518
   34      H      -5.2832239146    -3.8749304790     0.6619112917
   35      H      -7.5061372545    -2.7733509047     1.8297823139
   36      H     -10.8644528221    -1.5447847446     2.0963957768
   37      H     -11.0323341983     0.9930946351     1.1130082147
   38      H       3.2559607954     5.7010360112    -1.6273633245
   39      C       2.9530852242     7.6052977703    -0.7318620453
   40      H       1.8505942303     6.5699182718    -2.3854599113
   41      H       3.7563719854     7.3050435399    -0.0478132339
   42      H       2.0972569648     8.1520671450    -0.3173282814
   43      C       3.6061975921     8.5408568534    -1.7992492463
   44      H       4.4406875473     7.9667757882    -2.2221942132
   45      C       4.1795064754     9.8506866704    -1.3202578321
   46      H       2.9007672774     8.7241840540    -2.6189047890
   47      H       3.4786613020    10.2977458132    -0.6039623863
   48      H       4.2911566098    10.5721258070    -2.1384697971
   49      C       5.6265070111     9.6041486741    -0.6876691298
   50      H       5.6876971426     8.8221591611     0.0796125455
   51      C       6.0698502480    10.9651234959    -0.1147090014
   52      H       6.3687134816     9.4455245246    -1.4786539174
   53      H       6.1638961223    11.5964757611    -1.0070994377
   54      H       7.0025432117    10.9931144072     0.4606468401
   55      H       5.2836855648    11.4100180837     0.5071518324
   56      C       7.3731910529    -2.9782568474     1.1495818464
   57      C       6.2779113774    -3.5980521646     1.7175230382
   58      N       7.2421090206    -2.2753250496     0.0333102001
   59      C       5.0166248054    -3.6062818593     0.9666772116
   60      C       6.0377090993    -2.1891226633    -0.6177834783
   61      C       4.8785343480    -2.8275758534    -0.1790758080
   62      C       3.4748656597    -2.7045781519    -0.7639345764
   63      C       2.4981512579    -3.6773720611    -0.6861721989
   64      C       2.9766836282    -1.4665266391    -1.3316203304
   65      N       1.1898333215    -3.5050409584    -1.1062509635
   66      N       3.7515402072    -0.3727921145    -1.3584731126
   67      C       1.6793058006    -1.3023066962    -1.7657177651
   68      C       0.7871430870    -2.3490766726    -1.6838867874
   69      S       2.7642403526     0.8187700205    -1.9503351535
   70      N       1.4017741230    -0.1015404560    -2.2561233160
   71      C      -0.6282148327    -2.2707055316    -2.1148727773
   72      S      -1.3976510536    -0.7806319170    -2.8367630218
   73      C      -1.6420133930    -3.1855562030    -1.8294367462
   74      C      -2.8701801582    -1.6353859111    -3.0590795654
   75      S      -1.5708529621    -4.7858660200    -1.1526342028
   76      C      -2.8657261129    -2.7770248149    -2.3869941729
   77      C      -4.0281047457    -1.2110489715    -3.8828870742
   78      C      -3.3934946081    -4.7861324265    -1.3208196934
   79      C      -3.8935708396    -3.7072409908    -2.1180386299
   80      N      -3.9245577506    -0.0869411495    -4.4405721326
   81      S      -5.2842456527    -2.2681707070    -4.5929283815
   82      C      -5.0081175609     0.1733434737    -5.3630899115
   83      C      -5.8727852322    -0.8866043442    -5.5060529887
   84      C       8.7280071797    -2.7542060301     1.7791368431
   85      H       6.3661360121    -4.2399091787     2.5891743373
   86      H       4.1940659782    -4.2219674671     1.3168560348
   87      H       6.0487059020    -1.7257247276    -1.6029973757
   88      H       2.6967277213    -4.6472878308    -0.2343040899
   89      H      -3.9677618139    -5.5684264342    -0.8419749778
   90      H      -4.8743908862    -3.4895798298    -2.5234096391
   91      H      -5.1258209222     1.1311874596    -5.8515751391
   92      H      -6.7693824857    -0.9642079118    -6.1069956244
   93      H       8.8470841163    -1.7107274589     2.0979897158
   94      C      10.0126806392    -3.1269854637     0.9419776011
   95      H       8.8474704590    -3.3255275970     2.7079711621
   96      H      10.1271266665    -2.4834261392     0.0604417240
   97      H       9.8046139277    -4.1313628613     0.5552357145
   98      C      11.3034935179    -3.2430175033     1.7422523526
   99      H      11.5110274126    -2.2236761061     2.0874635900
  100      C      12.4705300302    -3.6701186408     0.8101947378
  101      H      11.1495332116    -3.9307139715     2.5829650216
  102      H      12.3440710113    -3.2903499013    -0.2115027815
  103      H      12.5553694529    -4.7499594268     0.6325683064
  104      C      13.8163283837    -3.2800968638     1.3769140734
  105      H      14.6526641141    -3.6866796195     0.7946520973
  106      C      14.0837067285    -3.6321437699     2.8815259159
  107      H      14.0292339411    -2.2307212197     1.1375587283
  108      H      13.6286172639    -2.8563327763     3.5095130825
  109      H      15.1601520538    -3.7692333627     3.0416255886
  110      H      13.7394282223    -4.6498501460     3.1033254702
 ----------------------------------------------------------------

   10   -5663.4737168266      3.53E-06 Convergence criterion met
 Total energy in the final basis set = -5663.4737168266

                    Orbital Energies (a.u.)
 --------------------------------------------------------------

 Alpha MOs
 -- Occupied --
-88.990 -88.984 -88.925 -88.923 -88.923 -88.920 -88.908 -88.900
-14.386 -14.384 -14.383 -14.374 -14.352 -14.347 -14.345 -14.336
-14.330 -14.324 -10.271 -10.265 -10.262 -10.260 -10.255 -10.253
-10.248 -10.248 -10.243 -10.242 -10.242 -10.240 -10.239 -10.238
-10.235 -10.234 -10.233 -10.233 -10.230 -10.230 -10.230 -10.229
-10.228 -10.227 -10.225 -10.222 -10.222 -10.220 -10.219 -10.217
-10.215 -10.215 -10.213 -10.204 -10.204 -10.202 -10.198 -10.197
-10.192 -10.188 -10.183 -10.183 -10.182 -10.177 -10.176 -10.174
-10.174 -10.173 -10.173 -10.169  -8.044  -8.038  -7.986  -7.984
 -7.981  -7.978  -7.966  -7.960  -6.009  -6.004  -6.004  -6.002
 -5.998  -5.996  -5.951  -5.947  -5.947  -5.945  -5.944  -5.943
 -5.943  -5.942  -5.940  -5.940  -5.937  -5.935  -5.931  -5.927
 -5.924  -5.923  -5.921  -5.916  -1.036  -1.033  -0.974  -0.974
 -0.957  -0.952  -0.937  -0.930  -0.916  -0.907  -0.905  -0.895
 -0.841  -0.833  -0.831  -0.825  -0.808  -0.806  -0.805  -0.803
 -0.802  -0.799  -0.795  -0.790  -0.781  -0.777  -0.768  -0.763
 -0.748  -0.745  -0.744  -0.737  -0.722  -0.713  -0.708  -0.708
 -0.695  -0.690  -0.675  -0.672  -0.657  -0.652  -0.646  -0.643
 -0.640  -0.630  -0.628  -0.621  -0.611  -0.606  -0.602  -0.598
 -0.595  -0.589  -0.587  -0.583  -0.575  -0.573  -0.565  -0.560
 -0.547  -0.546  -0.539  -0.539  -0.523  -0.522  -0.515  -0.510
 -0.509  -0.503  -0.499  -0.497  -0.487  -0.479  -0.478  -0.475
 -0.473  -0.470  -0.469  -0.466  -0.465  -0.464  -0.459  -0.448
 -0.448  -0.443  -0.441  -0.438  -0.434  -0.433  -0.431  -0.429
 -0.426  -0.423  -0.421  -0.420  -0.417  -0.417  -0.415  -0.412
 -0.411  -0.406  -0.405  -0.403  -0.402  -0.401  -0.398  -0.395
 -0.392  -0.390  -0.390  -0.389  -0.387  -0.386  -0.382  -0.382
 -0.380  -0.375  -0.371  -0.370  -0.366  -0.363  -0.358  -0.357
 -0.355  -0.352  -0.349  -0.347  -0.341  -0.339  -0.339  -0.333
 -0.332  -0.331  -0.330  -0.329  -0.324  -0.320  -0.319  -0.317
 -0.315  -0.313  -0.308  -0.304  -0.302  -0.301  -0.299  -0.296
 -0.294  -0.293  -0.290  -0.285  -0.284  -0.281  -0.280  -0.277
 -0.277  -0.273  -0.266  -0.264  -0.259  -0.253  -0.250  -0.247
 -0.246  -0.237  -0.236  -0.229  -0.201  -0.189

          Ground-State Mulliken Net Atomic Charges

     Atom                 Charge (a.u.)
  ----------------------------------------
      1 C                     0.249944
      2 C                    -0.110652
      3 N                    -0.498750
      4 C                    -0.082189
      5 C                     0.085309
      6 C                     0.035332
      7 C                     0.022500
      8 C                     0.059979
      9 C                     0.242057
     10 N                    -0.507361
     11 N                    -0.584442
     12 C                     0.260311
     13 C                     0.294839
     14 S                     0.626393
     15 N                    -0.582896
     16 C                    -0.233896
     17 S                     0.272403
     18 C                    -0.114327
     19 C                    -0.228373
     20 S                     0.294726
     21 C                     0.157244
     22 C                     0.052863
     23 C                    -0.321715
     24 C                    -0.039141
     25 N                    -0.406705
     26 S                     0.266214
     27 C                     0.112602
     28 C                    -0.306211
     29 C                    -0.215580
     30 H                     0.089645
     31 H                     0.104772
     32 H                     0.121990
     33 H                     0.115990
     34 H                     0.117553
     35 H                     0.123044
     36 H                     0.117683
     37 H                     0.126386
     38 H                     0.121856
     39 C                    -0.189993
     40 H                     0.124745
     41 H                     0.105682
     42 H                     0.097088
     43 C                    -0.180652
     44 H                     0.091508
     45 C                    -0.170003
     46 H                     0.083502
     47 H                     0.090792
     48 H                     0.094503
     49 C                    -0.188137
     50 H                     0.097869
     51 C                    -0.314271
     52 H                     0.103028
     53 H                     0.099164
     54 H                     0.094570
     55 H                     0.099101
     56 C                     0.290832
     57 C                    -0.135344
     58 N                    -0.486994
     59 C                    -0.092516
     60 C                     0.090544
     61 C                     0.059682
     62 C                     0.064483
     63 C                     0.029140
     64 C                     0.211281
     65 N                    -0.558838
     66 N                    -0.547216
     67 C                     0.248734
     68 C                     0.317665
     69 S                     0.625223
     70 N                    -0.591468
     71 C                    -0.244195
     72 S                     0.350629
     73 C                    -0.102153
     74 C                    -0.213282
     75 S                     0.290670
     76 C                     0.160495
     77 C                     0.090946
     78 C                    -0.335302
     79 C                    -0.060045
     80 N                    -0.431087
     81 S                     0.243772
     82 C                     0.101598
     83 C                    -0.297866
     84 C                    -0.221646
     85 H                     0.090756
     86 H                     0.099178
     87 H                     0.113595
     88 H                     0.113041
     89 H                     0.128245
     90 H                     0.109388
     91 H                     0.123844
     92 H                     0.144149
     93 H                     0.120179
     94 C                    -0.182262
     95 H                     0.082269
     96 H                     0.114189
     97 H                     0.089432
     98 C                    -0.168244
     99 H                     0.095523
    100 C                    -0.170880
    101 H                     0.096869
    102 H                     0.093614
    103 H                     0.091361
    104 C                    -0.190959
    105 H                     0.084140
    106 C                    -0.316884
    107 H                     0.089331
    108 H                     0.111982
    109 H                     0.100745
    110 H                     0.101765
  ----------------------------------------
  Sum of atomic charges =     0.000000

                    Cartesian Multipole Moments
 -----------------------------------------------------------------
    Charge (ESU x 10^10)
                 0.0000
    Dipole Moment (Debye)
         X      -2.3216      Y       0.2340      Z      -1.8372
       Tot       2.9698
    Quadrupole Moments (Debye-Ang)
        XX    -405.7940     XY       1.9556     YY    -413.2895
        XZ      38.0030     YZ      -1.1133     ZZ    -448.9178

 Total job time:  93.01s(wall), 1094.47s(cpu)
        *  Thank you very much for using Q-Chem.  Have a nice day.  *
