 Q-Chem 4.4, Q-Chem, Inc., Pleasanton, CA (2016)
 Q-Chem 4.4.2 for Intel X86 Linux

User input:
--------------------------------------------------------------
$comment
SP
$end

$rem
MEM_STATIC 5000
MEM_TOTAL 20000
JOBTYPE SP
EXCHANGE B3LYP
BASIS 6-31g(d,p)
$end

$molecule
0 1
C          14.923000     18.372000     15.135000
C          13.802000     19.062000     14.825000
N          15.753000     17.959000     14.178000
C          13.388000     19.313000     13.499000
C          15.400000     18.074000     12.940000
C          14.203000     18.764000     12.500000
C          13.809000     18.917000     11.091000
C          12.518000     18.559000     10.659000
C          14.677000     19.365000     10.128000
N          12.053000     18.717000      9.386000
N          15.815000     20.008000     10.334000
C          14.270000     19.467000      8.752000
C          12.929000     19.072000      8.387000
S          16.312000     20.628000      8.976000
N          15.115000     20.134000      7.952000
C          12.473000     18.890000      7.023000
S          13.043000     19.682000      5.613000
C          11.451000     18.083000      6.610000
C          11.926000     18.867000      4.523000
S          10.509000     16.970000      7.616000
C          11.177000     18.013000      5.278000
C          12.055000     18.851000      3.153000
C           9.705000     16.433000      6.109000
C          10.268000     16.949000      4.969000
N          11.189000     18.179000      2.391000
S          13.493000     19.288000      2.344000
C          11.619000     18.148000      1.064000
C          12.779000     18.915000      0.819000
C          15.299000     18.207000     16.580000
H          13.144000     19.419000     15.612000
H          12.417000     19.692000     13.195000
H          16.132000     17.831000     12.172000
H          11.737000     18.239000     11.347000
H           9.039000     15.581000      6.156000
H           9.973000     16.682000      3.961000
H          11.041000     17.810000      0.214000
H          13.215000     19.242000     -0.116000
H          16.177000     18.837000     16.765000
C          15.601000     16.738000     16.986000
H          14.450000     18.485000     17.218000
H          16.362000     16.356000     16.295000
H          14.688000     16.135000     16.907000
C          16.092000     16.701000     18.495000
H          16.948000     17.361000     18.681000
C          16.294000     15.233000     18.971000
H          15.266000     17.053000     19.126000
H          16.743000     14.622000     18.178000
H          15.269000     14.894000     19.170000
C          17.044000     15.009000     20.326000
H          18.088000     15.301000     20.160000
C          17.053000     13.563000     20.776000
H          16.577000     15.499000     21.189000
H          17.630000     13.035000     20.007000
H          16.062000     13.106000     20.892000
H          17.651000     13.471000     21.690000
C          15.126000      8.824000      3.843000
C          16.233000      9.216000      4.643000
N          14.474000      9.704000      3.085000
C          16.616000     10.586000      4.683000
C          14.868000     10.993000      3.127000
C          15.919000     11.501000      3.932000
C          16.368000     12.964000      3.963000
C          17.724000     13.331000      4.237000
C          15.513000     14.048000      3.672000
N          18.257000     14.545000      4.234000
N          14.204000     13.903000      3.384000
C          16.022000     15.321000      3.662000
C          17.447000     15.582000      3.901000
S          13.743000     15.473000      3.059000
N          15.187000     16.297000      3.275000
C          18.202000     16.808000      3.769000
S          19.978000     16.779000      3.459000
C          17.815000     18.038000      4.240000
C          19.943000     18.557000      3.444000
S          16.387000     18.576000      4.950000
C          18.785000     19.014000      4.057000
C          21.095000     19.360000      3.101000
C          17.010000     20.198000      5.073000
C          18.261000     20.262000      4.449000
N          22.084000     18.847000      2.375000
S          21.451000     20.992000      3.691000
C          23.086000     19.748000      2.139000
C          22.931000     20.919000      2.845000
C          14.765000      7.380000      3.802000
H          16.787000      8.409000      5.114000
H          17.473000     10.753000      5.329000
H          14.292000     11.642000      2.468000
H          18.452000     12.553000      4.463000
H          16.380000     20.887000      5.621000
H          18.753000     21.221000      4.336000
H          23.940000     19.463000      1.538000
H          23.579000     21.786000      2.861000
H          14.626000      6.993000      2.785000
C          13.526000      6.961000      4.583000
H          15.586000      6.770000      4.197000
H          12.668000      7.608000      4.363000
H          13.692000      7.095000      5.659000
C          13.143000      5.444000      4.297000
H          12.786000      5.295000      3.271000
C          12.098000      4.977000      5.291000
H          14.023000      4.802000      4.428000
H          12.495000      5.138000      6.301000
H          12.009000      3.891000      5.161000
C          10.738000      5.649000      5.157000
H          10.672000      6.700000      5.462000
C           9.656000      4.919000      5.945000
H          10.346000      5.710000      4.134000
H           8.948000      5.689000      6.275000
H          10.173000      4.407000      6.766000
H           9.157000      4.136000      5.361000
$end

--------------------------------------------------------------

             Standard Nuclear Orientation (Angstroms)
    I     Atom           X                Y                Z
 ----------------------------------------------------------------
    1      C      -8.5238487471    -0.8838400029    -0.1020005370
    2      C      -8.4441865955    -0.6195974889    -1.4258852885
    3      N      -7.4980214236    -0.6200602345     0.7063413067
    4      C      -7.2723126121    -0.1428881611    -2.0520901941
    5      C      -6.3644667001    -0.2655542977     0.1965793723
    6      C      -6.1610606053     0.0104422227    -1.2123070252
    7      C      -4.8784809260     0.4360807713    -1.7934672374
    8      C      -4.3295603735    -0.2354057768    -2.9021876903
    9      C      -4.1363885941     1.4629842535    -1.2678578679
   10      N      -3.1755541511     0.1242805697    -3.5351279488
   11      N      -4.5654063416     2.3939891895    -0.4311365394
   12      C      -2.8675687887     1.8289737318    -1.8384514211
   13      C      -2.3685000146     1.0849886987    -2.9720067260
   14      S      -3.5026226517     3.5517787008    -0.3563884570
   15      N      -2.3520641857     2.9854596611    -1.3960609831
   16      C      -1.0149096881     1.1820488577    -3.4818386136
   17      S       0.0379327961     2.5335246570    -3.4090384244
   18      C      -0.3378843762     0.2188757483    -4.1748294421
   19      C       1.3569482121     1.7405195210    -4.2642314942
   20      S      -0.8962110446    -1.4267471937    -4.5188722649
   21      C       0.9449102940     0.4730770274    -4.5543285117
   22      C       2.6505766698     2.2088183274    -4.2961476560
   23      C       0.7170432485    -1.7264588292    -5.2354038564
   24      C       1.6082393232    -0.7022355761    -5.0365036699
   25      N       3.6084136927     1.5329825331    -4.9348793811
   26      S       3.2416098031     3.3971938425    -3.2229573325
   27      C       4.8614523428     2.0906774046    -4.6786361927
   28      C       4.8152908353     3.2800489393    -3.9189135672
   29      C      -9.8360079640    -1.3381835750     0.4710929177
   30      H      -9.2940283757    -0.8119994985    -2.0743699957
   31      H      -7.0965565778    -0.0924175208    -3.1223520924
   32      H      -5.5720101657     0.0482138962     0.8735277909
   33      H      -4.8570240057    -1.0309873834    -3.4261504981
   34      H       0.9698161074    -2.7366921935    -5.5307061278
   35      H       2.6522678525    -0.7292250278    -5.3257336812
   36      H       5.7852755931     1.8432055241    -5.1847352646
   37      H       5.5789305275     4.0267408987    -3.7441121419
   38      H     -10.2364655800    -0.5120012566     1.0703136404
   39      C      -9.7309322679    -2.6237793155     1.3372359141
   40      H     -10.5157610101    -1.6256461362    -0.3415755708
   41      H      -8.9648836289    -2.4436732346     2.1009487412
   42      H      -9.4387797388    -3.4734961794     0.7079131424
   43      C     -11.1482559009    -2.9430247414     1.9766161434
   44      H     -11.5593421212    -2.0996212688     2.5446044371
   45      C     -11.1077513250    -4.2883807397     2.7581406902
   46      H     -11.8466226305    -3.1552489156     1.1571127506
   47      H     -10.1635248990    -4.3948611784     3.3066562985
   48      H     -11.1640874871    -5.0400890638     1.9600756350
   49      C     -12.3217078618    -4.6213700271     3.6877258995
   50      H     -12.2810169700    -3.9135125596     4.5244086693
   51      C     -12.2608098377    -6.0138057793     4.2801034029
   52      H     -13.2909860385    -4.6488432060     3.1751802523
   53      H     -11.3692003052    -6.0065725837     4.9188945443
   54      H     -12.1999711937    -6.8285329686     3.5473658875
   55      H     -13.1010544868    -6.1516912142     4.9703501244
   56      C       5.3110389212    -5.5203107544     2.3091815747
   57      C       4.4072108125    -5.0064049359     3.2777416190
   58      N       5.7409993960    -4.7691877926     1.2967506949
   59      C       3.9035862130    -3.6835092287     3.1311189379
   60      C       5.2624676823    -3.5129215898     1.1903381646
   61      C       4.3159806607    -2.9215855510     2.0650804166
   62      C       3.7885235414    -1.4897767914     1.9440694128
   63      C       3.3843061175    -0.7355654758     3.0913595093
   64      C       3.7136371898    -0.7873967453     0.7226700902
   65      N       2.9709503610     0.5234294099     3.1356640945
   66      N       4.0557939777    -1.3265792916    -0.4646213291
   67      C       3.2874970401     0.5157204544     0.7223005140
   68      C       2.9506221423     1.2156517938     1.9682854350
   69      S       3.8432532956    -0.0402374035    -1.5053888370
   70      N       3.3389151343     1.1624622617    -0.4518592768
   71      C       2.6509783494     2.6113111642     2.1982278610
   72      S       2.9225138695     3.3683233544     3.8120178117
   73      C       1.8014174098     3.3800720394     1.4420777921
   74      C       2.3409767403     4.9013075713     3.1231724311
   75      S       0.9764950712     3.0722404454     0.0076891262
   76      C       1.6299963847     4.6578917034     1.9566229684
   77      C       2.3751884157     6.1497485942     3.8510368234
   78      C       0.3061002976     4.6799221869    -0.0008117837
   79      C       0.8511410924     5.4144119361     1.0583994041
   80      N       3.2142605723     6.3151601773     4.8693505885
   81      S       1.2660936377     7.5158071479     3.6459690262
   82      C       3.1173699334     7.5570063063     5.4349753723
   83      C       2.0622955719     8.2898153581     4.9415070498
   84      C       5.8400477449    -6.8985807834     2.5032418532
   85      H       4.2247716877    -5.6413907687     4.1400147532
   86      H       3.2245213165    -3.4124177222     3.9342591881
   87      H       5.6753513096    -2.9640709828     0.3444373894
   88      H       3.4199587471    -1.2010226802     4.0754440996
   89      H      -0.4304320295     4.8616369134    -0.7730972810
   90      H       0.6276110594     6.4712181294     1.1462002809
   91      H       3.7645337453     7.8286457641     6.2590706371
   92      H       1.7454562522     9.2862327699     5.2218892655
   93      H       6.9301444342    -6.9666757942     2.4011082279
   94      C       5.2659696445    -7.9858338199     1.6038208342
   95      H       5.6585922048    -7.2358772314     3.5306030327
   96      H       5.2708067931    -7.6859526073     0.5487280135
   97      H       4.2046844198    -8.1453408533     1.8307991990
   98      C       6.0506082881    -9.3585408808     1.7764230471
   99      H       7.0730737747    -9.3014172859     1.3844699587
  100      C       5.2886964790   -10.4799042714     1.0980540166
  101      H       6.1275529032    -9.6175151445     2.8397841603
  102      H       4.2765977771   -10.5061595513     1.5206612549
  103      H       5.7768569369   -11.4148487695     1.4010311657
  104      C       5.2126766770   -10.3789156305    -0.4195632883
  105      H       4.5740493005    -9.5892847542    -0.8326252126
  106      C       4.7336315260   -11.6775590795    -1.0587885503
  107      H       6.1624867737   -10.1541300404    -0.9208079578
  108      H       4.1766039703   -11.3868454500    -1.9578268630
  109      H       4.1232131915   -12.1814861613    -0.2992354231
  110      H       5.5547891779   -12.3644274866    -1.2976565099
 ----------------------------------------------------------------

   10   -5663.5180519137      3.39E-06 Convergence criterion met
 Total energy in the final basis set = -5663.5180519137

                    Orbital Energies (a.u.)
 --------------------------------------------------------------

 Alpha MOs
 -- Occupied --
-88.993 -88.980 -88.926 -88.926 -88.923 -88.922 -88.907 -88.905
-14.393 -14.390 -14.384 -14.384 -14.357 -14.345 -14.343 -14.340
-14.329 -14.324 -10.271 -10.267 -10.263 -10.262 -10.258 -10.258
-10.255 -10.250 -10.246 -10.241 -10.241 -10.237 -10.236 -10.234
-10.233 -10.231 -10.231 -10.230 -10.229 -10.227 -10.227 -10.225
-10.224 -10.223 -10.222 -10.222 -10.222 -10.221 -10.215 -10.215
-10.213 -10.208 -10.207 -10.207 -10.206 -10.196 -10.195 -10.195
-10.186 -10.183 -10.181 -10.178 -10.178 -10.177 -10.177 -10.177
-10.174 -10.170 -10.169 -10.166  -8.049  -8.035  -7.988  -7.986
 -7.985  -7.980  -7.969  -7.965  -6.014  -6.009  -6.007  -6.000
 -5.995  -5.993  -5.952  -5.951  -5.949  -5.948  -5.947  -5.945
 -5.945  -5.944  -5.943  -5.942  -5.941  -5.936  -5.933  -5.929
 -5.929  -5.926  -5.925  -5.921  -1.054  -1.030  -0.970  -0.966
 -0.958  -0.955  -0.955  -0.936  -0.925  -0.920  -0.918  -0.904
 -0.849  -0.848  -0.844  -0.828  -0.814  -0.808  -0.807  -0.807
 -0.806  -0.804  -0.803  -0.796  -0.787  -0.783  -0.772  -0.759
 -0.752  -0.748  -0.741  -0.741  -0.728  -0.727  -0.713  -0.711
 -0.698  -0.693  -0.680  -0.669  -0.657  -0.649  -0.649  -0.641
 -0.640  -0.632  -0.627  -0.623  -0.612  -0.605  -0.601  -0.599
 -0.595  -0.594  -0.586  -0.583  -0.579  -0.579  -0.565  -0.563
 -0.556  -0.547  -0.544  -0.539  -0.532  -0.520  -0.513  -0.513
 -0.511  -0.504  -0.501  -0.498  -0.497  -0.484  -0.480  -0.479
 -0.475  -0.474  -0.472  -0.467  -0.463  -0.461  -0.454  -0.452
 -0.449  -0.445  -0.443  -0.440  -0.439  -0.436  -0.433  -0.432
 -0.431  -0.428  -0.427  -0.424  -0.420  -0.418  -0.417  -0.416
 -0.412  -0.411  -0.410  -0.403  -0.402  -0.401  -0.400  -0.397
 -0.396  -0.395  -0.394  -0.390  -0.388  -0.386  -0.385  -0.380
 -0.376  -0.374  -0.373  -0.369  -0.366  -0.360  -0.359  -0.358
 -0.353  -0.352  -0.351  -0.348  -0.347  -0.344  -0.342  -0.341
 -0.339  -0.338  -0.336  -0.330  -0.329  -0.325  -0.321  -0.318
 -0.317  -0.317  -0.311  -0.310  -0.306  -0.304  -0.304  -0.301
 -0.300  -0.295  -0.293  -0.291  -0.285  -0.284  -0.281  -0.278
 -0.278  -0.274  -0.269  -0.259  -0.254  -0.251  -0.250  -0.248
 -0.246  -0.244  -0.238  -0.229  -0.199  -0.189

          Ground-State Mulliken Net Atomic Charges

     Atom                 Charge (a.u.)
  ----------------------------------------
      1 C                     0.299136
      2 C                    -0.131344
      3 N                    -0.469977
      4 C                    -0.069443
      5 C                     0.096608
      6 C                     0.018567
      7 C                     0.034359
      8 C                     0.050510
      9 C                     0.210577
     10 N                    -0.502955
     11 N                    -0.513684
     12 C                     0.193666
     13 C                     0.285341
     14 S                     0.607563
     15 N                    -0.572972
     16 C                    -0.204829
     17 S                     0.306684
     18 C                    -0.125235
     19 C                    -0.241079
     20 S                     0.268312
     21 C                     0.191012
     22 C                     0.051169
     23 C                    -0.301258
     24 C                    -0.057472
     25 N                    -0.452986
     26 S                     0.300383
     27 C                     0.098434
     28 C                    -0.305362
     29 C                    -0.225093
     30 H                     0.083881
     31 H                     0.102560
     32 H                     0.103790
     33 H                     0.117178
     34 H                     0.126236
     35 H                     0.131341
     36 H                     0.118744
     37 H                     0.141390
     38 H                     0.120228
     39 C                    -0.185292
     40 H                     0.096202
     41 H                     0.120850
     42 H                     0.094053
     43 C                    -0.181582
     44 H                     0.091842
     45 C                    -0.171700
     46 H                     0.090514
     47 H                     0.092348
     48 H                     0.088967
     49 C                    -0.180419
     50 H                     0.094215
     51 C                    -0.312686
     52 H                     0.091737
     53 H                     0.098171
     54 H                     0.101425
     55 H                     0.098658
     56 C                     0.291297
     57 C                    -0.130826
     58 N                    -0.489832
     59 C                    -0.088181
     60 C                     0.076826
     61 C                     0.054024
     62 C                     0.032594
     63 C                     0.060915
     64 C                     0.243881
     65 N                    -0.505245
     66 N                    -0.562603
     67 C                     0.216314
     68 C                     0.260246
     69 S                     0.599676
     70 N                    -0.558854
     71 C                    -0.211002
     72 S                     0.352915
     73 C                    -0.131579
     74 C                    -0.203461
     75 S                     0.313800
     76 C                     0.154038
     77 C                     0.045801
     78 C                    -0.313348
     79 C                    -0.112264
     80 N                    -0.429753
     81 S                     0.272274
     82 C                     0.123918
     83 C                    -0.311237
     84 C                    -0.227927
     85 H                     0.087159
     86 H                     0.103102
     87 H                     0.119237
     88 H                     0.101036
     89 H                     0.156285
     90 H                     0.108560
     91 H                     0.117675
     92 H                     0.134011
     93 H                     0.114013
     94 C                    -0.174400
     95 H                     0.091935
     96 H                     0.116314
     97 H                     0.088554
     98 C                    -0.181838
     99 H                     0.096928
    100 C                    -0.179056
    101 H                     0.084353
    102 H                     0.093733
    103 H                     0.087827
    104 C                    -0.170807
    105 H                     0.098273
    106 C                    -0.320777
    107 H                     0.091804
    108 H                     0.098635
    109 H                     0.100581
    110 H                     0.103175
  ----------------------------------------
  Sum of atomic charges =     0.000000

                    Cartesian Multipole Moments
 -----------------------------------------------------------------
    Charge (ESU x 10^10)
                 0.0000
    Dipole Moment (Debye)
         X      -2.1490      Y       2.2174      Z      -0.4198
       Tot       3.1163
    Quadrupole Moments (Debye-Ang)
        XX    -429.3034     XY       7.6883     YY    -405.1134
        XZ       3.0644     YZ       0.9559     ZZ    -446.4418

 Total job time:  90.73s(wall), 1064.10s(cpu)
        *  Thank you very much for using Q-Chem.  Have a nice day.  *
