 Q-Chem 4.4, Q-Chem, Inc., Pleasanton, CA (2016)
 Q-Chem 4.4.2 for Intel X86 Linux

User input:
--------------------------------------------------------------
$comment
SP
$end

$rem
MEM_STATIC 5000
MEM_TOTAL 20000
JOBTYPE SP
EXCHANGE B3LYP
BASIS 6-31g(d,p)
$end

$molecule
0 1
C          10.134000     -2.530000      4.728000
C          11.481000     -3.071000      4.712000
N           9.863000     -1.219000      4.570000
C          12.542000     -2.194000      4.525000
C          10.898000     -0.400000      4.377000
C          12.226000     -0.835000      4.305000
C          13.285000      0.194000      4.075000
C          14.482000      0.177000      4.798000
C          13.124000      1.220000      3.168000
N          15.408000      1.171000      4.684000
N          12.088000      1.409000      2.328000
C          14.125000      2.123000      2.988000
C          15.239000      2.160000      3.786000
S          12.374000      2.719000      1.570000
N          13.867000      3.106000      2.028000
C          16.192000      3.249000      3.889000
S          16.554000      4.475000      2.648000
C          17.092000      3.384000      4.943000
C          17.803000      5.262000      3.737000
S          17.023000      2.615000      6.485000
C          17.935000      4.510000      4.882000
C          18.450000      6.486000      3.428000
C          18.395000      3.739000      7.019000
C          18.696000      4.663000      6.093000
N          18.163000      7.065000      2.245000
S          19.478000      7.485000      4.468000
C          18.643000      8.344000      2.205000
C          19.318000      8.799000      3.364000
C           8.981000     -3.485000      4.908000
H          11.751000     -4.120000      4.784000
H          13.579000     -2.516000      4.550000
H          10.498000      0.606000      4.259000
H          14.687000     -0.637000      5.492000
H          18.776000      3.542000      8.012000
H          19.433000      5.433000      6.292000
H          18.557000      8.954000      1.316000
H          19.857000      9.724000      3.516000
H           8.144000     -3.254000      4.237000
C           8.392000     -3.550000      6.367000
H           9.464000     -4.433000      4.639000
H           7.889000     -2.598000      6.580000
H           9.170000     -3.634000      7.136000
C           7.179000     -4.547000      6.577000
H           6.762000     -4.357000      7.574000
C           7.388000     -6.099000      6.388000
H           6.359000     -4.261000      5.906000
H           8.433000     -6.381000      6.208000
H           6.925000     -6.372000      5.432000
C           6.695000     -6.946000      7.511000
H           5.712000     -6.476000      7.633000
C           7.442000     -7.020000      8.874000
H           6.571000     -7.953000      7.095000
H           6.751000     -7.520000      9.564000
H           7.542000     -6.010000      9.289000
H           8.432000     -7.490000      8.841000
C          15.126000      8.824000      3.843000
C          16.233000      9.216000      4.643000
N          14.474000      9.704000      3.085000
C          16.616000     10.586000      4.683000
C          14.868000     10.993000      3.127000
C          15.919000     11.501000      3.932000
C          16.368000     12.964000      3.963000
C          17.724000     13.331000      4.237000
C          15.513000     14.048000      3.672000
N          18.257000     14.545000      4.234000
N          14.204000     13.903000      3.384000
C          16.022000     15.321000      3.662000
C          17.447000     15.582000      3.901000
S          13.743000     15.473000      3.059000
N          15.187000     16.297000      3.275000
C          18.202000     16.808000      3.769000
S          19.978000     16.779000      3.459000
C          17.815000     18.038000      4.240000
C          19.943000     18.557000      3.444000
S          16.387000     18.576000      4.950000
C          18.785000     19.014000      4.057000
C          21.095000     19.360000      3.101000
C          17.010000     20.198000      5.073000
C          18.261000     20.262000      4.449000
N          22.084000     18.847000      2.375000
S          21.451000     20.992000      3.691000
C          23.086000     19.748000      2.139000
C          22.931000     20.919000      2.845000
C          14.765000      7.380000      3.802000
H          16.787000      8.409000      5.114000
H          17.473000     10.753000      5.329000
H          14.292000     11.642000      2.468000
H          18.452000     12.553000      4.463000
H          16.380000     20.887000      5.621000
H          18.753000     21.221000      4.336000
H          23.940000     19.463000      1.538000
H          23.579000     21.786000      2.861000
H          14.626000      6.993000      2.785000
C          13.526000      6.961000      4.583000
H          15.586000      6.770000      4.197000
H          12.668000      7.608000      4.363000
H          13.692000      7.095000      5.659000
C          13.143000      5.444000      4.297000
H          12.786000      5.295000      3.271000
C          12.098000      4.977000      5.291000
H          14.023000      4.802000      4.428000
H          12.495000      5.138000      6.301000
H          12.009000      3.891000      5.161000
C          10.738000      5.649000      5.157000
H          10.672000      6.700000      5.462000
C           9.656000      4.919000      5.945000
H          10.346000      5.710000      4.134000
H           8.948000      5.689000      6.275000
H          10.173000      4.407000      6.766000
H           9.157000      4.136000      5.361000
$end

--------------------------------------------------------------

             Standard Nuclear Orientation (Angstroms)
    I     Atom           X                Y                Z
 ----------------------------------------------------------------
    1      C      11.5880701619    -0.8275899574    -0.4706016442
    2      C      11.5727019254     0.6189799103    -0.3499971875
    3      N      10.4708546282    -1.5686132636    -0.6114558634
    4      C      10.3462171326     1.2705867705    -0.3810222254
    5      C       9.3072416287    -0.9178687903    -0.6535440791
    6      C       9.1970640081     0.4754768276    -0.5868966417
    7      C       7.8279263939     1.0704551769    -0.6553433882
    8      C       7.4444086535     2.1080079448     0.2003583102
    9      C       6.8730748466     0.6102373139    -1.5372186861
   10      N       6.1671811089     2.5837140544     0.2303832447
   11      N       7.0277085807    -0.3352513932    -2.4841909735
   12      C       5.6460121209     1.1960886631    -1.5673062890
   13      C       5.2501697469     2.1296307872    -0.6448221874
   14      S       5.6526622473    -0.5090651246    -3.1561257677
   15      N       4.7635671564     0.6684368643    -2.5145799895
   16      C       3.8920445550     2.5731848158    -0.3928404681
   17      S       2.5278245865     2.5465027120    -1.5384376674
   18      C       3.5072983082     3.2486782759     0.7625035979
   19      C       1.4121955027     3.2867504719    -0.2843658986
   20      S       4.3623683979     3.3394254923     2.2573300374
   21      C       2.1441572501     3.5922498679     0.8402918803
   22      C       0.0140104351     3.4356543157    -0.4719083253
   23      C       2.8461314741     4.1137823961     2.9869278557
   24      C       1.8079633448     4.1186538519     2.1360246860
   25      N      -0.5025124636     3.0583957628    -1.6584912678
   26      S      -1.2166814988     3.8956987331     0.7155854633
   27      C      -1.8668521009     3.0077950289    -1.5963791126
   28      C      -2.4526513156     3.3433216175    -0.3513119705
   29      C      12.9208957399    -1.5327832586    -0.4600003850
   30      H      12.4421714023     1.2657437844    -0.2851564591
   31      H      10.2502227857     2.3442221497    -0.2477174701
   32      H       8.5232833050    -1.6629939473    -0.7806576001
   33      H       8.1705609642     2.5464015314     0.8835646370
   34      H       2.9600713927     4.4471969619     4.0096064084
   35      H       0.8334711045     4.4784940412     2.4467495029
   36      H      -2.4655161589     2.7756181297    -2.4667308996
   37      H      -3.4982804552     3.4659212761    -0.1045752158
   38      H      12.9742688996    -2.3276563021    -1.2146520599
   39      C      13.3186854084    -2.1837012687     0.9176411227
   40      H      13.5896529424    -0.6979553606    -0.7053168842
   41      H      12.6494882711    -3.0332182857     1.1051991919
   42      H      13.1599511332    -1.5089298878     1.7680457402
   43      C      14.7153852937    -2.9304870978     0.9495528134
   44      H      14.7767286875    -3.4792712536     1.8977463266
   45      C      16.0512173119    -2.1208631206     0.7300810961
   46      H      14.7116084514    -3.7310366557     0.1988577084
   47      H      15.8993390189    -1.0362968453     0.6622726989
   48      H      16.4044546790    -2.3511592239    -0.2823521449
   49      C      17.1829746415    -2.5334834829     1.7339021874
   50      H      17.1335016154    -3.6284899670     1.7581141590
   51      C      17.0731293867    -1.9462570139     3.1706878687
   52      H      18.1256456672    -2.2190682651     1.2702262141
   53      H      17.8506241363    -2.4509943560     3.7574784020
   54      H      16.1367497559    -2.2837588302     3.6306995109
   55      H      17.1268764951    -0.8531042875     3.2356291125
   56      C      -0.8429887643    -0.5569131537    -0.3605423755
   57      C      -1.5631293730     0.2327102072     0.5759433167
   58      N      -1.4648308796    -1.4249915073    -1.1566707293
   59      C      -2.9681698593     0.0504781041     0.7095161151
   60      C      -2.7992635205    -1.5659874429    -1.0227652662
   61      C      -3.6045916247    -0.8730748613    -0.0836120312
   62      C      -5.1211472127    -1.0298887023     0.0520329754
   63      C      -5.9540186486     0.0467660528     0.4943458846
   64      C      -5.8173054868    -2.2065440362    -0.2966902424
   65      N      -7.2757493595     0.0664918550     0.5969754153
   66      N      -5.2079763495    -3.3246433969    -0.7394337596
   67      C      -7.1848142756    -2.2310071480    -0.2016572551
   68      C      -7.9489989295    -1.0467927667     0.2100770210
   69      S      -6.5045598792    -4.3246349822    -1.0587047729
   70      N      -7.7965501353    -3.3386128421    -0.6472566989
   71      C      -9.3763304821    -0.8160350961     0.2108094822
   72      S     -10.0496705136     0.8534304981     0.1077811772
   73      C     -10.3257270867    -1.6906447531     0.6779433335
   74      C     -11.6758749669     0.1350010391     0.1530822634
   75      S     -10.2226666489    -3.2749035386     1.2367193591
   76      C     -11.6084924959    -1.1611916083     0.6439246245
   77      C     -12.8809649495     0.9132262022    -0.0249225944
   78      C     -11.9447818950    -3.3421326911     1.4895855692
   79      C     -12.5284955263    -2.1611103807     1.0174227806
   80      N     -12.8412380363     2.0865348806    -0.6495300853
   81      S     -14.4742765834     0.5537394519     0.6609252850
   82      C     -14.0712039526     2.6792846668    -0.7351603119
   83      C     -15.0362074941     2.0184956247    -0.0100203208
   84      C       0.6217891895    -0.3257813060    -0.4952331883
   85      H      -0.9936311254     1.0093289446     1.0784779748
   86      H      -3.3978442744     0.7120827314     1.4560502497
   87      H      -3.2294543026    -2.2841956650    -1.7201681919
   88      H      -5.4965614959     0.9945895264     0.7748946617
   89      H     -12.2971872397    -4.2375935942     1.9854537412
   90      H     -13.6082257527    -2.0701404451     0.9969018385
   91      H     -14.1804480911     3.6289234520    -1.2430913070
   92      H     -16.0804763534     2.2761795742     0.1122520456
   93      H       0.9520122815    -0.2090515644    -1.5348032326
   94      C       1.5402932042    -1.3730827823     0.1213322932
   95      H       0.9022224996     0.6266707268    -0.0300898946
   96      H       1.2534893614    -2.3900654360    -0.1730532327
   97      H       1.4375233463    -1.3726693461     1.2134523348
   98      C       3.0616110653    -1.1111172060    -0.2617342834
   99      H       3.2547898832    -1.2856145130    -1.3268909077
  100      C       3.9671187935    -1.9816707595     0.5869955114
  101      H       3.3284969380    -0.0676081916    -0.0529619964
  102      H       3.7464122816    -1.7736284142     1.6413374948
  103      H       4.9915605285    -1.6311826401     0.4084060107
  104      C       3.8550298572    -3.4768888526     0.3207269916
  105      H       2.9354701832    -3.9723198504     0.6538037581
  106      C       5.0009036793    -4.2605071289     0.9511899808
  107      H       3.8682560534    -3.7650024225    -0.7379181985
  108      H       4.5865503150    -5.2385888694     1.2245604223
  109      H       5.3399371277    -3.6644839697     1.8075115994
  110      H       5.8667856705    -4.3611610094     0.2854098567
 ----------------------------------------------------------------

   10   -5663.5151789476      3.77E-06 Convergence criterion met
 Total energy in the final basis set = -5663.5151789476

                    Orbital Energies (a.u.)
 --------------------------------------------------------------

 Alpha MOs
 -- Occupied --
-88.992 -88.983 -88.931 -88.928 -88.925 -88.922 -88.911 -88.906
-14.393 -14.387 -14.385 -14.378 -14.349 -14.346 -14.345 -14.341
-14.329 -14.320 -10.270 -10.269 -10.260 -10.258 -10.256 -10.252
-10.251 -10.247 -10.243 -10.243 -10.242 -10.238 -10.237 -10.236
-10.235 -10.235 -10.233 -10.232 -10.230 -10.230 -10.229 -10.229
-10.226 -10.224 -10.223 -10.220 -10.219 -10.217 -10.216 -10.215
-10.214 -10.213 -10.211 -10.210 -10.208 -10.206 -10.204 -10.189
-10.188 -10.187 -10.183 -10.182 -10.177 -10.175 -10.171 -10.171
-10.169 -10.168 -10.167 -10.164  -8.049  -8.038  -7.992  -7.989
 -7.982  -7.979  -7.974  -7.966  -6.014  -6.008  -6.008  -6.003
 -5.998  -5.996  -5.956  -5.953  -5.952  -5.950  -5.949  -5.947
 -5.946  -5.944  -5.944  -5.940  -5.939  -5.938  -5.936  -5.934
 -5.930  -5.930  -5.927  -5.922  -1.061  -1.033  -0.968  -0.964
 -0.962  -0.958  -0.942  -0.932  -0.923  -0.912  -0.907  -0.906
 -0.852  -0.843  -0.837  -0.828  -0.814  -0.809  -0.808  -0.805
 -0.803  -0.801  -0.798  -0.796  -0.782  -0.778  -0.768  -0.760
 -0.750  -0.745  -0.741  -0.739  -0.730  -0.724  -0.709  -0.709
 -0.693  -0.691  -0.674  -0.671  -0.664  -0.651  -0.649  -0.642
 -0.641  -0.627  -0.625  -0.622  -0.615  -0.607  -0.602  -0.601
 -0.598  -0.595  -0.586  -0.586  -0.581  -0.577  -0.559  -0.559
 -0.549  -0.547  -0.541  -0.540  -0.530  -0.521  -0.516  -0.515
 -0.508  -0.503  -0.501  -0.498  -0.492  -0.485  -0.479  -0.477
 -0.475  -0.469  -0.467  -0.461  -0.458  -0.455  -0.453  -0.452
 -0.444  -0.440  -0.440  -0.439  -0.438  -0.438  -0.434  -0.434
 -0.430  -0.426  -0.425  -0.421  -0.418  -0.416  -0.413  -0.413
 -0.412  -0.410  -0.408  -0.402  -0.399  -0.397  -0.396  -0.395
 -0.394  -0.393  -0.391  -0.390  -0.389  -0.386  -0.383  -0.380
 -0.378  -0.374  -0.372  -0.371  -0.369  -0.361  -0.358  -0.356
 -0.352  -0.352  -0.348  -0.346  -0.345  -0.345  -0.343  -0.343
 -0.340  -0.339  -0.337  -0.333  -0.329  -0.322  -0.320  -0.318
 -0.315  -0.311  -0.308  -0.306  -0.304  -0.302  -0.300  -0.298
 -0.298  -0.297  -0.293  -0.293  -0.290  -0.285  -0.283  -0.280
 -0.276  -0.274  -0.269  -0.258  -0.256  -0.255  -0.250  -0.248
 -0.242  -0.241  -0.236  -0.228  -0.194  -0.191

          Ground-State Mulliken Net Atomic Charges

     Atom                 Charge (a.u.)
  ----------------------------------------
      1 C                     0.262597
      2 C                    -0.127946
      3 N                    -0.470577
      4 C                    -0.067586
      5 C                     0.090954
      6 C                     0.031605
      7 C                     0.011333
      8 C                     0.065939
      9 C                     0.250563
     10 N                    -0.551522
     11 N                    -0.514802
     12 C                     0.152665
     13 C                     0.318590
     14 S                     0.629262
     15 N                    -0.543318
     16 C                    -0.220345
     17 S                     0.346181
     18 C                    -0.116057
     19 C                    -0.248908
     20 S                     0.266208
     21 C                     0.155090
     22 C                     0.045995
     23 C                    -0.312577
     24 C                    -0.051547
     25 N                    -0.426606
     26 S                     0.267282
     27 C                     0.128902
     28 C                    -0.317899
     29 C                    -0.212376
     30 H                     0.096091
     31 H                     0.102711
     32 H                     0.114654
     33 H                     0.114260
     34 H                     0.131372
     35 H                     0.118888
     36 H                     0.120641
     37 H                     0.141848
     38 H                     0.114883
     39 C                    -0.183328
     40 H                     0.094811
     41 H                     0.112231
     42 H                     0.094072
     43 C                    -0.192423
     44 H                     0.094312
     45 C                    -0.174875
     46 H                     0.096220
     47 H                     0.085874
     48 H                     0.090194
     49 C                    -0.181807
     50 H                     0.095079
     51 C                    -0.314351
     52 H                     0.091435
     53 H                     0.103802
     54 H                     0.104051
     55 H                     0.105768
     56 C                     0.294422
     57 C                    -0.123376
     58 N                    -0.491017
     59 C                    -0.089429
     60 C                     0.075101
     61 C                     0.049287
     62 C                     0.035646
     63 C                     0.060170
     64 C                     0.245693
     65 N                    -0.505229
     66 N                    -0.556956
     67 C                     0.211563
     68 C                     0.259144
     69 S                     0.583474
     70 N                    -0.546164
     71 C                    -0.206871
     72 S                     0.353342
     73 C                    -0.121436
     74 C                    -0.202786
     75 S                     0.284422
     76 C                     0.158427
     77 C                     0.045614
     78 C                    -0.301857
     79 C                    -0.107254
     80 N                    -0.429671
     81 S                     0.274330
     82 C                     0.124152
     83 C                    -0.311014
     84 C                    -0.230943
     85 H                     0.092726
     86 H                     0.095987
     87 H                     0.116907
     88 H                     0.094029
     89 H                     0.145154
     90 H                     0.111083
     91 H                     0.118184
     92 H                     0.134837
     93 H                     0.126863
     94 C                    -0.180140
     95 H                     0.102892
     96 H                     0.111120
     97 H                     0.085180
     98 C                    -0.183548
     99 H                     0.094177
    100 C                    -0.182959
    101 H                     0.095782
    102 H                     0.096729
    103 H                     0.078313
    104 C                    -0.170305
    105 H                     0.099362
    106 C                    -0.321299
    107 H                     0.088097
    108 H                     0.098538
    109 H                     0.101439
    110 H                     0.102551
  ----------------------------------------
  Sum of atomic charges =     0.000000

                    Cartesian Multipole Moments
 -----------------------------------------------------------------
    Charge (ESU x 10^10)
                 0.0000
    Dipole Moment (Debye)
         X      -1.9129      Y       0.9443      Z       2.9995
       Tot       3.6807
    Quadrupole Moments (Debye-Ang)
        XX    -338.0994     XY      15.7656     YY    -435.4707
        XZ      -7.3065     YZ       5.2704     ZZ    -444.9538

 Total job time:  95.73s(wall), 1149.03s(cpu)
        *  Thank you very much for using Q-Chem.  Have a nice day.  *
