 Q-Chem 4.4, Q-Chem, Inc., Pleasanton, CA (2016)
 Q-Chem 4.4.2 for Intel X86 Linux

User input:
--------------------------------------------------------------
$comment
SP
$end

$rem
MEM_STATIC 5000
MEM_TOTAL 20000
JOBTYPE SP
EXCHANGE B3LYP
BASIS 6-31g(d,p)
$end

$molecule
0 1
C          10.942000     11.080000      8.477000
C          11.815000     10.405000      7.598000
N          10.163000     12.014000      7.990000
C          11.744000     10.673000      6.167000
C          10.071000     12.263000      6.677000
C          10.866000     11.656000      5.712000
C          10.729000     12.013000      4.230000
C          10.469000     13.373000      3.791000
C          10.792000     10.989000      3.234000
N          10.355000     13.701000      2.516000
N          11.098000      9.717000      3.491000
C          10.731000     11.368000      1.865000
C          10.363000     12.734000      1.585000
S          11.238000      9.061000      2.034000
N          10.893000     10.321000      1.033000
C          10.191000     13.160000      0.214000
S          10.592000     12.304000     -1.286000
C           9.631000     14.347000     -0.165000
C          10.304000     13.711000     -2.378000
S           8.922000     15.641000      0.800000
C           9.754000     14.677000     -1.534000
C          10.524000     13.757000     -3.759000
C           8.814000     16.654000     -0.686000
C           9.401000     15.985000     -1.722000
N          11.371000     12.850000     -4.246000
S           9.886000     14.907000     -4.906000
C          11.475000     12.947000     -5.604000
C          10.833000     14.089000     -6.140000
C          10.964000     10.879000      9.986000
H          12.460000      9.633000      8.008000
H          12.464000     10.197000      5.508000
H           9.389000     13.072000      6.419000
H          10.310000     14.256000      4.409000
H           8.571000     17.692000     -0.503000
H           9.545000     16.525000     -2.650000
H          12.166000     12.290000     -6.116000
H          10.817000     14.470000     -7.152000
H           9.929000     10.972000     10.337000
C          11.766000     11.862000     10.910000
H          11.282000      9.864000     10.254000
H          12.764000     12.047000     10.496000
H          11.859000     11.357000     11.879000
C          11.183000     13.264000     11.010000
H          11.178000     13.742000     10.022000
C          11.973000     14.190000     11.958000
H          10.135000     13.192000     11.324000
H          12.947000     14.420000     11.510000
H          12.100000     13.748000     12.954000
C          11.203000     15.503000     12.116000
H          11.468000     16.054000     11.205000
C          11.557000     16.303000     13.345000
H          10.112000     15.400000     12.172000
H          11.351000     15.680000     14.224000
H          10.904000     17.176000     13.466000
H          12.604000     16.592000     13.494000
C          15.126000      8.824000      3.843000
C          16.233000      9.216000      4.643000
N          14.474000      9.704000      3.085000
C          16.616000     10.586000      4.683000
C          14.868000     10.993000      3.127000
C          15.919000     11.501000      3.932000
C          16.368000     12.964000      3.963000
C          17.724000     13.331000      4.237000
C          15.513000     14.048000      3.672000
N          18.257000     14.545000      4.234000
N          14.204000     13.903000      3.384000
C          16.022000     15.321000      3.662000
C          17.447000     15.582000      3.901000
S          13.743000     15.473000      3.059000
N          15.187000     16.297000      3.275000
C          18.202000     16.808000      3.769000
S          19.978000     16.779000      3.459000
C          17.815000     18.038000      4.240000
C          19.943000     18.557000      3.444000
S          16.387000     18.576000      4.950000
C          18.785000     19.014000      4.057000
C          21.095000     19.360000      3.101000
C          17.010000     20.198000      5.073000
C          18.261000     20.262000      4.449000
N          22.084000     18.847000      2.375000
S          21.451000     20.992000      3.691000
C          23.086000     19.748000      2.139000
C          22.931000     20.919000      2.845000
C          14.765000      7.380000      3.802000
H          16.787000      8.409000      5.114000
H          17.473000     10.753000      5.329000
H          14.292000     11.642000      2.468000
H          18.452000     12.553000      4.463000
H          16.380000     20.887000      5.621000
H          18.753000     21.221000      4.336000
H          23.940000     19.463000      1.538000
H          23.579000     21.786000      2.861000
H          14.626000      6.993000      2.785000
C          13.526000      6.961000      4.583000
H          15.586000      6.770000      4.197000
H          12.668000      7.608000      4.363000
H          13.692000      7.095000      5.659000
C          13.143000      5.444000      4.297000
H          12.786000      5.295000      3.271000
C          12.098000      4.977000      5.291000
H          14.023000      4.802000      4.428000
H          12.495000      5.138000      6.301000
H          12.009000      3.891000      5.161000
C          10.738000      5.649000      5.157000
H          10.672000      6.700000      5.462000
C           9.656000      4.919000      5.945000
H          10.346000      5.710000      4.134000
H           8.948000      5.689000      6.275000
H          10.173000      4.407000      6.766000
H           9.157000      4.136000      5.361000
$end

--------------------------------------------------------------

             Standard Nuclear Orientation (Angstroms)
    I     Atom           X                Y                Z
 ----------------------------------------------------------------
    1      C      -3.5155449719     5.0147432939    -1.5064729374
    2      C      -3.4240795914     4.4335082007    -0.2242113219
    3      N      -3.4093412734     4.2365032662    -2.5550096482
    4      C      -3.3375672289     2.9841437878    -0.0958196955
    5      C      -3.3464720519     2.9019296290    -2.4580835538
    6      C      -3.2640875672     2.2118826400    -1.2544445092
    7      C      -3.1618948047     0.6851716932    -1.2190563169
    8      C      -2.3870191428    -0.0532140783    -2.2010314495
    9      C      -3.8896163675    -0.0626080109    -0.2414020625
   10      N      -2.2814735944    -1.3702928821    -2.1818334834
   11      N      -4.5765286491     0.4889819816     0.7593821288
   12      C      -3.7142756371    -1.4728179585    -0.1957234877
   13      C      -3.0042239316    -2.0750600952    -1.2970458675
   14      S      -5.0051574526    -0.7672051394     1.6599687519
   15      N      -4.3830270138    -2.0421770048     0.8256867494
   16      C      -2.8727320018    -3.5136162325    -1.3600308847
   17      S      -3.2641580321    -4.7312799218    -0.1321799969
   18      C      -2.4285351058    -4.2048957352    -2.4513749032
   19      C      -2.5006225996    -6.1152073877    -1.0021313820
   20      S      -1.9592875971    -3.6401062000    -4.0542353327
   21      C      -2.1599475943    -5.5771485205    -2.2440755016
   22      C      -2.3681066057    -7.4270567038    -0.5339776859
   23      C      -1.3675537251    -5.2984011263    -4.4362536071
   24      C      -1.4773581928    -6.0764046031    -3.3190787914
   25      N      -2.4455279838    -7.5862543208     0.7873432626
   26      S      -2.0347154841    -8.8658562715    -1.4634179282
   27      C      -2.3565105869    -8.9038304235     1.1344140286
   28      C      -2.0078208877    -9.7504653555     0.0549471298
   29      C      -3.5852386757     6.5185996891    -1.7334635323
   30      H      -3.5107934263     5.0841611786     0.6413754232
   31      H      -3.2018069923     2.5523261450     0.8912768962
   32      H      -3.2531569724     2.3852409762    -3.4122817157
   33      H      -1.8418845842     0.3425856092    -3.0572235544
   34      H      -0.7870237523    -5.3675235916    -5.3463025264
   35      H      -1.0266496608    -7.0610700806    -3.3476395449
   36      H      -2.3647791857    -9.1613876743     2.1855419432
   37      H      -1.7857538245   -10.8087991743     0.0416524916
   38      H      -4.2267694165     6.6814822092    -2.6080963657
   39      C      -2.2864493034     7.3370146601    -2.0599786187
   40      H      -4.0794290625     7.0308958291    -0.8988968624
   41      H      -1.4742225076     7.0515309388    -1.3814421959
   42      H      -2.5452375293     8.3904760355    -1.8990973432
   43      C      -1.6857558812     7.0623651839    -3.4308280188
   44      H      -1.3856633674     6.0093922284    -3.5072834851
   45      C      -0.4351921144     7.9136509622    -3.7336196780
   46      H      -2.4558784018     7.2207010952    -4.1949779010
   47      H       0.3911776667     7.5825430274    -3.0934942837
   48      H      -0.6241311679     8.9857354180    -3.5978037969
   49      C      -0.0263382522     7.6845012683    -5.1903838789
   50      H       0.5172856257     6.7325383034    -5.1458126683
   51      C       0.8409552292     8.7664912259    -5.7844013440
   52      H      -0.8586880970     7.5928938671    -5.8994874114
   53      H       0.2857008023     9.7110024397    -5.7315138366
   54      H       1.0150673012     8.6080332310    -6.8557346490
   55      H       1.7837239204     9.0122601339    -5.2816928411
   56      C      -2.3929304238     1.6242936129     4.0894126526
   57      C      -1.3092348032     2.4883387531     4.4026901620
   58      N      -2.2473697844     0.6141151566     3.2335974936
   59      C      -0.0601316112     2.3095393255     3.7446924566
   60      C      -1.0484862244     0.4552460458     2.6369738139
   61      C       0.0793687991     1.2922143490     2.8322098389
   62      C       1.4407034239     1.0960484147     2.1604822412
   63      C       2.6596495754     1.4942150162     2.7961980876
   64      C       1.6088958986     0.4656290188     0.9094647846
   65      N       3.9000377058     1.3281322016     2.3583079365
   66      N       0.5810567375     0.0163729966     0.1616909649
   67      C       2.8744985740     0.2772253564     0.4170585214
   68      C       4.0643383774     0.6734128143     1.1807231993
   69      S       1.3704949880    -0.6846968019    -1.1299492273
   70      N       2.9756053253    -0.4212696020    -0.7237535657
   71      C       5.4631005856     0.4139882694     0.9224826319
   72      S       6.6687750408     0.3909937641     2.2629815543
   73      C       6.0918422775     0.5628594721    -0.2887280227
   74      C       7.9162279952     0.0129888061     1.0531438056
   75      S       5.5087101086     0.9234589650    -1.8258203684
   76      C       7.4596338753     0.3372680449    -0.2164808574
   77      C       9.2808938085    -0.3047785233     1.4084931300
   78      C       7.1087610311     0.8108386973    -2.5050079130
   79      C       8.0026402278     0.3851656586    -1.5159399448
   80      N       9.5751530454    -0.7529061108     2.6254397874
   81      S      10.7201073288    -0.0083309292     0.4190269775
   82      C      10.9095199414    -1.0097846661     2.7834884965
   83      C      11.6669840291    -0.5862442711     1.7155167321
   84      C      -3.6796895885     1.8203898248     4.8125551888
   85      H      -1.4820790622     3.1911707294     5.2127260101
   86      H       0.6821983522     3.0317451611     4.0718299756
   87      H      -1.0113854759    -0.4010141437     1.9641439524
   88      H       2.6193513490     1.9807198343     3.7698680086
   89      H       7.1838727911     1.1060927379    -3.5438092776
   90      H       9.0276559001     0.1577611452    -1.7845364058
   91      H      11.2776781152    -1.4035045558     3.7222036864
   92      H      12.7399746791    -0.6464920762     1.5854772498
   93      H      -4.0932202319     0.8931440144     5.2279906398
   94      C      -4.8131411377     2.4713065820     4.0300988252
   95      H      -3.5283156749     2.4507632390     5.6967957086
   96      H      -4.9570173976     1.9971507929     3.0515034495
   97      H      -4.5595445191     3.5107211471     3.7880366081
   98      C      -6.1770341686     2.4417032244     4.8478356053
   99      H      -6.5726126705     1.4245314765     4.9536906203
  100      C      -7.2012481516     3.3379870802     4.1801448334
  101      H      -6.0177064064     2.8320994661     5.8607178485
  102      H      -6.7698109232     4.3433669149     4.0982711135
  103      H      -8.0455876001     3.4173791651     4.8765676881
  104      C      -7.6739556190     2.8653750317     2.8118153767
  105      H      -6.9559345380     2.9386915518     1.9865563779
  106      C      -8.9202194430     3.6096759054     2.3455421839
  107      H      -7.9435359862     1.8034621697     2.7519697497
  108      H      -8.8500295955     3.6657848197     1.2523865797
  109      H      -8.8941050208     4.5860741695     2.8449803350
  110      H      -9.8513254010     3.1261878031     2.6655842904
 ----------------------------------------------------------------

   10   -5663.5277281363      3.22E-06 Convergence criterion met
 Total energy in the final basis set = -5663.5277281363

                    Orbital Energies (a.u.)
 --------------------------------------------------------------

 Alpha MOs
 -- Occupied --
-88.982 -88.982 -88.930 -88.928 -88.925 -88.915 -88.911 -88.902
-14.392 -14.385 -14.384 -14.378 -14.346 -14.345 -14.341 -14.339
-14.334 -14.317 -10.269 -10.264 -10.261 -10.258 -10.257 -10.252
-10.251 -10.250 -10.244 -10.239 -10.238 -10.237 -10.236 -10.236
-10.234 -10.233 -10.233 -10.230 -10.229 -10.229 -10.229 -10.227
-10.227 -10.225 -10.223 -10.223 -10.223 -10.221 -10.219 -10.213
-10.211 -10.210 -10.209 -10.207 -10.203 -10.202 -10.197 -10.195
-10.185 -10.183 -10.182 -10.181 -10.178 -10.177 -10.172 -10.171
-10.170 -10.167 -10.167 -10.165  -8.038  -8.037  -7.991  -7.989
 -7.982  -7.974  -7.973  -7.961  -6.003  -6.002  -5.997  -5.996
 -5.996  -5.995  -5.955  -5.953  -5.952  -5.950  -5.948  -5.947
 -5.946  -5.944  -5.939  -5.938  -5.937  -5.934  -5.934  -5.930
 -5.929  -5.926  -5.922  -5.918  -1.039  -1.032  -0.968  -0.966
 -0.960  -0.958  -0.944  -0.939  -0.923  -0.910  -0.906  -0.906
 -0.852  -0.838  -0.832  -0.825  -0.810  -0.809  -0.807  -0.805
 -0.803  -0.801  -0.800  -0.790  -0.787  -0.776  -0.762  -0.761
 -0.751  -0.747  -0.745  -0.738  -0.730  -0.715  -0.714  -0.706
 -0.697  -0.690  -0.673  -0.671  -0.653  -0.648  -0.645  -0.643
 -0.631  -0.630  -0.627  -0.624  -0.608  -0.607  -0.604  -0.601
 -0.599  -0.592  -0.590  -0.583  -0.575  -0.569  -0.566  -0.565
 -0.550  -0.544  -0.541  -0.537  -0.522  -0.517  -0.516  -0.516
 -0.510  -0.500  -0.500  -0.495  -0.484  -0.484  -0.477  -0.475
 -0.470  -0.469  -0.468  -0.465  -0.464  -0.458  -0.453  -0.450
 -0.447  -0.444  -0.438  -0.438  -0.438  -0.434  -0.432  -0.431
 -0.429  -0.429  -0.424  -0.421  -0.419  -0.416  -0.415  -0.413
 -0.412  -0.410  -0.406  -0.401  -0.400  -0.399  -0.397  -0.396
 -0.392  -0.392  -0.388  -0.387  -0.386  -0.384  -0.383  -0.379
 -0.378  -0.377  -0.374  -0.371  -0.367  -0.364  -0.361  -0.355
 -0.351  -0.349  -0.348  -0.346  -0.345  -0.342  -0.341  -0.337
 -0.333  -0.332  -0.331  -0.328  -0.327  -0.326  -0.320  -0.319
 -0.316  -0.314  -0.312  -0.309  -0.307  -0.304  -0.302  -0.298
 -0.296  -0.294  -0.293  -0.291  -0.290  -0.280  -0.280  -0.279
 -0.276  -0.271  -0.265  -0.257  -0.256  -0.253  -0.250  -0.248
 -0.240  -0.237  -0.233  -0.229  -0.192  -0.189

          Ground-State Mulliken Net Atomic Charges

     Atom                 Charge (a.u.)
  ----------------------------------------
      1 C                     0.287875
      2 C                    -0.139305
      3 N                    -0.474390
      4 C                    -0.077299
      5 C                     0.060356
      6 C                     0.051486
      7 C                     0.010506
      8 C                     0.056723
      9 C                     0.222479
     10 N                    -0.492127
     11 N                    -0.546839
     12 C                     0.223100
     13 C                     0.281131
     14 S                     0.637068
     15 N                    -0.560251
     16 C                    -0.212214
     17 S                     0.342669
     18 C                    -0.138204
     19 C                    -0.203812
     20 S                     0.256057
     21 C                     0.173332
     22 C                     0.037068
     23 C                    -0.304243
     24 C                    -0.101138
     25 N                    -0.416083
     26 S                     0.280747
     27 C                     0.123515
     28 C                    -0.315060
     29 C                    -0.229998
     30 H                     0.084126
     31 H                     0.127419
     32 H                     0.096066
     33 H                     0.116755
     34 H                     0.135420
     35 H                     0.102949
     36 H                     0.118839
     37 H                     0.135817
     38 H                     0.113847
     39 C                    -0.171035
     40 H                     0.089312
     41 H                     0.089771
     42 H                     0.092476
     43 C                    -0.167208
     44 H                     0.109516
     45 C                    -0.174971
     46 H                     0.088888
     47 H                     0.092488
     48 H                     0.084096
     49 C                    -0.164620
     50 H                     0.091850
     51 C                    -0.322622
     52 H                     0.094975
     53 H                     0.096733
     54 H                     0.096991
     55 H                     0.097947
     56 C                     0.294554
     57 C                    -0.133693
     58 N                    -0.498421
     59 C                    -0.087310
     60 C                     0.075719
     61 C                     0.055962
     62 C                     0.032628
     63 C                     0.062740
     64 C                     0.248337
     65 N                    -0.505666
     66 N                    -0.565193
     67 C                     0.210349
     68 C                     0.260410
     69 S                     0.597976
     70 N                    -0.547197
     71 C                    -0.206853
     72 S                     0.357092
     73 C                    -0.120875
     74 C                    -0.202970
     75 S                     0.285196
     76 C                     0.158746
     77 C                     0.045730
     78 C                    -0.301881
     79 C                    -0.106996
     80 N                    -0.429101
     81 S                     0.274624
     82 C                     0.124328
     83 C                    -0.310884
     84 C                    -0.230605
     85 H                     0.090546
     86 H                     0.106176
     87 H                     0.124367
     88 H                     0.100959
     89 H                     0.145483
     90 H                     0.111071
     91 H                     0.118531
     92 H                     0.135002
     93 H                     0.114866
     94 C                    -0.191686
     95 H                     0.095140
     96 H                     0.129647
     97 H                     0.088108
     98 C                    -0.183036
     99 H                     0.095472
    100 C                    -0.178268
    101 H                     0.085944
    102 H                     0.093349
    103 H                     0.089055
    104 C                    -0.178063
    105 H                     0.108438
    106 C                    -0.321228
    107 H                     0.089066
    108 H                     0.102216
    109 H                     0.099956
    110 H                     0.103173
  ----------------------------------------
  Sum of atomic charges =     0.000000

                    Cartesian Multipole Moments
 -----------------------------------------------------------------
    Charge (ESU x 10^10)
                 0.0000
    Dipole Moment (Debye)
         X       3.4056      Y      -0.4457      Z       0.1373
       Tot       3.4374
    Quadrupole Moments (Debye-Ang)
        XX    -408.8018     XY      -7.2818     YY    -410.4597
        XZ     -23.7657     YZ      17.5778     ZZ    -430.0293

 Total job time:  94.30s(wall), 1118.40s(cpu)
        *  Thank you very much for using Q-Chem.  Have a nice day.  *
