 Q-Chem 4.4, Q-Chem, Inc., Pleasanton, CA (2016)
 Q-Chem 4.4.2 for Intel X86 Linux

User input:
--------------------------------------------------------------
$comment
SP
$end

$rem
MEM_STATIC 5000
MEM_TOTAL 20000
JOBTYPE SP
EXCHANGE B3LYP
BASIS 6-31g(d,p)
$end

$molecule
0 1
C          10.731000    -16.110000     -9.583000
C          11.285000    -17.075000     -8.832000
N           9.403000    -15.812000     -9.464000
C          10.567000    -17.860000     -7.862000
C           8.674000    -16.475000     -8.544000
C           9.188000    -17.516000     -7.737000
C           8.357000    -18.457000     -6.922000
C           8.674000    -19.784000     -6.629000
C           7.155000    -18.013000     -6.240000
N           8.001000    -20.588000     -5.728000
N           6.661000    -16.810000     -6.325000
C           6.381000    -18.842000     -5.432000
C           6.850000    -20.158000     -5.181000
S           5.170000    -16.840000     -5.702000
N           5.221000    -18.317000     -4.938000
C           6.243000    -21.158000     -4.344000
S           7.265000    -22.441000     -3.565000
C           4.901000    -21.474000     -4.194000
C           5.837000    -23.204000     -2.842000
S           3.468000    -20.681000     -4.766000
C           4.703000    -22.610000     -3.361000
C           5.880000    -24.118000     -1.803000
C           2.592000    -21.835000     -3.731000
C           3.346000    -22.703000     -2.956000
N           4.909000    -25.084000     -1.731000
S           7.381000    -24.515000     -0.971000
C           5.273000    -25.989000     -0.712000
C           6.539000    -25.793000     -0.217000
C          11.400000    -15.347000    -10.685000
H          12.326000    -17.299000     -9.049000
H          11.154000    -18.601000     -7.327000
H           7.627000    -16.175000     -8.566000
H           9.603000    -20.162000     -7.052000
H           1.513000    -21.826000     -3.806000
H           3.001000    -23.372000     -2.176000
H           4.587000    -26.781000     -0.442000
H           7.079000    -26.436000      0.465000
H          11.675000    -16.048000    -11.482000
C          12.674000    -14.499000    -10.337000
H          10.704000    -14.700000    -11.232000
H          12.559000    -13.831000     -9.474000
H          12.786000    -13.881000    -11.236000
C          14.044000    -15.228000    -10.077000
H          14.020000    -15.759000     -9.118000
C          15.301000    -14.327000    -10.192000
H          14.211000    -15.994000    -10.845000
H          16.212000    -14.879000     -9.929000
H          15.171000    -13.523000     -9.458000
C          15.559000    -13.590000    -11.559000
H          15.888000    -14.339000    -12.290000
C          16.626000    -12.541000    -11.437000
H          14.589000    -13.167000    -11.847000
H          17.584000    -13.061000    -11.312000
H          16.585000    -11.962000    -10.506000
H          16.700000    -11.774000    -12.217000
C          13.069000    -20.466000    -10.666000
C          12.951000    -19.269000    -11.325000
N          14.281000    -21.100000    -10.557000
C          14.046000    -18.641000    -11.873000
C          15.305000    -20.514000    -11.188000
C          15.277000    -19.264000    -11.786000
C          16.471000    -18.658000    -12.414000
C          16.548000    -17.228000    -12.688000
C          17.552000    -19.370000    -12.942000
N          17.569000    -16.650000    -13.206000
N          17.754000    -20.730000    -12.813000
C          18.639000    -18.746000    -13.549000
C          18.672000    -17.352000    -13.681000
S          19.109000    -21.111000    -13.617000
N          19.529000    -19.583000    -14.106000
C          19.841000    -16.616000    -14.198000
S          21.381000    -17.350000    -14.691000
C          19.963000    -15.261000    -14.401000
C          22.120000    -15.844000    -15.144000
S          18.900000    -13.994000    -13.861000
C          21.271000    -14.805000    -14.840000
C          23.499000    -15.818000    -15.489000
C          20.255000    -12.866000    -14.245000
C          21.355000    -13.401000    -14.852000
N          24.198000    -14.663000    -15.605000
S          24.401000    -17.226000    -15.877000
C          25.549000    -14.910000    -15.854000
C          25.836000    -16.208000    -15.816000
C          11.763000    -20.975000    -10.048000
H          12.058000    -18.653000    -11.280000
H          13.870000    -17.658000    -12.299000
H          16.275000    -21.007000    -11.147000
H          15.774000    -16.612000    -12.232000
H          20.068000    -11.847000    -13.933000
H          22.277000    -12.900000    -15.127000
H          26.272000    -14.122000    -16.017000
H          26.776000    -16.643000    -16.128000
H          11.448000    -20.325000     -9.222000
C          11.897000    -22.462000     -9.632000
H          10.901000    -20.964000    -10.726000
H          12.680000    -22.452000     -8.864000
H          12.245000    -23.203000    -10.363000
C          10.617000    -23.085000     -9.053000
H          10.212000    -22.313000     -8.388000
C          10.690000    -24.435000     -8.241000
H           9.928000    -23.245000     -9.891000
H          11.174000    -24.352000     -7.260000
H          11.349000    -25.198000     -8.675000
C           9.293000    -24.964000     -7.830000
H           8.603000    -25.003000     -8.682000
C           8.734000    -24.304000     -6.563000
H           9.437000    -26.013000     -7.544000
H           9.322000    -24.536000     -5.666000
H           7.684000    -24.607000     -6.466000
H           8.711000    -23.209000     -6.625000
$end

--------------------------------------------------------------

             Standard Nuclear Orientation (Angstroms)
    I     Atom           X                Y                Z
 ----------------------------------------------------------------
    1      C      -0.7343815314    -3.4445009992     0.6352079621
    2      C      -1.0010289144    -2.3179795649    -0.0444909647
    3      N      -1.7484597257    -4.2188161453     1.1237061407
    4      C      -2.3280011456    -1.8322025335    -0.3198350643
    5      C      -3.0200493362    -3.8516732946     0.8674328697
    6      C      -3.3714035580    -2.6681754695     0.1782238238
    7      C      -4.7491851485    -2.0858313571     0.1247427627
    8      C      -5.0603843785    -0.7288500510     0.0297492151
    9      C      -5.9278194459    -2.9294022769     0.0455386190
   10      N      -6.3202395238    -0.2106922232    -0.2056727001
   11      N      -5.9058465852    -4.2319428091     0.0826243998
   12      C      -7.2234857474    -2.4293275018    -0.0562211689
   13      C      -7.3895615135    -1.0263634774    -0.1938030934
   14      S      -7.4210355753    -4.7482664509     0.3056092001
   15      N      -8.2423503264    -3.3379952523    -0.0175056804
   16      C      -8.6218691114    -0.3039761963    -0.3628965603
   17      S      -8.6333889371     1.2947026605    -1.2240046872
   18      C      -9.8485974643    -0.5145812334     0.2487430939
   19      C     -10.3744403510     1.4835321419    -0.9462180762
   20      S     -10.4189631645    -1.8088040878     1.2533286657
   21      C     -10.7997036720     0.4882417751    -0.0879050834
   22      C     -11.1825581340     2.3788052624    -1.6260693013
   23      C     -12.0160412721    -1.0393549033     1.0871767141
   24      C     -12.1101299925     0.0738784229     0.2659435717
   25      N     -12.2721460812     2.9073736928    -0.9821791556
   26      S     -10.5816221303     3.3407936551    -2.9737666901
   27      C     -12.8155367115     3.9151321368    -1.8062128573
   28      C     -12.0361632483     4.2287681791    -2.8926779685
   29      C       0.6196315602    -3.9327175375     1.0504514566
   30      H      -0.1357428140    -1.7238690039    -0.3260200143
   31      H      -2.3836103542    -0.9073737722    -0.8868221701
   32      H      -3.7368040676    -4.5260594599     1.3345077621
   33      H      -4.2167077601    -0.0412869343     0.0118404418
   34      H     -12.8165022997    -1.4583530573     1.6818612440
   35      H     -13.0067748822     0.5873548933    -0.0617084635
   36      H     -13.7377990566     4.3969456812    -1.5094842353
   37      H     -12.1792197114     5.0498892211    -3.5822199054
   38      H       1.0584709787    -3.2058461408     1.7442186635
   39      C       1.6816651214    -4.2239517692    -0.0678290704
   40      H       0.5682271834    -4.8122156841     1.7031953576
   41      H       1.3220612488    -4.8576306558    -0.8884106468
   42      H       2.4455940363    -4.7822405289     0.4866033184
   43      C       2.3921755482    -3.0228215298    -0.7947417760
   44      H       1.6905462404    -2.5097873241    -1.4631205745
   45      C       3.7093841403    -3.3844311829    -1.5290952219
   46      H       2.7111499348    -2.2757483245    -0.0567675442
   47      H       4.1124642618    -2.5206160856    -2.0723666949
   48      H       3.4493342866    -4.1537536259    -2.2657016652
   49      C       4.8785894935    -4.0126391213    -0.6824928191
   50      H       5.3092288400    -3.2188055409    -0.0596116107
   51      C       5.9624470727    -4.5754186850    -1.5555941365
   52      H       4.4041661507    -4.7802457001    -0.0592146853
   53      H       6.4871908739    -3.7278684138    -2.0139515090
   54      H       5.5968583777    -5.0965747336    -2.4491400386
   55      H       6.6765896312    -5.2820916252    -1.1165283535
   56      C       0.3742613666     1.4349513483     1.3939732178
   57      C       1.0016267077     0.2617384584     1.7271372073
   58      N       1.0721199115     2.4835520463     0.8497204939
   59      C       2.3461045952     0.0774378351     1.4988271325
   60      C       2.3936844929     2.3085680642     0.7357877796
   61      C       3.0741358746     1.1223428132     0.9610511170
   62      C       4.5330702900     0.9932757116     0.7558486445
   63      C       5.1731223989    -0.3093023854     0.6161038806
   64      C       5.4523989875     2.0439503262     0.8280054196
   65      N       6.4283016423    -0.4743809923     0.4108647019
   66      N       5.1307528361     3.3826653297     0.9349207723
   67      C       6.8215937449     1.8584227820     0.6539960907
   68      C       7.3389435300     0.5770738298     0.4254286770
   69      S       6.5145753378     4.2219155763     1.0260048397
   70      N       7.5697043462     2.9515324248     0.8739047927
   71      C       8.7569061319     0.3218604404     0.1095265001
   72      S      10.0095888548     1.5676843448    -0.0696767225
   73      C       9.3708646866    -0.8920221327    -0.0945861941
   74      C      11.2880079351     0.4395114990    -0.4046941626
   75      S       8.6261060506    -2.4489277294    -0.3142166494
   76      C      10.7707525461    -0.8331035498    -0.4797661280
   77      C      12.5627555254     0.9261128919    -0.8041683992
   78      C      10.2350100892    -2.9921186932    -0.9243284190
   79      C      11.2655593415    -2.1005416336    -0.8363932988
   80      N      13.5204442574     0.1183686916    -1.3203695222
   81      S      13.0562305465     2.5574359905    -0.5995239479
   82      C      14.6387665597     0.8500190967    -1.7231770605
   83      C      14.4519053585     2.1606081608    -1.5964640126
   84      C      -1.1376405082     1.4315851195     1.6405140651
   85      H       0.4639042410    -0.6445515604     1.9887150171
   86      H       2.7366126069    -0.9122449134     1.7150967565
   87      H       2.9817556323     3.1329755181     0.3355944703
   88      H       4.5043290610    -1.1573286629     0.4745591741
   89      H      10.2252384913    -3.9954960769    -1.3290657927
   90      H      12.2875857210    -2.2240190967    -1.1783368552
   91      H      15.5304108618     0.3893519129    -2.1269073968
   92      H      15.2264921613     2.9086390389    -1.6995857380
   93      H      -1.6389367658     0.7376930578     0.9540616860
   94      C      -1.7072349328     2.8713026158     1.5701100725
   95      H      -1.4388663802     1.0734196171     2.6323958358
   96      H      -1.5105750984     3.1830491034     0.5370795613
   97      H      -1.2593246579     3.6649243788     2.1817364967
   98      C      -3.2118365169     2.9819786156     1.8628469786
   99      H      -3.6590099018     2.1359861978     1.3275276412
  100      C      -4.0038984838     4.2846327826     1.4592345881
  101      H      -3.3419284045     2.8423081616     2.9427234831
  102      H      -4.1353401022     4.4225766396     0.3788640066
  103      H      -3.4813071602     5.2258446830     1.6733010894
  104      C      -5.4801077304     4.2586697626     1.9288122515
  105      H      -5.5669298019     4.0062334330     2.9928906449
  106      C      -6.4097933508     3.4774100414     0.9914287146
  107      H      -5.8391552902     5.2927917505     1.8609184813
  108      H      -6.5088673408     3.9434034328     0.0028886275
  109      H      -7.3752783077     3.3635544176     1.4999498006
  110      H      -6.0644170367     2.4537308947     0.8011809653
 ----------------------------------------------------------------

   10   -5663.4976249444      5.71E-06 Convergence criterion met
 Total energy in the final basis set = -5663.4976249444

                    Orbital Energies (a.u.)
 --------------------------------------------------------------

 Alpha MOs
 -- Occupied --
-88.994 -88.989 -88.926 -88.925 -88.921 -88.919 -88.913 -88.912
-14.394 -14.384 -14.381 -14.381 -14.353 -14.352 -14.347 -14.342
-14.335 -14.332 -10.269 -10.268 -10.265 -10.262 -10.259 -10.257
-10.256 -10.253 -10.246 -10.243 -10.242 -10.240 -10.239 -10.234
-10.233 -10.233 -10.232 -10.231 -10.231 -10.229 -10.229 -10.228
-10.227 -10.227 -10.227 -10.227 -10.226 -10.226 -10.224 -10.220
-10.213 -10.211 -10.208 -10.207 -10.201 -10.199 -10.198 -10.193
-10.193 -10.192 -10.191 -10.188 -10.182 -10.180 -10.173 -10.171
-10.170 -10.170 -10.168 -10.157  -8.048  -8.045  -7.988  -7.987
 -7.980  -7.978  -7.974  -7.972  -6.013  -6.010  -6.008  -6.007
 -6.004  -6.002  -5.952  -5.950  -5.949  -5.947  -5.945  -5.945
 -5.943  -5.942  -5.941  -5.938  -5.938  -5.937  -5.936  -5.935
 -5.934  -5.932  -5.930  -5.928  -1.047  -1.034  -0.964  -0.962
 -0.956  -0.954  -0.941  -0.940  -0.914  -0.913  -0.906  -0.898
 -0.847  -0.843  -0.837  -0.833  -0.817  -0.810  -0.808  -0.807
 -0.805  -0.801  -0.800  -0.798  -0.789  -0.782  -0.768  -0.767
 -0.755  -0.751  -0.746  -0.743  -0.719  -0.718  -0.717  -0.711
 -0.698  -0.694  -0.682  -0.675  -0.660  -0.656  -0.649  -0.645
 -0.642  -0.636  -0.631  -0.623  -0.617  -0.613  -0.600  -0.597
 -0.591  -0.589  -0.587  -0.584  -0.580  -0.576  -0.564  -0.558
 -0.555  -0.554  -0.545  -0.540  -0.527  -0.524  -0.516  -0.514
 -0.512  -0.511  -0.504  -0.501  -0.487  -0.485  -0.479  -0.478
 -0.475  -0.471  -0.470  -0.469  -0.467  -0.460  -0.458  -0.450
 -0.441  -0.440  -0.437  -0.435  -0.435  -0.434  -0.430  -0.427
 -0.426  -0.425  -0.424  -0.424  -0.421  -0.420  -0.418  -0.415
 -0.412  -0.410  -0.409  -0.406  -0.401  -0.399  -0.399  -0.398
 -0.396  -0.396  -0.394  -0.392  -0.391  -0.386  -0.385  -0.384
 -0.382  -0.382  -0.381  -0.377  -0.368  -0.365  -0.363  -0.361
 -0.357  -0.352  -0.351  -0.349  -0.348  -0.344  -0.343  -0.342
 -0.337  -0.332  -0.330  -0.329  -0.326  -0.322  -0.321  -0.315
 -0.312  -0.309  -0.308  -0.307  -0.306  -0.305  -0.303  -0.301
 -0.297  -0.293  -0.292  -0.291  -0.287  -0.284  -0.280  -0.279
 -0.277  -0.273  -0.273  -0.270  -0.259  -0.257  -0.254  -0.251
 -0.245  -0.244  -0.235  -0.232  -0.196  -0.191

          Ground-State Mulliken Net Atomic Charges

     Atom                 Charge (a.u.)
  ----------------------------------------
      1 C                     0.289427
      2 C                    -0.127144
      3 N                    -0.487197
      4 C                    -0.090388
      5 C                     0.095366
      6 C                     0.024081
      7 C                     0.074556
      8 C                     0.041085
      9 C                     0.235937
     10 N                    -0.530545
     11 N                    -0.541839
     12 C                     0.213368
     13 C                     0.289916
     14 S                     0.592879
     15 N                    -0.559214
     16 C                    -0.227619
     17 S                     0.310581
     18 C                    -0.107446
     19 C                    -0.190546
     20 S                     0.288381
     21 C                     0.127853
     22 C                     0.017167
     23 C                    -0.307700
     24 C                    -0.045704
     25 N                    -0.427815
     26 S                     0.285970
     27 C                     0.115049
     28 C                    -0.302271
     29 C                    -0.249366
     30 H                     0.093965
     31 H                     0.122752
     32 H                     0.123506
     33 H                     0.106346
     34 H                     0.123246
     35 H                     0.128835
     36 H                     0.116983
     37 H                     0.133898
     38 H                     0.105223
     39 C                    -0.181347
     40 H                     0.128426
     41 H                     0.106033
     42 H                     0.101596
     43 C                    -0.191841
     44 H                     0.098934
     45 C                    -0.185282
     46 H                     0.079303
     47 H                     0.096263
     48 H                     0.090086
     49 C                    -0.192071
     50 H                     0.120561
     51 C                    -0.319359
     52 H                     0.094381
     53 H                     0.117258
     54 H                     0.094780
     55 H                     0.099149
     56 C                     0.278805
     57 C                    -0.120187
     58 N                    -0.498438
     59 C                    -0.075157
     60 C                     0.081863
     61 C                     0.054937
     62 C                     0.006109
     63 C                     0.096343
     64 C                     0.231452
     65 N                    -0.530192
     66 N                    -0.555565
     67 C                     0.202955
     68 C                     0.299588
     69 S                     0.619861
     70 N                    -0.570693
     71 C                    -0.211920
     72 S                     0.324779
     73 C                    -0.141290
     74 C                    -0.237483
     75 S                     0.300068
     76 C                     0.156527
     77 C                     0.072896
     78 C                    -0.320746
     79 C                    -0.040527
     80 N                    -0.462327
     81 S                     0.264896
     82 C                     0.130742
     83 C                    -0.295498
     84 C                    -0.253891
     85 H                     0.090674
     86 H                     0.097425
     87 H                     0.126724
     88 H                     0.101603
     89 H                     0.127380
     90 H                     0.134521
     91 H                     0.121732
     92 H                     0.122226
     93 H                     0.110684
     94 C                    -0.174624
     95 H                     0.118281
     96 H                     0.107292
     97 H                     0.104321
     98 C                    -0.181069
     99 H                     0.088994
    100 C                    -0.182017
    101 H                     0.088791
    102 H                     0.087279
    103 H                     0.084976
    104 C                    -0.183292
    105 H                     0.088178
    106 C                    -0.321391
    107 H                     0.087874
    108 H                     0.100052
    109 H                     0.101489
    110 H                     0.125542
  ----------------------------------------
  Sum of atomic charges =     0.000000

                    Cartesian Multipole Moments
 -----------------------------------------------------------------
    Charge (ESU x 10^10)
                 0.0000
    Dipole Moment (Debye)
         X       0.9606      Y       0.2211      Z      -1.4492
       Tot       1.7527
    Quadrupole Moments (Debye-Ang)
        XX    -376.2964     XY       6.9196     YY    -432.6388
        XZ      -2.3521     YZ      -9.9443     ZZ    -444.5510

 Total job time:  97.18s(wall), 1176.41s(cpu)
        *  Thank you very much for using Q-Chem.  Have a nice day.  *
