 Q-Chem 4.4, Q-Chem, Inc., Pleasanton, CA (2016)
 Q-Chem 4.4.2 for Intel X86 Linux

User input:
--------------------------------------------------------------
$comment
SP
$end

$rem
MEM_STATIC 5000
MEM_TOTAL 20000
JOBTYPE SP
EXCHANGE B3LYP
BASIS 6-31g(d,p)
$end

$molecule
0 1
C          21.480000    -21.648000    -16.526000
C          21.115000    -22.871000    -16.023000
N          22.233000    -20.835000    -15.782000
C          21.615000    -23.388000    -14.807000
C          22.809000    -21.326000    -14.675000
C          22.551000    -22.564000    -14.120000
C          23.170000    -22.977000    -12.822000
C          22.509000    -23.899000    -12.029000
C          24.512000    -22.700000    -12.444000
N          22.982000    -24.395000    -10.941000
N          25.413000    -21.923000    -13.161000
C          24.994000    -23.219000    -11.278000
C          24.183000    -24.059000    -10.480000
S          26.797000    -22.028000    -12.237000
N          26.287000    -22.964000    -10.969000
C          24.533000    -24.515000     -9.160000
S          26.080000    -24.241000     -8.378000
C          23.774000    -25.441000     -8.465000
C          25.572000    -25.104000     -6.919000
S          22.179000    -26.068000     -8.740000
C          24.351000    -25.757000     -7.230000
C          26.226000    -25.415000     -5.729000
C          22.431000    -27.021000     -7.250000
C          23.553000    -26.700000     -6.566000
N          26.946000    -24.467000     -5.302000
S          26.339000    -26.909000     -4.866000
C          27.840000    -24.891000     -4.270000
C          27.714000    -26.214000     -3.987000
C          21.036000    -21.175000    -17.853000
H          20.571000    -23.559000    -16.664000
H          21.374000    -24.365000    -14.400000
H          23.376000    -20.508000    -14.234000
H          21.481000    -24.209000    -12.213000
H          21.632000    -27.677000     -6.929000
H          23.708000    -27.107000     -5.573000
H          28.408000    -24.245000     -3.614000
H          28.188000    -26.848000     -3.249000
H          21.812000    -20.477000    -18.192000
C          19.721000    -20.309000    -17.855000
H          21.001000    -21.959000    -18.619000
H          19.517000    -20.005000    -18.890000
H          19.872000    -19.474000    -17.160000
C          18.470000    -21.045000    -17.428000
H          18.454000    -22.004000    -17.959000
C          17.239000    -20.161000    -17.616000
H          18.615000    -21.404000    -16.401000
H          17.278000    -19.593000    -18.554000
H          17.201000    -19.352000    -16.875000
C          15.922000    -20.982000    -17.529000
H          15.016000    -20.381000    -17.669000
C          15.599000    -21.556000    -16.127000
H          15.939000    -21.753000    -18.309000
H          16.407000    -22.115000    -15.637000
H          14.774000    -22.272000    -16.225000
H          15.220000    -20.787000    -15.443000
C          13.069000    -20.466000    -10.666000
C          12.951000    -19.269000    -11.325000
N          14.281000    -21.100000    -10.557000
C          14.046000    -18.641000    -11.873000
C          15.305000    -20.514000    -11.188000
C          15.277000    -19.264000    -11.786000
C          16.471000    -18.658000    -12.414000
C          16.548000    -17.228000    -12.688000
C          17.552000    -19.370000    -12.942000
N          17.569000    -16.650000    -13.206000
N          17.754000    -20.730000    -12.813000
C          18.639000    -18.746000    -13.549000
C          18.672000    -17.352000    -13.681000
S          19.109000    -21.111000    -13.617000
N          19.529000    -19.583000    -14.106000
C          19.841000    -16.616000    -14.198000
S          21.381000    -17.350000    -14.691000
C          19.963000    -15.261000    -14.401000
C          22.120000    -15.844000    -15.144000
S          18.900000    -13.994000    -13.861000
C          21.271000    -14.805000    -14.840000
C          23.499000    -15.818000    -15.489000
C          20.255000    -12.866000    -14.245000
C          21.355000    -13.401000    -14.852000
N          24.198000    -14.663000    -15.605000
S          24.401000    -17.226000    -15.877000
C          25.549000    -14.910000    -15.854000
C          25.836000    -16.208000    -15.816000
C          11.763000    -20.975000    -10.048000
H          12.058000    -18.653000    -11.280000
H          13.870000    -17.658000    -12.299000
H          16.275000    -21.007000    -11.147000
H          15.774000    -16.612000    -12.232000
H          20.068000    -11.847000    -13.933000
H          22.277000    -12.900000    -15.127000
H          26.272000    -14.122000    -16.017000
H          26.776000    -16.643000    -16.128000
H          11.448000    -20.325000     -9.222000
C          11.897000    -22.462000     -9.632000
H          10.901000    -20.964000    -10.726000
H          12.680000    -22.452000     -8.864000
H          12.245000    -23.203000    -10.363000
C          10.617000    -23.085000     -9.053000
H          10.212000    -22.313000     -8.388000
C          10.690000    -24.435000     -8.241000
H           9.928000    -23.245000     -9.891000
H          11.174000    -24.352000     -7.260000
H          11.349000    -25.198000     -8.675000
C           9.293000    -24.964000     -7.830000
H           8.603000    -25.003000     -8.682000
C           8.734000    -24.304000     -6.563000
H           9.437000    -26.013000     -7.544000
H           9.322000    -24.536000     -5.666000
H           7.684000    -24.607000     -6.466000
H           8.711000    -23.209000     -6.625000
$end

--------------------------------------------------------------

             Standard Nuclear Orientation (Angstroms)
    I     Atom           X                Y                Z
 ----------------------------------------------------------------
    1      C      -1.0387174108     2.7282334493    -3.5927767722
    2      C      -0.4745713286     1.5875915622    -4.1052592435
    3      N      -0.5477743789     3.2495425315    -2.4663994907
    4      C       0.7025906727     1.0052812441    -3.5845392457
    5      C       0.6234862044     2.7900492001    -2.0023730641
    6      C       1.2978811903     1.6855624760    -2.4845903173
    7      C       2.5486871215     1.1922215492    -1.8283637921
    8      C       2.8752947559    -0.1487065911    -1.9336879372
    9      C       3.5765298115     2.0309127619    -1.3177627203
   10      N       3.9641253967    -0.6696294209    -1.4903187443
   11      N       3.5340999726     3.4177937942    -1.2515833353
   12      C       4.7187295003     1.4623636131    -0.8346760445
   13      C       4.8957561515     0.0601035485    -0.8842066011
   14      S       5.0296623369     3.7959541686    -0.6186971324
   15      N       5.6899730885     2.2939992387    -0.3903528753
   16      C       5.9785446335    -0.6474571923    -0.2519385398
   17      S       7.3425235291     0.1101854004     0.5513971770
   18      C       6.1901940550    -2.0035174494    -0.4332865518
   19      C       8.0544828794    -1.4556717041     0.9669924270
   20      S       5.1952135534    -3.2462652259    -1.1249300765
   21      C       7.3332345164    -2.4415620791     0.2446407347
   22      C       9.2317376517    -1.8153479696     1.6190976218
   23      C       6.5289835405    -4.3651238782    -0.7236497035
   24      C       7.5104021915    -3.8158240407     0.0279273850
   25      N       9.4878219193    -1.0768373815     2.6133088464
   26      S      10.4474178874    -2.9674261446     1.1896660869
   27      C      10.8275181454    -1.2485033824     3.0821167023
   28      C      11.5188655760    -2.1618534016     2.3512785035
   29      C      -2.2027589974     3.3852102186    -4.2214123656
   30      H      -0.8261097888     1.2150742518    -5.0632845899
   31      H       1.1930814635     0.1252162942    -3.9884742257
   32      H       0.8370667538     3.3519232218    -1.0947525858
   33      H       2.1842456067    -0.8978982782    -2.3182693841
   34      H       6.4077940480    -5.4089956615    -0.9833087243
   35      H       8.2764630891    -4.4534545034     0.4548947070
   36      H      11.2244718309    -0.8894344000     4.0222088453
   37      H      12.5186084119    -2.5647137263     2.4487147435
   38      H      -2.1276008762     4.4448123408    -3.9459208056
   39      C      -3.6078503361     2.9474247219    -3.6617274644
   40      H      -2.1860532134     3.3720798166    -5.3178545708
   41      H      -4.3780912035     3.5220579622    -4.1925594957
   42      H      -3.5960392151     3.1025773960    -2.5759838736
   43      C      -3.9762855630     1.5025571863    -3.9179291196
   44      H      -3.7523333833     1.2864162129    -4.9691315267
   45      C      -5.4122117828     1.2302193874    -3.4750871446
   46      H      -3.2260791520     0.8645147973    -3.4334425349
   47      H      -6.0895646462     2.0507811897    -3.7431550970
   48      H      -5.5067243384     1.2206103904    -2.3814779621
   49      C      -5.9411614145    -0.1197756556    -4.0352877076
   50      H      -6.9740980249    -0.3447164643    -3.7453211723
   51      C      -5.2613614426    -1.3830952877    -3.4510749848
   52      H      -5.8987125049    -0.0838618751    -5.1307502996
   53      H      -4.1635574681    -1.3903832320    -3.4658506203
   54      H      -5.5615733895    -2.2500461621    -4.0520358556
   55      H      -5.6144648626    -1.6112434658    -2.4380970070
   56      C      -5.2066262155    -5.4554118776     1.1123406928
   57      C      -6.1863096429    -4.5682039567     1.4785325648
   58      N      -3.9446050742    -5.0254845575     0.7879240802
   59      C      -5.9345898198    -3.2182184898     1.5673546884
   60      C      -3.7621908666    -3.7000212005     0.7857000739
   61      C      -4.6739027625    -2.7581046196     1.2356584870
   62      C      -4.3740988280    -1.3100104165     1.2555778231
   63      C      -5.1507918606    -0.3796153645     2.0661442795
   64      C      -3.4585793232    -0.6656967124     0.4183365873
   65      N      -4.9155126515     0.8790486211     2.1386540381
   66      N      -2.5755017663    -1.2952864838    -0.4365527320
   67      C      -3.2374909421     0.7085673027     0.4620669504
   68      C      -3.9646808848     1.5147651657     1.3469334899
   69      S      -1.7461124669    -0.1496310476    -1.2285053893
   70      N      -2.4145642800     1.1764139726    -0.4902088512
   71      C      -3.6977153747     2.9529803850     1.5361751327
   72      S      -2.4153515235     3.8750674364     0.7245696728
   73      C      -4.3717211913     3.8370492584     2.3462716618
   74      C      -2.8202383006     5.3844578774     1.4842888279
   75      S      -5.5439565486     3.4822982337     3.5819390837
   76      C      -3.8274992308     5.1833419944     2.3995569963
   77      C      -1.9674516916     6.5078905098     1.3054142348
   78      C      -5.2735859926     5.1743631395     4.1473425831
   79      C      -4.4675813720     5.9644044155     3.3786649305
   80      N      -2.0753068423     7.6298746822     2.0574785826
   81      S      -0.7757616125     6.6008895426     0.0734085794
   82      C      -1.0643328676     8.5432995195     1.7544972481
   83      C      -0.1902147913     8.0513118980     0.8812946548
   84      C      -5.6420862617    -6.9236225877     1.1493928011
   85      H      -7.1333724631    -4.8761197190     1.9111870436
   86      H      -6.7456258624    -2.6045391333     1.9473009806
   87      H      -2.7802250551    -3.3237314246     0.5032480433
   88      H      -5.8237619118    -0.8284805811     2.7955956676
   89      H      -5.7767981540     5.4026877275     5.0775680413
   90      H      -4.1575113655     6.9867608542     3.5666912674
   91      H      -0.9935014693     9.5188677576     2.2165486800
   92      H       0.5810499439     8.6267584882     0.3871479862
   93      H      -5.8244669373    -7.2460004735     2.1822581302
   94      C      -4.6165266967    -7.8179429740     0.4073687952
   95      H      -6.5929385191    -7.1319262356     0.6440824262
   96      H      -3.6939197563    -7.7002178950     0.9887036723
   97      H      -4.3215516013    -7.5710155044    -0.6205234743
   98      C      -4.9937791009    -9.3060911924     0.3376156313
   99      H      -5.3762309426    -9.5399361480     1.3382559891
  100      C      -3.9022831405   -10.3839321534    -0.0285379309
  101      H      -5.8039486248    -9.3999164295    -0.3954513284
  102      H      -3.1410987302   -10.5437911384     0.7451218124
  103      H      -3.2316040099   -10.0992129747    -0.8494706279
  104      C      -4.4888804930   -11.8122198307    -0.1560873599
  105      H      -5.3661838771   -11.8372927628    -0.8142933463
  106      C      -4.6575225672   -12.5299902684     1.1891767218
  107      H      -3.7321253313   -12.4059284502    -0.6831212302
  108      H      -3.7009246106   -12.7361367748     1.6857660565
  109      H      -5.2412331780   -13.4412859829     1.0087881310
  110      H      -5.2461274726   -11.9519147491     1.9122057386
 ----------------------------------------------------------------

   10   -5663.5061858053      5.55E-06 Convergence criterion met
 Total energy in the final basis set = -5663.5061858053

                    Orbital Energies (a.u.)
 --------------------------------------------------------------

 Alpha MOs
 -- Occupied --
-88.989 -88.987 -88.928 -88.923 -88.917 -88.913 -88.913 -88.907
-14.393 -14.390 -14.377 -14.374 -14.346 -14.341 -14.338 -14.335
-14.331 -14.325 -10.262 -10.262 -10.259 -10.257 -10.257 -10.251
-10.249 -10.246 -10.239 -10.238 -10.238 -10.236 -10.234 -10.233
-10.233 -10.232 -10.229 -10.227 -10.226 -10.223 -10.222 -10.222
-10.221 -10.221 -10.221 -10.219 -10.218 -10.217 -10.216 -10.215
-10.207 -10.207 -10.206 -10.203 -10.199 -10.198 -10.193 -10.191
-10.187 -10.182 -10.177 -10.177 -10.177 -10.176 -10.175 -10.174
-10.171 -10.171 -10.169 -10.168  -8.044  -8.041  -7.986  -7.985
 -7.979  -7.973  -7.972  -7.966  -6.009  -6.006  -6.003  -6.001
 -6.001  -5.999  -5.950  -5.949  -5.946  -5.946  -5.943  -5.942
 -5.942  -5.940  -5.937  -5.936  -5.936  -5.933  -5.933  -5.931
 -5.929  -5.928  -5.927  -5.922  -1.032  -1.028  -0.979  -0.976
 -0.958  -0.955  -0.946  -0.937  -0.915  -0.907  -0.901  -0.892
 -0.848  -0.840  -0.836  -0.832  -0.814  -0.811  -0.808  -0.805
 -0.801  -0.800  -0.798  -0.793  -0.785  -0.783  -0.771  -0.765
 -0.751  -0.750  -0.744  -0.741  -0.726  -0.715  -0.712  -0.708
 -0.698  -0.693  -0.680  -0.676  -0.657  -0.657  -0.649  -0.641
 -0.640  -0.631  -0.627  -0.619  -0.618  -0.610  -0.602  -0.596
 -0.592  -0.583  -0.580  -0.578  -0.577  -0.577  -0.566  -0.562
 -0.548  -0.548  -0.543  -0.534  -0.525  -0.521  -0.513  -0.510
 -0.510  -0.504  -0.499  -0.495  -0.490  -0.483  -0.480  -0.475
 -0.473  -0.472  -0.466  -0.466  -0.459  -0.457  -0.452  -0.447
 -0.446  -0.444  -0.442  -0.436  -0.434  -0.431  -0.431  -0.429
 -0.428  -0.424  -0.423  -0.423  -0.419  -0.418  -0.417  -0.416
 -0.410  -0.407  -0.406  -0.404  -0.403  -0.399  -0.395  -0.394
 -0.393  -0.392  -0.389  -0.387  -0.387  -0.385  -0.384  -0.381
 -0.378  -0.376  -0.375  -0.372  -0.366  -0.365  -0.357  -0.356
 -0.355  -0.353  -0.350  -0.349  -0.345  -0.342  -0.337  -0.335
 -0.334  -0.332  -0.331  -0.328  -0.326  -0.324  -0.319  -0.316
 -0.312  -0.309  -0.306  -0.304  -0.303  -0.302  -0.301  -0.300
 -0.298  -0.295  -0.288  -0.287  -0.283  -0.277  -0.276  -0.272
 -0.271  -0.268  -0.267  -0.265  -0.258  -0.253  -0.253  -0.247
 -0.246  -0.238  -0.234  -0.226  -0.197  -0.190

          Ground-State Mulliken Net Atomic Charges

     Atom                 Charge (a.u.)
  ----------------------------------------
      1 C                     0.296873
      2 C                    -0.136348
      3 N                    -0.470011
      4 C                    -0.080111
      5 C                     0.061734
      6 C                     0.042100
      7 C                     0.021380
      8 C                     0.052165
      9 C                     0.255316
     10 N                    -0.529679
     11 N                    -0.551451
     12 C                     0.193325
     13 C                     0.331432
     14 S                     0.602461
     15 N                    -0.561807
     16 C                    -0.228911
     17 S                     0.367150
     18 C                    -0.108156
     19 C                    -0.163636
     20 S                     0.290665
     21 C                     0.110150
     22 C                     0.048923
     23 C                    -0.312323
     24 C                    -0.073864
     25 N                    -0.428167
     26 S                     0.251643
     27 C                     0.105803
     28 C                    -0.297026
     29 C                    -0.248230
     30 H                     0.087062
     31 H                     0.106363
     32 H                     0.122229
     33 H                     0.105648
     34 H                     0.124126
     35 H                     0.112597
     36 H                     0.123289
     37 H                     0.137823
     38 H                     0.119862
     39 C                    -0.184655
     40 H                     0.096631
     41 H                     0.092763
     42 H                     0.130952
     43 C                    -0.167481
     44 H                     0.079981
     45 C                    -0.173298
     46 H                     0.092390
     47 H                     0.090267
     48 H                     0.094053
     49 C                    -0.178263
     50 H                     0.089490
     51 C                    -0.325525
     52 H                     0.092196
     53 H                     0.101817
     54 H                     0.098858
     55 H                     0.107926
     56 C                     0.282778
     57 C                    -0.114693
     58 N                    -0.499850
     59 C                    -0.076392
     60 C                     0.082309
     61 C                     0.057686
     62 C                     0.002963
     63 C                     0.080681
     64 C                     0.231233
     65 N                    -0.514317
     66 N                    -0.561299
     67 C                     0.202701
     68 C                     0.295828
     69 S                     0.630510
     70 N                    -0.580530
     71 C                    -0.218263
     72 S                     0.348110
     73 C                    -0.133724
     74 C                    -0.243929
     75 S                     0.280348
     76 C                     0.157787
     77 C                     0.067317
     78 C                    -0.314736
     79 C                    -0.041523
     80 N                    -0.463300
     81 S                     0.279142
     82 C                     0.129026
     83 C                    -0.298448
     84 C                    -0.251356
     85 H                     0.083450
     86 H                     0.096631
     87 H                     0.126348
     88 H                     0.106584
     89 H                     0.124700
     90 H                     0.133116
     91 H                     0.118786
     92 H                     0.119564
     93 H                     0.118876
     94 C                    -0.175156
     95 H                     0.113795
     96 H                     0.110314
     97 H                     0.102844
     98 C                    -0.176215
     99 H                     0.086399
    100 C                    -0.182853
    101 H                     0.087324
    102 H                     0.087918
    103 H                     0.087251
    104 C                    -0.178832
    105 H                     0.090784
    106 C                    -0.315505
    107 H                     0.091186
    108 H                     0.105224
    109 H                     0.100272
    110 H                     0.102632
  ----------------------------------------
  Sum of atomic charges =     0.000000

                    Cartesian Multipole Moments
 -----------------------------------------------------------------
    Charge (ESU x 10^10)
                 0.0000
    Dipole Moment (Debye)
         X       2.3135      Y      -0.9574      Z      -0.8779
       Tot       2.6532
    Quadrupole Moments (Debye-Ang)
        XX    -389.8466     XY       0.3141     YY    -423.2571
        XZ       3.2435     YZ      -3.6665     ZZ    -433.2810

 Total job time:  95.42s(wall), 1143.78s(cpu)
        *  Thank you very much for using Q-Chem.  Have a nice day.  *
