 Q-Chem 4.4, Q-Chem, Inc., Pleasanton, CA (2016)
 Q-Chem 4.4.2 for Intel X86 Linux

User input:
--------------------------------------------------------------
$comment
SP
$end

$rem
MEM_STATIC 5000
MEM_TOTAL 20000
JOBTYPE SP
EXCHANGE B3LYP
BASIS 6-31g(d,p)
$end

$molecule
0 1
C          15.972000    -24.772000    -10.833000
C          16.000000    -23.753000     -9.909000
N          15.387000    -25.913000    -10.577000
C          15.437000    -24.001000     -8.595000
C          14.838000    -26.125000     -9.323000
C          14.758000    -25.137000     -8.293000
C          14.224000    -25.480000     -6.955000
C          13.127000    -26.368000     -6.820000
C          14.824000    -25.087000     -5.714000
N          12.497000    -26.532000     -5.641000
N          15.982000    -24.438000     -5.600000
C          14.230000    -25.368000     -4.474000
C          12.999000    -26.103000     -4.478000
S          16.161000    -24.118000     -4.016000
N          14.824000    -24.788000     -3.405000
C          12.239000    -26.359000     -3.274000
S          12.690000    -25.898000     -1.628000
C          10.960000    -26.932000     -3.256000
C          11.257000    -26.737000     -0.943000
S          10.000000    -27.537000     -4.576000
C          10.431000    -27.042000     -1.971000
C          10.908000    -26.654000      0.455000
C           8.790000    -27.818000     -3.292000
C           9.178000    -27.592000     -1.949000
N           9.979000    -27.483000      0.871000
S          11.515000    -25.561000      1.627000
C           9.722000    -27.301000      2.216000
C          10.377000    -26.180000      2.815000
C          16.346000    -24.508000    -12.290000
H          16.477000    -22.803000    -10.134000
H          15.445000    -23.174000     -7.891000
H          14.312000    -27.065000     -9.165000
H          12.718000    -26.908000     -7.672000
H           7.829000    -28.214000     -3.592000
H           8.592000    -27.923000     -1.099000
H           9.089000    -27.978000      2.774000
H          10.322000    -25.790000      3.822000
H          17.311000    -23.986000    -12.277000
C          15.319000    -23.752000    -13.061000
H          16.667000    -25.465000    -12.720000
H          15.754000    -23.575000    -14.052000
H          15.157000    -22.777000    -12.585000
C          13.938000    -24.421000    -13.187000
H          13.550000    -24.824000    -12.243000
C          14.050000    -25.657000    -14.185000
H          13.228000    -23.670000    -13.557000
H          14.779000    -26.385000    -13.810000
H          14.508000    -25.319000    -15.123000
C          12.719000    -26.373000    -14.407000
H          12.386000    -26.898000    -13.503000
C          12.876000    -27.491000    -15.496000
H          11.973000    -25.664000    -14.787000
H          13.434000    -28.363000    -15.136000
H          13.362000    -27.062000    -16.382000
H          11.939000    -27.907000    -15.887000
C          13.069000    -20.466000    -10.666000
C          12.951000    -19.269000    -11.325000
N          14.281000    -21.100000    -10.557000
C          14.046000    -18.641000    -11.873000
C          15.305000    -20.514000    -11.188000
C          15.277000    -19.264000    -11.786000
C          16.471000    -18.658000    -12.414000
C          16.548000    -17.228000    -12.688000
C          17.552000    -19.370000    -12.942000
N          17.569000    -16.650000    -13.206000
N          17.754000    -20.730000    -12.813000
C          18.639000    -18.746000    -13.549000
C          18.672000    -17.352000    -13.681000
S          19.109000    -21.111000    -13.617000
N          19.529000    -19.583000    -14.106000
C          19.841000    -16.616000    -14.198000
S          21.381000    -17.350000    -14.691000
C          19.963000    -15.261000    -14.401000
C          22.120000    -15.844000    -15.144000
S          18.900000    -13.994000    -13.861000
C          21.271000    -14.805000    -14.840000
C          23.499000    -15.818000    -15.489000
C          20.255000    -12.866000    -14.245000
C          21.355000    -13.401000    -14.852000
N          24.198000    -14.663000    -15.605000
S          24.401000    -17.226000    -15.877000
C          25.549000    -14.910000    -15.854000
C          25.836000    -16.208000    -15.816000
C          11.763000    -20.975000    -10.048000
H          12.058000    -18.653000    -11.280000
H          13.870000    -17.658000    -12.299000
H          16.275000    -21.007000    -11.147000
H          15.774000    -16.612000    -12.232000
H          20.068000    -11.847000    -13.933000
H          22.277000    -12.900000    -15.127000
H          26.272000    -14.122000    -16.017000
H          26.776000    -16.643000    -16.128000
H          11.448000    -20.325000     -9.222000
C          11.897000    -22.462000     -9.632000
H          10.901000    -20.964000    -10.726000
H          12.680000    -22.452000     -8.864000
H          12.245000    -23.203000    -10.363000
C          10.617000    -23.085000     -9.053000
H          10.212000    -22.313000     -8.388000
C          10.690000    -24.435000     -8.241000
H           9.928000    -23.245000     -9.891000
H          11.174000    -24.352000     -7.260000
H          11.349000    -25.198000     -8.675000
C           9.293000    -24.964000     -7.830000
H           8.603000    -25.003000     -8.682000
C           8.734000    -24.304000     -6.563000
H           9.437000    -26.013000     -7.544000
H           9.322000    -24.536000     -5.666000
H           7.684000    -24.607000     -6.466000
H           8.711000    -23.209000     -6.625000
$end

--------------------------------------------------------------

             Standard Nuclear Orientation (Angstroms)
    I     Atom           X                Y                Z
 ----------------------------------------------------------------
    1      C       0.0321998670     2.2155155375     2.1797805358
    2      C       0.0870820660     1.0159271048     1.5082922364
    3      N       1.1173960457     2.8389286659     2.5583929037
    4      C       1.3856993142     0.4028909611     1.3012924077
    5      C       2.3498461069     2.2471988631     2.3352703208
    6      C       2.5485708252     1.0316172161     1.6097954792
    7      C       3.8980284287     0.4335352513     1.4901663024
    8      C       5.0411228941     1.2554330530     1.3228431220
    9      C       4.1904662997    -0.9579915254     1.6708962700
   10      N       6.2416071780     0.7331672349     1.0067531043
   11      N       3.3062172681    -1.8784652028     2.0529863896
   12      C       5.4741816952    -1.4855674017     1.4632054468
   13      C       6.5154958933    -0.5731896864     1.0906015746
   14      S       4.0876237509    -3.3028118261     1.9886621707
   15      N       5.5569971154    -2.8358572002     1.5062875311
   16      C       7.8503688992    -1.0112210992     0.7456457231
   17      S       8.4534114402    -2.6726718133     0.7796930163
   18      C       8.8457793296    -0.1722279426     0.2262782633
   19      C      10.1123216380    -2.1362576755     0.3473600099
   20      S       8.8048967391     1.5431091531    -0.0669320054
   21      C      10.0339698629    -0.8456127718    -0.0528670904
   22      C      11.1771307828    -3.0688462411     0.0653067306
   23      C      10.4449659705     1.2594509474    -0.7161068190
   24      C      11.0060070208    -0.0324492838    -0.5694925887
   25      N      12.3852722542    -2.5619607654    -0.0171511361
   26      S      11.0489344811    -4.7507206169    -0.2372594474
   27      C      13.3136746890    -3.5440735127    -0.3030208106
   28      C      12.7666424679    -4.8310102331    -0.6013773537
   29      C      -1.2689410050     3.0131060853     2.2372500892
   30      H      -0.8189332828     0.5102970020     1.1856029322
   31      H       1.4077459364    -0.5296000983     0.7448902414
   32      H       3.2323361318     2.8203040536     2.6145583383
   33      H       4.9821278856     2.3403053259     1.3888487318
   34      H      10.9674760692     2.1084424506    -1.1362658653
   35      H      12.0543924660    -0.2466855450    -0.7439855184
   36      H      14.3777070704    -3.3504547752    -0.2760231114
   37      H      13.2541218135    -5.7509740580    -0.8932753641
   38      H      -2.0499872267     2.3167119566     2.5672198106
   39      C      -1.6335877341     3.6874084337     0.9593396440
   40      H      -1.2158446945     3.6549833191     3.1254867685
   41      H      -2.6131834675     4.1499399477     1.1299028216
   42      H      -1.7503280394     2.9308044364     0.1736125334
   43      C      -0.6281717415     4.7268312790     0.4308163895
   44      H       0.4152970108     4.3878915470     0.4503566283
   45      C      -0.6912017959     6.0241073011     1.3524161588
   46      H      -0.8937239554     4.9600583533    -0.6084565070
   47      H      -0.4446431180     5.7674470644     2.3894235557
   48      H      -1.7334180867     6.3585504704     1.4284751474
   49      C       0.2491710127     7.1358665960     0.8906897776
   50      H       1.3017155526     6.8613037715     1.0338513894
   51      C       0.0395270757     8.4240693569     1.7607915341
   52      H       0.0184213015     7.4131237449    -0.1453990429
   53      H       0.4434227380     8.3252813571     2.7749203351
   54      H      -1.0314929831     8.6628258326     1.7946202062
   55      H       0.4997877526     9.3402582728     1.3700691523
   56      C      -0.5993465318     1.3100357547    -2.8974420818
   57      C      -1.6069248582     1.2780400355    -3.8273755149
   58      N      -0.8349780427     0.9903575835    -1.5840249135
   59      C      -2.8838264399     0.8929377849    -3.4883598705
   60      C      -2.1066991652     0.7198124801    -1.2683292789
   61      C      -3.1499197741     0.5759031255    -2.1693669356
   62      C      -4.5205927908     0.2169918640    -1.7454634236
   63      C      -5.5010796000    -0.3044775064    -2.6902492792
   64      C      -5.0659966893     0.4720959160    -0.4838194524
   65      N      -6.6923238998    -0.6546142203    -2.3690168090
   66      N      -4.3666567389     0.9430655890     0.6098698092
   67      C      -6.3754966090     0.1368111021    -0.1488746003
   68      C      -7.2197139268    -0.4540239612    -1.0975368416
   69      S      -5.4155356860     1.1218478487     1.8327728544
   70      N      -6.7722637056     0.5600858798     1.0620475003
   71      C      -8.5727490237    -0.9479643191    -0.7799444152
   72      S      -9.3272381934    -0.9148346348     0.8272436625
   73      C      -9.4904616830    -1.5066350957    -1.6389021781
   74      C     -10.8180066751    -1.6363799977     0.3015559004
   75      S      -9.2411139374    -2.0476090673    -3.2735369580
   76      C     -10.7172934520    -1.9860159879    -1.0252257399
   77      C     -11.7923646231    -2.0099982556     1.2671531179
   78      C     -10.8130742317    -2.9148320701    -3.0926223462
   79      C     -11.5146500897    -2.6946909957    -1.9419689567
   80      N     -12.8530845451    -2.7965235298     0.9632892665
   81      S     -11.7809728051    -1.4424460507     2.8871428466
   82      C     -13.6043333284    -3.0974022289     2.1005263896
   83      C     -13.0431527996    -2.6263699217     3.2104011481
   84      C       0.7727717270     1.6798316443    -3.4694416307
   85      H      -1.4295141353     1.3474303437    -4.8963191152
   86      H      -3.5931631474     0.8157688569    -4.3066675095
   87      H      -2.3334658982     0.4916898399    -0.2280567618
   88      H      -5.1154209274    -0.5970722120    -3.6660175541
   89      H     -11.0481985615    -3.5584107920    -3.9299973985
   90      H     -12.4519399133    -3.1454189189    -1.6336799269
   91      H     -14.5141616852    -3.6817130685     2.0683518056
   92      H     -13.5179124358    -2.6041412446     4.1821409146
   93      H       1.1409129260     0.8867020760    -4.1323281560
   94      C       1.7651825301     2.0274614916    -2.3308217261
   95      H       0.7770970805     2.5709319127    -4.1087933360
   96      H       1.8511379904     1.0941571457    -1.7611133298
   97      H       1.4905315551     2.7785192793    -1.5791402500
   98      C       3.1582013987     2.4700474387    -2.8055701975
   99      H       3.4030979347     1.7791411295    -3.6209892056
  100      C       4.3719129262     2.4815305102    -1.7986216054
  101      H       3.0556382823     3.4862717045    -3.2047368903
  102      H       4.7186978377     1.4874278808    -1.4903908681
  103      H       4.1398682945     2.8805025200    -0.8027387688
  104      C       5.6662625752     3.0572920373    -2.4259402247
  105      H       5.4907948786     4.0258770505    -2.9102739521
  106      C       6.4500303754     2.0380160442    -3.2626925688
  107      H       6.3351402642     3.2858894579    -1.5873229959
  108      H       6.8531770488     1.2127502727    -2.6622042957
  109      H       7.2327198823     2.5840064477    -3.8039961944
  110      H       5.8404180934     1.5646147502    -4.0422193998
 ----------------------------------------------------------------

   10   -5663.5180759300      3.38E-06 Convergence criterion met
 Total energy in the final basis set = -5663.5180759300

                    Orbital Energies (a.u.)
 --------------------------------------------------------------

 Alpha MOs
 -- Occupied --
-88.996 -88.985 -88.927 -88.926 -88.922 -88.918 -88.914 -88.914
-14.387 -14.387 -14.384 -14.378 -14.354 -14.347 -14.343 -14.341
-14.339 -14.321 -10.270 -10.270 -10.266 -10.259 -10.258 -10.255
-10.254 -10.252 -10.247 -10.245 -10.241 -10.241 -10.237 -10.237
-10.236 -10.236 -10.235 -10.234 -10.230 -10.229 -10.228 -10.226
-10.224 -10.224 -10.224 -10.224 -10.221 -10.215 -10.215 -10.211
-10.210 -10.206 -10.200 -10.199 -10.198 -10.194 -10.194 -10.191
-10.188 -10.173 -10.171 -10.171 -10.170 -10.170 -10.170 -10.168
-10.167 -10.164 -10.164 -10.163  -8.051  -8.041  -7.988  -7.988
 -7.982  -7.977  -7.973  -7.973  -6.016  -6.010  -6.009  -6.007
 -6.001  -5.999  -5.952  -5.952  -5.949  -5.948  -5.946  -5.946
 -5.944  -5.942  -5.941  -5.939  -5.938  -5.937  -5.937  -5.934
 -5.934  -5.933  -5.929  -5.929  -1.043  -1.037  -0.970  -0.965
 -0.963  -0.957  -0.946  -0.932  -0.915  -0.913  -0.907  -0.901
 -0.848  -0.840  -0.839  -0.831  -0.819  -0.807  -0.807  -0.805
 -0.802  -0.801  -0.797  -0.790  -0.784  -0.769  -0.769  -0.762
 -0.756  -0.748  -0.745  -0.737  -0.720  -0.713  -0.713  -0.703
 -0.697  -0.687  -0.684  -0.672  -0.659  -0.649  -0.648  -0.643
 -0.638  -0.633  -0.627  -0.624  -0.616  -0.605  -0.599  -0.592
 -0.590  -0.588  -0.585  -0.577  -0.577  -0.570  -0.560  -0.556
 -0.556  -0.553  -0.542  -0.538  -0.528  -0.524  -0.517  -0.512
 -0.510  -0.503  -0.498  -0.495  -0.490  -0.483  -0.481  -0.474
 -0.473  -0.472  -0.469  -0.463  -0.461  -0.457  -0.454  -0.448
 -0.443  -0.442  -0.438  -0.436  -0.434  -0.433  -0.432  -0.430
 -0.427  -0.426  -0.422  -0.420  -0.416  -0.414  -0.413  -0.413
 -0.411  -0.408  -0.402  -0.401  -0.398  -0.398  -0.396  -0.394
 -0.393  -0.391  -0.389  -0.388  -0.385  -0.384  -0.384  -0.381
 -0.380  -0.378  -0.370  -0.369  -0.366  -0.364  -0.359  -0.354
 -0.353  -0.351  -0.350  -0.347  -0.345  -0.339  -0.339  -0.338
 -0.334  -0.332  -0.332  -0.325  -0.323  -0.322  -0.314  -0.311
 -0.311  -0.310  -0.309  -0.308  -0.306  -0.303  -0.302  -0.296
 -0.294  -0.293  -0.289  -0.285  -0.285  -0.283  -0.279  -0.278
 -0.275  -0.273  -0.264  -0.261  -0.259  -0.254  -0.250  -0.246
 -0.243  -0.238  -0.234  -0.225  -0.198  -0.191

          Ground-State Mulliken Net Atomic Charges

     Atom                 Charge (a.u.)
  ----------------------------------------
      1 C                     0.253838
      2 C                    -0.066155
      3 N                    -0.470170
      4 C                    -0.090932
      5 C                     0.048174
      6 C                     0.075472
      7 C                     0.039695
      8 C                     0.056302
      9 C                     0.232366
     10 N                    -0.550644
     11 N                    -0.550399
     12 C                     0.189425
     13 C                     0.334381
     14 S                     0.598025
     15 N                    -0.553304
     16 C                    -0.224621
     17 S                     0.301608
     18 C                    -0.100173
     19 C                    -0.217919
     20 S                     0.307232
     21 C                     0.157654
     22 C                     0.047135
     23 C                    -0.317444
     24 C                    -0.061247
     25 N                    -0.429304
     26 S                     0.281419
     27 C                     0.111972
     28 C                    -0.316590
     29 C                    -0.219300
     30 H                     0.083793
     31 H                     0.101007
     32 H                     0.092246
     33 H                     0.120633
     34 H                     0.113628
     35 H                     0.135548
     36 H                     0.116262
     37 H                     0.140762
     38 H                     0.084383
     39 C                    -0.177323
     40 H                     0.105536
     41 H                     0.085761
     42 H                     0.110951
     43 C                    -0.177211
     44 H                     0.111563
     45 C                    -0.170162
     46 H                     0.083052
     47 H                     0.106255
     48 H                     0.079483
     49 C                    -0.173483
     50 H                     0.098664
     51 C                    -0.326162
     52 H                     0.090130
     53 H                     0.102488
     54 H                     0.096722
     55 H                     0.091883
     56 C                     0.286052
     57 C                    -0.114054
     58 N                    -0.507064
     59 C                    -0.077491
     60 C                     0.078675
     61 C                     0.063606
     62 C                     0.002198
     63 C                     0.083465
     64 C                     0.235808
     65 N                    -0.514474
     66 N                    -0.564050
     67 C                     0.202169
     68 C                     0.299798
     69 S                     0.622901
     70 N                    -0.569994
     71 C                    -0.210746
     72 S                     0.325048
     73 C                    -0.132237
     74 C                    -0.236643
     75 S                     0.285555
     76 C                     0.156727
     77 C                     0.072749
     78 C                    -0.314038
     79 C                    -0.041329
     80 N                    -0.462294
     81 S                     0.265846
     82 C                     0.130478
     83 C                    -0.294445
     84 C                    -0.252179
     85 H                     0.087452
     86 H                     0.099458
     87 H                     0.129546
     88 H                     0.108724
     89 H                     0.127490
     90 H                     0.134927
     91 H                     0.122220
     92 H                     0.122743
     93 H                     0.119768
     94 C                    -0.183015
     95 H                     0.116425
     96 H                     0.106627
     97 H                     0.112149
     98 C                    -0.178219
     99 H                     0.085597
    100 C                    -0.185428
    101 H                     0.087611
    102 H                     0.094638
    103 H                     0.080023
    104 C                    -0.182901
    105 H                     0.086637
    106 C                    -0.318708
    107 H                     0.099819
    108 H                     0.121281
    109 H                     0.096244
    110 H                     0.095952
  ----------------------------------------
  Sum of atomic charges =     0.000000

                    Cartesian Multipole Moments
 -----------------------------------------------------------------
    Charge (ESU x 10^10)
                 0.0000
    Dipole Moment (Debye)
         X      -1.5561      Y      -3.2141      Z      -2.0316
       Tot       4.1084
    Quadrupole Moments (Debye-Ang)
        XX    -386.2097     XY      -7.7460     YY    -437.7088
        XZ     -27.6953     YZ      -4.8395     ZZ    -430.0032

 Total job time:  97.82s(wall), 1177.99s(cpu)
        *  Thank you very much for using Q-Chem.  Have a nice day.  *
