 Q-Chem 4.4, Q-Chem, Inc., Pleasanton, CA (2016)
 Q-Chem 4.4.2 for Intel X86 Linux

User input:
--------------------------------------------------------------
$comment
SP
$end

$rem
MEM_STATIC 5000
MEM_TOTAL 20000
JOBTYPE SP
EXCHANGE B3LYP
BASIS 6-31g(d,p)
$end

$molecule
0 1
C          14.923000     18.372000     15.135000
C          13.802000     19.062000     14.825000
N          15.753000     17.959000     14.178000
C          13.388000     19.313000     13.499000
C          15.400000     18.074000     12.940000
C          14.203000     18.764000     12.500000
C          13.809000     18.917000     11.091000
C          12.518000     18.559000     10.659000
C          14.677000     19.365000     10.128000
N          12.053000     18.717000      9.386000
N          15.815000     20.008000     10.334000
C          14.270000     19.467000      8.752000
C          12.929000     19.072000      8.387000
S          16.312000     20.628000      8.976000
N          15.115000     20.134000      7.952000
C          12.473000     18.890000      7.023000
S          13.043000     19.682000      5.613000
C          11.451000     18.083000      6.610000
C          11.926000     18.867000      4.523000
S          10.509000     16.970000      7.616000
C          11.177000     18.013000      5.278000
C          12.055000     18.851000      3.153000
C           9.705000     16.433000      6.109000
C          10.268000     16.949000      4.969000
N          11.189000     18.179000      2.391000
S          13.493000     19.288000      2.344000
C          11.619000     18.148000      1.064000
C          12.779000     18.915000      0.819000
C          15.299000     18.207000     16.580000
H          13.144000     19.419000     15.612000
H          12.417000     19.692000     13.195000
H          16.132000     17.831000     12.172000
H          11.737000     18.239000     11.347000
H           9.039000     15.581000      6.156000
H           9.973000     16.682000      3.961000
H          11.041000     17.810000      0.214000
H          13.215000     19.242000     -0.116000
H          16.177000     18.837000     16.765000
C          15.601000     16.738000     16.986000
H          14.450000     18.485000     17.218000
H          16.362000     16.356000     16.295000
H          14.688000     16.135000     16.907000
C          16.092000     16.701000     18.495000
H          16.948000     17.361000     18.681000
C          16.294000     15.233000     18.971000
H          15.266000     17.053000     19.126000
H          16.743000     14.622000     18.178000
H          15.269000     14.894000     19.170000
C          17.044000     15.009000     20.326000
H          18.088000     15.301000     20.160000
C          17.053000     13.563000     20.776000
H          16.577000     15.499000     21.189000
H          17.630000     13.035000     20.007000
H          16.062000     13.106000     20.892000
H          17.651000     13.471000     21.690000
C          26.601000     25.159000     -2.806000
C          26.070000     23.890000     -3.027000
N          25.989000     26.214000     -2.308000
C          24.787000     23.652000     -2.486000
C          24.701000     26.041000     -1.996000
C          24.041000     24.772000     -2.011000
C          22.631000     24.633000     -1.626000
C          22.195000     23.426000     -1.090000
C          21.623000     25.558000     -1.829000
N          20.951000     23.201000     -0.616000
N          21.831000     26.790000     -2.364000
C          20.304000     25.277000     -1.604000
C          20.004000     24.066000     -0.919000
S          20.325000     27.402000     -2.650000
N          19.431000     26.244000     -1.968000
C          18.563000     23.692000     -0.735000
S          17.096000     24.481000     -1.522000
C          18.103000     22.658000     -0.061000
C          15.920000     23.477000     -0.652000
S          19.048000     21.480000      0.863000
C          16.708000     22.501000     -0.093000
C          14.633000     23.152000     -1.053000
C          17.436000     20.676000      1.149000
C          16.351000     21.311000      0.555000
N          13.772000     22.771000     -0.149000
S          14.350000     22.698000     -2.696000
C          12.762000     22.072000     -0.776000
C          12.983000     21.795000     -2.098000
C          27.959000     25.597000     -3.231000
H          26.677000     23.114000     -3.485000
H          24.350000     22.659000     -2.542000
H          24.246000     26.987000     -1.706000
H          22.870000     22.576000     -1.000000
H          17.460000     19.788000      1.766000
H          15.332000     20.958000      0.662000
H          11.985000     21.662000     -0.145000
H          12.330000     21.240000     -2.759000
H          28.214000     25.082000     -4.165000
C          28.968000     25.241000     -2.157000
H          28.012000     26.661000     -3.494000
H          29.121000     24.156000     -2.123000
H          28.500000     25.459000     -1.189000
C          30.263000     26.097000     -2.275000
H          29.937000     27.145000     -2.288000
C          31.101000     25.780000     -3.614000
H          30.970000     25.959000     -1.448000
H          30.607000     26.118000     -4.534000
H          31.115000     24.702000     -3.819000
C          32.515000     26.379000     -3.577000
H          32.322000     27.419000     -3.290000
C          33.221000     26.307000     -4.904000
H          33.100000     26.074000     -2.700000
H          33.813000     25.388000     -4.991000
H          33.986000     27.093000     -4.932000
H          32.700000     26.432000     -5.861000
$end

--------------------------------------------------------------

             Standard Nuclear Orientation (Angstroms)
    I     Atom           X                Y                Z
 ----------------------------------------------------------------
    1      C      10.9360618438    -4.1796012328    -1.2536792920
    2      C      11.0225209431    -3.1065198360    -2.0721303535
    3      N       9.9295620123    -4.2945532140    -0.3881955364
    4      C      10.1316330739    -2.0131037561    -2.0135378564
    5      C       9.1257243797    -3.2973834859    -0.2150609245
    6      C       9.1527133048    -2.0873939472    -1.0136258337
    7      C       8.2253701814    -0.9595197506    -0.8351306567
    8      C       8.7066253281     0.3553603752    -0.6903800490
    9      C       6.8665931388    -1.1289135576    -0.7543365558
   10      N       7.9182298207     1.4628680814    -0.5738587867
   11      N       6.1843387028    -2.1976031040    -1.1329663723
   12      C       5.9906376505    -0.0078095832    -0.5415999557
   13      C       6.5632201251     1.3105451621    -0.3945588895
   14      S       4.6525575508    -1.8418766743    -1.1847177925
   15      N       4.6848425260    -0.2590053570    -0.7168534179
   16      C       5.8301604173     2.4736466002     0.0651959467
   17      S       4.1550742798     2.7942623797    -0.1124440090
   18      C       6.3563321862     3.5717246682     0.6846068169
   19      C       4.2174373756     4.3597212313     0.6909633773
   20      S       8.0397916711     3.7975895063     1.1877153913
   21      C       5.5099485219     4.5641692208     1.0756164111
   22      C       3.1109438961     5.0429555004     1.1411412456
   23      C       7.5146316769     5.3384594738     1.9332090020
   24      C       6.1542819307     5.5180653830     1.9292993558
   25      N       3.2379496101     6.2101033224     1.7766091914
   26      S       1.5760326426     4.3194218199     1.3250990044
   27      C       2.0127078312     6.6230467533     2.3010615785
   28      C       0.9276707069     5.7919751586     1.9461975997
   29      C      11.9048435541    -5.3131003727    -1.4360736381
   30      H      11.8307836629    -3.0326029479    -2.7939542029
   31      H      10.2627188136    -1.0563826826    -2.5099241136
   32      H       8.2498856454    -3.4462675990     0.4137769182
   33      H       9.7614078459     0.6078658960    -0.7872294273
   34      H       8.2228756337     5.8823241921     2.5449856490
   35      H       5.6410653640     6.3474140134     2.4017055422
   36      H       1.7949263920     7.5950173808     2.7237580937
   37      H      -0.1379620377     5.9633358310     2.0256480463
   38      H      11.3473616023    -6.1567942374    -1.8596341839
   39      C      12.6161532544    -5.7477289610    -0.1249147993
   40      H      12.7293065348    -4.9948879181    -2.0873267589
   41      H      11.8368342724    -5.9602825730     0.6167110406
   42      H      13.2625094100    -4.9372523273     0.2339310537
   43      C      13.5249375897    -7.0160315883    -0.4165489494
   44      H      12.9682898062    -7.8432542339    -0.8734711964
   45      C      14.3415177250    -7.4092287020     0.8487561175
   46      H      14.3038660581    -6.7148971970    -1.1285387804
   47      H      13.7345912378    -7.3009527885     1.7563284649
   48      H      15.1579559330    -6.6753735555     0.8544373585
   49      C      15.0686974530    -8.7947972930     0.8382526494
   50      H      14.2854045822    -9.5617022869     0.8708871257
   51      C      15.9579026267    -9.0159749649     2.0440269220
   52      H      15.7845057386    -8.9248614544     0.0174848308
   53      H      15.2708049841    -9.0287131381     2.8989003445
   54      H      16.7381863917    -8.2584811586     2.1914934585
   55      H      16.3777932573   -10.0277104420     2.0046926787
   56      C     -11.4370769261    -3.6144441320     0.6015277141
   57      C     -10.8450445569    -3.0137413590     1.7104987923
   58      N     -11.1391086927    -3.4336152792    -0.6689402540
   59      C      -9.6713506644    -2.2689152570     1.4593201221
   60      C     -10.1622590459    -2.5549826430    -0.9138615843
   61      C      -9.3456679433    -1.9673562666     0.1030259282
   62      C      -8.2623301927    -1.0320650543    -0.2244731807
   63      C      -7.1660181099    -0.9464507627     0.6270026029
   64      C      -8.2427611214    -0.1202255834    -1.2642153750
   65      N      -6.0687657625    -0.1953605089     0.3930416728
   66      N      -9.2287052877    -0.0208402808    -2.1944570977
   67      C      -7.2749644036     0.8371625365    -1.3911976606
   68      C      -6.1345122752     0.7260219445    -0.5469449072
   69      S      -8.8930831085     1.3555415605    -3.0413967529
   70      N      -7.4647504444     1.7299764548    -2.3894854779
   71      C      -5.0988409895     1.8096120112    -0.6055158510
   72      S      -5.2332100487     3.4368305691    -1.4587940709
   73      C      -3.9505816952     1.8300580688     0.0395535652
   74      C      -3.5727513978     3.9287983172    -1.0731299640
   75      S      -3.2908411870     0.5627988902     1.0851546537
   76      C      -3.1863605808     2.9935538315    -0.1446791636
   77      C      -3.0825014594     5.2215460006    -0.9670478022
   78      C      -1.9242773790     1.7408747850     1.3523559722
   79      C      -2.0523512711     2.9496336721     0.6772374410
   80      N      -1.7979052288     5.4170734380    -1.0906582609
   81      S      -4.0152309288     6.4122356811    -0.1316270570
   82      C      -1.4823893810     6.6250934152    -0.5050240025
   83      C      -2.5009491038     7.2136519182     0.1945394182
   84      C     -12.6376135409    -4.4935400847     0.6518779117
   85      H     -11.2161197320    -3.2221913967     2.7101191184
   86      H      -9.1076442212    -1.8485706433     2.2873898364
   87      H     -10.0635003950    -2.3794151769    -1.9841250069
   88      H      -7.1263697594    -1.5234428475     1.5498964985
   89      H      -1.1279748068     1.3939693346     1.9968463306
   90      H      -1.3039047999     3.7319494905     0.7244480329
   91      H      -0.4389130429     6.9099271733    -0.5009176709
   92      H      -2.4527271593     8.1449531121     0.7438187008
   93      H     -13.2873043666    -4.1485732464     1.4652079255
   94      C     -12.2098705009    -5.9250246253     0.9091344022
   95      H     -13.2710926748    -4.4187146106    -0.2409710875
   96      H     -11.8507313786    -6.0358224682     1.9389561969
   97      H     -11.3098639001    -6.1062014612     0.3085221540
   98      C     -13.3024410266    -6.9422754898     0.4673478870
   99      H     -13.5410822318    -6.7010057131    -0.5764855623
  100      C     -14.6411064628    -6.8469903462     1.3587229996
  101      H     -12.9883577832    -7.9916157688     0.5226533589
  102      H     -15.2135821679    -5.9244736775     1.1977429916
  103      H     -14.3943441705    -6.7068970055     2.4188113106
  104      C     -15.5797417950    -8.0426679095     1.1376237505
  105      H     -15.6559530425    -8.0824479192     0.0449996630
  106      C     -16.9335750174    -7.8540331484     1.7669897274
  107      H     -15.1001819691    -9.0158529762     1.3028877794
  108      H     -16.9593229317    -8.2592056771     2.7856978637
  109      H     -17.6539176978    -8.4876886179     1.2346438167
  110      H     -17.4390668750    -6.8815232752     1.8072082376
 ----------------------------------------------------------------

    9   -5663.4806913410      8.72E-06 Convergence criterion met
 Total energy in the final basis set = -5663.4806913410

                    Orbital Energies (a.u.)
 --------------------------------------------------------------

 Alpha MOs
 -- Occupied --
-88.994 -88.988 -88.927 -88.922 -88.922 -88.916 -88.908 -88.903
-14.390 -14.386 -14.383 -14.378 -14.356 -14.354 -14.344 -14.343
-14.327 -14.326 -10.268 -10.268 -10.264 -10.262 -10.258 -10.254
-10.254 -10.253 -10.243 -10.243 -10.240 -10.238 -10.236 -10.233
-10.232 -10.231 -10.230 -10.230 -10.227 -10.227 -10.226 -10.225
-10.224 -10.223 -10.223 -10.223 -10.222 -10.222 -10.222 -10.220
-10.213 -10.211 -10.207 -10.207 -10.203 -10.197 -10.194 -10.193
-10.184 -10.183 -10.181 -10.180 -10.180 -10.178 -10.177 -10.177
-10.176 -10.175 -10.172 -10.168  -8.049  -8.044  -7.989  -7.985
 -7.982  -7.975  -7.967  -7.962  -6.014  -6.009  -6.008  -6.007
 -6.003  -6.002  -5.953  -5.950  -5.948  -5.946  -5.946  -5.945
 -5.942  -5.942  -5.940  -5.939  -5.936  -5.932  -5.931  -5.928
 -5.927  -5.923  -5.923  -5.918  -1.049  -1.044  -0.981  -0.972
 -0.968  -0.956  -0.952  -0.951  -0.922  -0.915  -0.913  -0.906
 -0.845  -0.843  -0.841  -0.835  -0.818  -0.812  -0.810  -0.807
 -0.807  -0.805  -0.805  -0.802  -0.786  -0.786  -0.775  -0.769
 -0.752  -0.751  -0.743  -0.739  -0.724  -0.717  -0.711  -0.708
 -0.695  -0.693  -0.680  -0.677  -0.660  -0.655  -0.654  -0.646
 -0.640  -0.638  -0.632  -0.630  -0.616  -0.610  -0.599  -0.596
 -0.594  -0.592  -0.588  -0.581  -0.578  -0.577  -0.570  -0.565
 -0.556  -0.553  -0.549  -0.541  -0.529  -0.528  -0.518  -0.514
 -0.511  -0.509  -0.499  -0.497  -0.495  -0.487  -0.484  -0.481
 -0.476  -0.475  -0.473  -0.472  -0.469  -0.459  -0.452  -0.451
 -0.450  -0.446  -0.443  -0.439  -0.437  -0.435  -0.432  -0.431
 -0.429  -0.427  -0.426  -0.422  -0.422  -0.421  -0.418  -0.416
 -0.415  -0.413  -0.410  -0.408  -0.403  -0.400  -0.398  -0.398
 -0.396  -0.395  -0.394  -0.392  -0.390  -0.388  -0.387  -0.384
 -0.382  -0.381  -0.372  -0.369  -0.368  -0.364  -0.357  -0.354
 -0.354  -0.352  -0.351  -0.351  -0.350  -0.344  -0.339  -0.338
 -0.335  -0.334  -0.332  -0.331  -0.328  -0.324  -0.322  -0.317
 -0.315  -0.310  -0.308  -0.307  -0.305  -0.305  -0.303  -0.302
 -0.297  -0.297  -0.293  -0.292  -0.290  -0.288  -0.285  -0.281
 -0.279  -0.276  -0.272  -0.266  -0.257  -0.254  -0.249  -0.248
 -0.245  -0.244  -0.236  -0.231  -0.200  -0.196

          Ground-State Mulliken Net Atomic Charges

     Atom                 Charge (a.u.)
  ----------------------------------------
      1 C                     0.298151
      2 C                    -0.131291
      3 N                    -0.470406
      4 C                    -0.069244
      5 C                     0.096690
      6 C                     0.019305
      7 C                     0.034554
      8 C                     0.049341
      9 C                     0.210777
     10 N                    -0.503741
     11 N                    -0.514020
     12 C                     0.180596
     13 C                     0.284385
     14 S                     0.604539
     15 N                    -0.548828
     16 C                    -0.206993
     17 S                     0.317707
     18 C                    -0.125352
     19 C                    -0.246893
     20 S                     0.264683
     21 C                     0.195214
     22 C                     0.056796
     23 C                    -0.302209
     24 C                    -0.055610
     25 N                    -0.450970
     26 S                     0.288477
     27 C                     0.099982
     28 C                    -0.316113
     29 C                    -0.224421
     30 H                     0.083269
     31 H                     0.102594
     32 H                     0.102764
     33 H                     0.115719
     34 H                     0.123387
     35 H                     0.129382
     36 H                     0.114980
     37 H                     0.143302
     38 H                     0.119977
     39 C                    -0.185255
     40 H                     0.095905
     41 H                     0.120538
     42 H                     0.093803
     43 C                    -0.181380
     44 H                     0.091740
     45 C                    -0.171624
     46 H                     0.090422
     47 H                     0.092161
     48 H                     0.088844
     49 C                    -0.180572
     50 H                     0.094206
     51 C                    -0.312816
     52 H                     0.091781
     53 H                     0.098083
     54 H                     0.101389
     55 H                     0.098605
     56 C                     0.262063
     57 C                    -0.117410
     58 N                    -0.464971
     59 C                    -0.076632
     60 C                     0.086209
     61 C                     0.017194
     62 C                     0.074273
     63 C                     0.037523
     64 C                     0.227083
     65 N                    -0.521713
     66 N                    -0.568180
     67 C                     0.207827
     68 C                     0.303778
     69 S                     0.612669
     70 N                    -0.548305
     71 C                    -0.218251
     72 S                     0.284625
     73 C                    -0.076905
     74 C                    -0.214024
     75 S                     0.270076
     76 C                     0.131008
     77 C                     0.038581
     78 C                    -0.308940
     79 C                    -0.053929
     80 N                    -0.397100
     81 S                     0.281320
     82 C                     0.094134
     83 C                    -0.306935
     84 C                    -0.207450
     85 H                     0.098927
     86 H                     0.103997
     87 H                     0.121767
     88 H                     0.111005
     89 H                     0.125544
     90 H                     0.113372
     91 H                     0.123133
     92 H                     0.131922
     93 H                     0.088043
     94 C                    -0.180790
     95 H                     0.118601
     96 H                     0.090401
     97 H                     0.103573
     98 C                    -0.189283
     99 H                     0.102624
    100 C                    -0.171999
    101 H                     0.090803
    102 H                     0.092003
    103 H                     0.084861
    104 C                    -0.175857
    105 H                     0.095516
    106 C                    -0.327271
    107 H                     0.094542
    108 H                     0.104748
    109 H                     0.099696
    110 H                     0.106196
  ----------------------------------------
  Sum of atomic charges =     0.000000

                    Cartesian Multipole Moments
 -----------------------------------------------------------------
    Charge (ESU x 10^10)
                 0.0000
    Dipole Moment (Debye)
         X      -1.5183      Y       1.2477      Z       2.5201
       Tot       3.1957
    Quadrupole Moments (Debye-Ang)
        XX    -407.3414     XY     -10.8889     YY    -428.2549
        XZ     -25.4566     YZ      11.6343     ZZ    -439.5099

 Total job time:  80.18s(wall), 933.34s(cpu)
        *  Thank you very much for using Q-Chem.  Have a nice day.  *
