 Q-Chem 4.4, Q-Chem, Inc., Pleasanton, CA (2016)
 Q-Chem 4.4.2 for Intel X86 Linux

User input:
--------------------------------------------------------------
$comment
SP
$end

$rem
MEM_STATIC 5000
MEM_TOTAL 20000
JOBTYPE SP
EXCHANGE B3LYP
BASIS 6-31g(d,p)
$end

$molecule
0 1
C         -20.806000     -0.023000    -13.332000
C         -19.998000     -0.711000    -14.222000
N         -20.402000      0.289000    -12.046000
C         -18.648000     -0.903000    -13.903000
C         -19.120000      0.048000    -11.739000
C         -18.183000     -0.508000    -12.616000
C         -16.772000     -0.758000    -12.184000
C         -15.988000     -1.642000    -12.921000
C         -16.097000     -0.048000    -11.128000
N         -14.697000     -1.900000    -12.631000
N         -16.636000      0.927000    -10.370000
C         -14.861000     -0.503000    -10.739000
C         -14.139000     -1.413000    -11.527000
S         -15.498000      1.194000     -9.204000
N         -14.423000      0.106000     -9.604000
C         -12.680000     -1.759000    -11.227000
S         -11.844000     -1.300000     -9.757000
C         -11.800000     -2.246000    -12.124000
C         -10.341000     -1.946000    -10.401000
S         -12.011000     -2.690000    -13.799000
C         -10.509000     -2.445000    -11.616000
C          -9.116000     -2.033000     -9.644000
C         -10.344000     -3.238000    -13.903000
C          -9.736000     -3.077000    -12.684000
N          -8.183000     -2.823000    -10.096000
S          -8.754000     -0.982000     -8.255000
C          -7.030000     -2.628000     -9.387000
C          -7.191000     -1.737000     -8.367000
C         -22.243000      0.322000    -13.789000
H         -20.462000     -1.010000    -15.157000
H         -17.948000     -1.328000    -14.616000
H         -18.883000      0.498000    -10.776000
H         -16.318000     -2.156000    -13.822000
H          -9.987000     -3.674000    -14.826000
H          -8.745000     -3.448000    -12.451000
H          -6.180000     -3.261000     -9.607000
H          -6.417000     -1.486000     -7.653000
H         -22.210000      0.723000    -14.810000
C         -23.040000      1.327000    -12.830000
H         -22.749000     -0.651000    -13.794000
H         -22.455000      2.139000    -12.382000
H         -23.378000      0.655000    -12.032000
C         -24.310000      1.821000    -13.492000
H         -24.138000      2.605000    -14.239000
C         -25.170000      2.412000    -12.386000
H         -24.815000      1.008000    -14.030000
H         -24.698000      3.255000    -11.866000
H         -25.420000      1.749000    -11.549000
C         -26.487000      2.970000    -13.007000
H         -26.274000      3.629000    -13.857000
C         -27.317000      3.722000    -12.001000
H         -27.008000      2.120000    -13.467000
H         -26.823000      4.561000    -11.496000
H         -27.608000      3.178000    -11.093000
H         -28.243000      4.046000    -12.491000
C         -15.585000      6.018000     -9.127000
C         -15.068000      5.168000     -8.137000
N         -15.362000      5.758000    -10.431000
C         -14.101000      4.232000     -8.486000
C         -14.529000      4.784000    -10.726000
C         -13.759000      3.977000     -9.838000
C         -12.558000      3.245000    -10.199000
C         -11.436000      3.271000     -9.334000
C         -12.632000      2.366000    -11.320000
N         -10.282000      2.615000     -9.732000
N         -13.707000      2.200000    -12.120000
C         -11.452000      1.721000    -11.685000
C         -10.265000      1.915000    -10.881000
S         -13.087000      1.426000    -13.448000
N         -11.511000      1.181000    -12.913000
C          -8.978000      1.294000    -11.198000
S          -8.779000      0.216000    -12.584000
C          -7.713000      1.672000    -10.747000
C          -7.029000      0.013000    -12.240000
S          -7.270000      2.636000     -9.398000
C          -6.638000      0.974000    -11.327000
C          -6.131000     -0.720000    -13.016000
C          -5.602000      2.372000     -9.921000
C          -5.423000      1.357000    -10.831000
N          -6.635000     -1.223000    -14.167000
S          -4.540000     -1.190000    -12.604000
C          -5.671000     -1.920000    -14.820000
C          -4.434000     -1.956000    -14.143000
C         -16.448000      7.185000     -8.744000
H         -15.354000      5.303000     -7.098000
H         -13.461000      3.712000     -7.779000
H         -14.264000      4.679000    -11.777000
H         -11.406000      3.848000     -8.411000
H          -4.832000      2.984000     -9.470000
H          -4.454000      0.961000    -11.112000
H          -5.876000     -2.399000    -15.768000
H          -3.536000     -2.524000    -14.343000
H         -16.403000      7.412000     -7.671000
C         -17.869000      6.836000     -9.206000
H         -16.202000      8.066000     -9.349000
H         -17.939000      6.662000    -10.287000
H         -18.428000      7.772000     -9.085000
C         -18.568000      5.755000     -8.352000
H         -18.031000      4.841000     -8.633000
C         -20.104000      5.651000     -8.686000
H         -18.373000      5.951000     -7.290000
H         -20.638000      6.386000     -8.071000
H         -20.460000      4.736000     -8.196000
C         -20.511000      5.543000    -10.200000
H         -20.290000      6.445000    -10.785000
C         -22.104000      5.491000    -10.312000
H         -19.904000      4.752000    -10.656000
H         -22.415000      5.494000    -11.364000
H         -22.547000      6.326000     -9.755000
H         -22.475000      4.564000     -9.857000
$end

--------------------------------------------------------------

             Standard Nuclear Orientation (Angstroms)
    I     Atom           X                Y                Z
 ----------------------------------------------------------------
    1      C       6.8843758980     3.3446831300    -0.2292859005
    2      C       5.9437690994     4.2316781000    -0.7260824119
    3      N       6.5549544059     2.3138949430     0.6328702303
    4      C       4.5841022235     3.9522622272    -0.5407239573
    5      C       5.2497942919     2.0943102821     0.8430930971
    6      C       4.2151496970     2.8411763018     0.2704363842
    7      C       2.7814664101     2.5360321072     0.5729000239
    8      C       1.8162571631     3.5050235228     0.3107783991
    9      C       2.2854147184     1.2516350995     0.9961234233
   10      N       0.4984624334     3.3067913601     0.5144105673
   11      N       3.0341004876     0.1490538177     1.1948547395
   12      C       0.9733593467     1.1715302756     1.3937864952
   13      C       0.0626343620     2.2015142552     1.1108713068
   14      S       1.9820877567    -0.9231877352     1.8800235261
   15      N       0.6828153500    -0.0268537921     1.9685993451
   16      C      -1.4393421524     2.0370084115     1.3462462787
   17      S      -2.1550269847     0.7020226590     2.2272032933
   18      C      -2.4020488627     2.7494331560     0.7283265643
   19      C      -3.7628450779     1.2857216554     1.8206599858
   20      S      -2.2880840508     4.0612546986    -0.4177180518
   21      C      -3.7077140604     2.3848363449     1.0842107545
   22      C      -4.9799469256     0.7075180814     2.3360110500
   23      C      -4.0365939935     4.2402053244    -0.4441501124
   24      C      -4.5994691733     3.3293432393     0.4131991710
   25      N      -6.0700143226     1.4161434371     2.2438363499
   26      S      -5.0938242341    -0.9749931738     2.9027154126
   27      C      -7.1497401129     0.6474799899     2.5806801158
   28      C      -6.7904482824    -0.6021930508     2.9922972582
   29      C       8.3661096629     3.5907907167    -0.5990684118
   30      H       6.3315100627     5.0733433782    -1.2919255922
   31      H       3.8093683237     4.5494282185    -1.0120775011
   32      H       5.1181857748     1.1583423269     1.3840932681
   33      H       2.0224471670     4.4778636661    -0.1319006471
   34      H      -4.4789606910     5.0271116832    -1.0396029547
   35      H      -5.6522348720     3.3129288367     0.6689841414
   36      H      -8.1238888097     1.1182432370     2.6123862950
   37      H      -7.4887828716    -1.3453680484     3.3554676377
   38      H       8.4382334577     3.8098273934    -1.6719859727
   39      C       9.3707766980     2.4051217753    -0.2120951441
   40      H       8.6263728968     4.4876563567    -0.0240161769
   41      H       8.9916664788     1.3843859383    -0.3411175949
   42      H       9.5324271616     2.5879934485     0.8570442662
   43      C      10.7274970596     2.6079207648    -0.8550278237
   44      H      10.7532602176     2.3382573498    -1.9175093069
   45      C      11.6936808753     1.6933189017    -0.1187471256
   46      H      11.0294468918     3.6626301572    -0.8119883492
   47      H      11.4310707930     0.6302810016    -0.1881687916
   48      H      11.7716568445     1.8305228266     0.9664868727
   49      C      13.1109078571     1.8307561242    -0.7544142490
   50      H      13.0680323812     1.7110886789    -1.8434465699
   51      C      14.0870872249     0.8328771666    -0.1907198032
   52      H      13.4189270108     2.8765663933    -0.6242371309
   53      H      13.8022880011    -0.2230564869    -0.2736385682
   54      H      14.2325537004     0.8423307190     0.8973202396
   55      H      15.0677794286     1.0142936286    -0.6466615416
   56      C       3.2124808131    -4.8913743498    -0.5743810695
   57      C       2.4996910329    -4.8339240797     0.6333106111
   58      N       2.9454095465    -4.0157222902    -1.5641544826
   59      C       1.3410036639    -4.0684012459     0.6996760525
   60      C       1.9073762879    -3.2222434338    -1.4142603250
   61      C       0.9599523795    -3.1940525280    -0.3492315880
   62      C      -0.3774298795    -2.6344631029    -0.4317807780
   63      C      -1.4685677348    -3.3434609983     0.1290446538
   64      C      -0.5047356084    -1.2939987077    -0.9026379290
   65      N      -2.7419137599    -2.8167746495    -0.0180858674
   66      N       0.5069114287    -0.5149533206    -1.3417729392
   67      C      -1.8010077367    -0.7992620343    -1.0313398845
   68      C      -2.9148207153    -1.6252249343    -0.6187542128
   69      S      -0.2677259942     0.7163910909    -2.1359944469
   70      N      -1.8613808663     0.3191379610    -1.7720162887
   71      C      -4.3097351382    -1.1970036131    -0.7342498958
   72      S      -4.7472034000     0.3964535228    -1.3605061340
   73      C      -5.4525111594    -1.9973133816    -0.7254612758
   74      C      -6.4982239482     0.0344074197    -1.2027257190
   75      S      -5.6653947424    -3.6028394800    -0.1577355255
   76      C      -6.6575257645    -1.3222479025    -0.9927727054
   77      C      -7.5379338808     0.8788447245    -1.5923382113
   78      C      -7.3437361851    -3.4291871829    -0.6854322959
   79      C      -7.7509389897    -2.1412711620    -0.9419945673
   80      N      -7.1579509121     2.0121304666    -2.2272416451
   81      S      -9.1985675318     0.7292467394    -1.2157199430
   82      C      -8.2542789133     2.7476029859    -2.5413420864
   83      C      -9.4702199995     2.1687186025    -2.1216110470
   84      C       4.3247607317    -5.8844552085    -0.7475018098
   85      H       2.8005464755    -5.4514928220     1.4745221489
   86      H       0.5896350908    -4.1513639012     1.4796834020
   87      H       1.6341528193    -2.6185968471    -2.2784424438
   88      H      -1.3685835573    -4.3211670179     0.5979285451
   89      H      -7.9500995052    -4.3241657194    -0.7321435716
   90      H      -8.7838135131    -1.8544179661    -1.1020678718
   91      H      -8.1607751062     3.6929028746    -3.0588700166
   92      H     -10.4757159927     2.5661397652    -2.1137226273
   93      H       4.3256852154    -6.6602620716     0.0290327075
   94      C       5.6260485635    -5.0714417853    -0.7595497300
   95      H       4.3004687063    -6.3248062600    -1.7515948578
   96      H       5.6620731244    -4.3297455812    -1.5672167231
   97      H       6.3904237381    -5.7930475866    -1.0729722245
   98      C       6.0406435343    -4.5141116620     0.6202952410
   99      H       5.3042556876    -3.7194918361     0.7907014367
  100      C       7.5107507941    -3.9482934447     0.6029058865
  101      H       5.8885997663    -5.2878943184     1.3834650079
  102      H       8.1987793798    -4.7781677543     0.8066981718
  103      H       7.6348041871    -3.3963595096     1.5431402653
  104      C       7.8935528196    -2.9601288127    -0.5574829575
  105      H       7.8983609477    -3.4236049237    -1.5523883683
  106      C       9.4294555191    -2.5459949449    -0.4078399252
  107      H       7.1199279779    -2.1848874228    -0.6081918504
  108      H       9.7413817391    -1.9176647382    -1.2512480023
  109      H      10.0533668910    -3.4439473391    -0.3176229775
  110      H       9.5655303516    -1.9623571274     0.5113148703
 ----------------------------------------------------------------

   10   -5663.5082271863      6.37E-06 Convergence criterion met
 Total energy in the final basis set = -5663.5082271863

                    Orbital Energies (a.u.)
 --------------------------------------------------------------

 Alpha MOs
 -- Occupied --
-88.985 -88.983 -88.931 -88.922 -88.916 -88.912 -88.912 -88.894
-14.387 -14.384 -14.379 -14.374 -14.349 -14.341 -14.339 -14.334
-14.329 -14.324 -10.262 -10.260 -10.258 -10.257 -10.253 -10.253
-10.248 -10.246 -10.244 -10.233 -10.232 -10.232 -10.231 -10.230
-10.230 -10.228 -10.226 -10.225 -10.224 -10.224 -10.223 -10.222
-10.222 -10.221 -10.220 -10.215 -10.215 -10.214 -10.212 -10.211
-10.209 -10.207 -10.201 -10.199 -10.198 -10.195 -10.194 -10.188
-10.187 -10.186 -10.182 -10.177 -10.177 -10.173 -10.173 -10.173
-10.172 -10.172 -10.170 -10.166  -8.040  -8.038  -7.994  -7.982
 -7.975  -7.972  -7.970  -7.954  -6.005  -6.003  -6.000  -5.998
 -5.997  -5.995  -5.957  -5.954  -5.951  -5.946  -5.943  -5.939
 -5.939  -5.936  -5.936  -5.934  -5.933  -5.932  -5.931  -5.928
 -5.927  -5.919  -5.915  -5.911  -1.040  -1.027  -0.969  -0.967
 -0.956  -0.948  -0.945  -0.927  -0.914  -0.911  -0.901  -0.898
 -0.844  -0.838  -0.835  -0.825  -0.815  -0.807  -0.806  -0.803
 -0.803  -0.802  -0.798  -0.790  -0.782  -0.776  -0.762  -0.762
 -0.749  -0.745  -0.738  -0.732  -0.721  -0.716  -0.708  -0.702
 -0.691  -0.685  -0.671  -0.669  -0.652  -0.651  -0.644  -0.640
 -0.632  -0.627  -0.623  -0.617  -0.612  -0.605  -0.601  -0.596
 -0.589  -0.587  -0.586  -0.579  -0.578  -0.577  -0.571  -0.557
 -0.545  -0.543  -0.539  -0.536  -0.525  -0.518  -0.515  -0.507
 -0.505  -0.501  -0.498  -0.493  -0.486  -0.478  -0.477  -0.473
 -0.469  -0.467  -0.462  -0.459  -0.457  -0.453  -0.449  -0.447
 -0.442  -0.441  -0.437  -0.436  -0.435  -0.431  -0.429  -0.426
 -0.424  -0.421  -0.421  -0.419  -0.416  -0.416  -0.414  -0.412
 -0.408  -0.404  -0.403  -0.400  -0.399  -0.396  -0.396  -0.394
 -0.393  -0.391  -0.390  -0.388  -0.387  -0.384  -0.382  -0.377
 -0.376  -0.373  -0.371  -0.369  -0.362  -0.361  -0.360  -0.355
 -0.351  -0.350  -0.347  -0.343  -0.342  -0.341  -0.340  -0.335
 -0.334  -0.330  -0.329  -0.327  -0.325  -0.324  -0.318  -0.317
 -0.311  -0.309  -0.307  -0.305  -0.303  -0.298  -0.296  -0.294
 -0.293  -0.292  -0.286  -0.284  -0.283  -0.282  -0.279  -0.278
 -0.275  -0.267  -0.265  -0.264  -0.253  -0.249  -0.245  -0.244
 -0.240  -0.232  -0.228  -0.224  -0.190  -0.187

          Ground-State Mulliken Net Atomic Charges

     Atom                 Charge (a.u.)
  ----------------------------------------
      1 C                     0.267259
      2 C                    -0.114195
      3 N                    -0.490553
      4 C                    -0.077548
      5 C                     0.065675
      6 C                     0.044788
      7 C                     0.043752
      8 C                     0.039358
      9 C                     0.256983
     10 N                    -0.531175
     11 N                    -0.572296
     12 C                     0.191891
     13 C                     0.306844
     14 S                     0.625740
     15 N                    -0.555718
     16 C                    -0.224838
     17 S                     0.304492
     18 C                    -0.118351
     19 C                    -0.278401
     20 S                     0.257580
     21 C                     0.222364
     22 C                     0.084532
     23 C                    -0.295077
     24 C                    -0.056744
     25 N                    -0.435336
     26 S                     0.276073
     27 C                     0.122122
     28 C                    -0.306803
     29 C                    -0.259072
     30 H                     0.088341
     31 H                     0.098501
     32 H                     0.131858
     33 H                     0.110105
     34 H                     0.135158
     35 H                     0.114660
     36 H                     0.113287
     37 H                     0.119816
     38 H                     0.107130
     39 C                    -0.163651
     40 H                     0.118755
     41 H                     0.115187
     42 H                     0.105966
     43 C                    -0.174427
     44 H                     0.091819
     45 C                    -0.177202
     46 H                     0.088078
     47 H                     0.094076
     48 H                     0.092693
     49 C                    -0.171769
     50 H                     0.090897
     51 C                    -0.321398
     52 H                     0.090401
     53 H                     0.101081
     54 H                     0.097311
     55 H                     0.095937
     56 C                     0.280575
     57 C                    -0.117387
     58 N                    -0.471747
     59 C                    -0.102551
     60 C                     0.095412
     61 C                     0.021837
     62 C                     0.003228
     63 C                     0.074328
     64 C                     0.263807
     65 N                    -0.543986
     66 N                    -0.575363
     67 C                     0.230254
     68 C                     0.329783
     69 S                     0.608567
     70 N                    -0.562207
     71 C                    -0.229817
     72 S                     0.385390
     73 C                    -0.119447
     74 C                    -0.212156
     75 S                     0.284455
     76 C                     0.144827
     77 C                     0.044697
     78 C                    -0.317597
     79 C                    -0.074340
     80 N                    -0.430522
     81 S                     0.285692
     82 C                     0.127229
     83 C                    -0.320731
     84 C                    -0.229906
     85 H                     0.089562
     86 H                     0.090075
     87 H                     0.098801
     88 H                     0.124440
     89 H                     0.120729
     90 H                     0.113858
     91 H                     0.114935
     92 H                     0.131032
     93 H                     0.097838
     94 C                    -0.179027
     95 H                     0.118312
     96 H                     0.125639
     97 H                     0.082071
     98 C                    -0.187864
     99 H                     0.099498
    100 C                    -0.177534
    101 H                     0.081785
    102 H                     0.088435
    103 H                     0.091967
    104 C                    -0.181583
    105 H                     0.099058
    106 C                    -0.329795
    107 H                     0.111338
    108 H                     0.102320
    109 H                     0.107316
    110 H                     0.108516
  ----------------------------------------
  Sum of atomic charges =     0.000000

                    Cartesian Multipole Moments
 -----------------------------------------------------------------
    Charge (ESU x 10^10)
                 0.0000
    Dipole Moment (Debye)
         X      -3.5857      Y      -1.2212      Z       0.0309
       Tot       3.7880
    Quadrupole Moments (Debye-Ang)
        XX    -389.8366     XY       5.1310     YY    -417.9128
        XZ      -2.0182     YZ     -23.2683     ZZ    -448.3761

 Total job time:  114.29s(wall), 1342.97s(cpu)
        *  Thank you very much for using Q-Chem.  Have a nice day.  *
