 Q-Chem 4.4, Q-Chem, Inc., Pleasanton, CA (2016)
 Q-Chem 4.4.2 for Intel X86 Linux

User input:
--------------------------------------------------------------
$comment
SP
$end

$rem
MEM_STATIC 5000
MEM_TOTAL 20000
JOBTYPE SP
EXCHANGE B3LYP
BASIS 6-31g(d,p)
$end

$molecule
0 1
C          -2.805000     -9.362000      1.099000
C          -2.341000     -9.176000     -0.232000
N          -3.453000     -8.390000      1.729000
C          -2.760000     -8.054000     -0.884000
C          -3.875000     -7.281000      1.016000
C          -3.561000     -7.028000     -0.318000
C          -4.309000     -5.957000     -0.983000
C          -5.679000     -5.904000     -1.097000
C          -3.567000     -4.980000     -1.598000
N          -6.349000     -4.983000     -1.840000
N          -2.221000     -4.845000     -1.477000
C          -4.206000     -3.960000     -2.275000
C          -5.612000     -3.985000     -2.480000
S          -1.772000     -3.540000     -2.372000
N          -3.308000     -3.118000     -2.899000
C          -6.414000     -2.983000     -3.216000
S          -5.734000     -1.577000     -4.146000
C          -7.766000     -2.903000     -3.258000
C          -7.332000     -0.862000     -4.404000
S          -8.993000     -3.836000     -2.376000
C          -8.309000     -1.725000     -3.919000
C          -7.568000      0.553000     -4.803000
C         -10.204000     -2.646000     -2.900000
C          -9.715000     -1.600000     -3.745000
N          -8.706000      0.836000     -5.463000
S          -6.209000      1.541000     -5.170000
C          -8.605000      2.096000     -6.119000
C          -7.321000      2.610000     -6.082000
C          -2.606000    -10.656000      1.786000
H          -1.758000     -9.966000     -0.696000
H          -2.575000     -7.919000     -1.946000
H          -4.671000     -6.756000      1.543000
H          -6.307000     -6.682000     -0.666000
H         -11.159000     -2.847000     -2.433000
H         -10.325000     -0.820000     -4.185000
H          -9.460000      2.462000     -6.672000
H          -6.921000      3.596000     -6.281000
H          -1.692000    -11.022000      1.302000
C          -3.764000    -11.722000      1.662000
H          -2.436000    -10.584000      2.868000
H          -3.698000    -12.273000      0.716000
H          -4.744000    -11.233000      1.588000
C          -3.814000    -12.793000      2.779000
H          -2.935000    -13.394000      2.517000
C          -5.066000    -13.555000      2.823000
H          -3.544000    -12.442000      3.782000
H          -4.789000    -14.483000      3.339000
H          -5.332000    -13.733000      1.774000
C          -6.260000    -12.968000      3.627000
H          -5.927000    -12.810000      4.660000
C          -7.432000    -13.989000      3.786000
H          -6.554000    -11.990000      3.225000
H          -7.690000    -14.239000      2.749000
H          -8.284000    -13.392000      4.133000
H          -7.242000    -14.778000      4.524000
C         -15.585000      6.018000     -9.127000
C         -15.068000      5.168000     -8.137000
N         -15.362000      5.758000    -10.431000
C         -14.101000      4.232000     -8.486000
C         -14.529000      4.784000    -10.726000
C         -13.759000      3.977000     -9.838000
C         -12.558000      3.245000    -10.199000
C         -11.436000      3.271000     -9.334000
C         -12.632000      2.366000    -11.320000
N         -10.282000      2.615000     -9.732000
N         -13.707000      2.200000    -12.120000
C         -11.452000      1.721000    -11.685000
C         -10.265000      1.915000    -10.881000
S         -13.087000      1.426000    -13.448000
N         -11.511000      1.181000    -12.913000
C          -8.978000      1.294000    -11.198000
S          -8.779000      0.216000    -12.584000
C          -7.713000      1.672000    -10.747000
C          -7.029000      0.013000    -12.240000
S          -7.270000      2.636000     -9.398000
C          -6.638000      0.974000    -11.327000
C          -6.131000     -0.720000    -13.016000
C          -5.602000      2.372000     -9.921000
C          -5.423000      1.357000    -10.831000
N          -6.635000     -1.223000    -14.167000
S          -4.540000     -1.190000    -12.604000
C          -5.671000     -1.920000    -14.820000
C          -4.434000     -1.956000    -14.143000
C         -16.448000      7.185000     -8.744000
H         -15.354000      5.303000     -7.098000
H         -13.461000      3.712000     -7.779000
H         -14.264000      4.679000    -11.777000
H         -11.406000      3.848000     -8.411000
H          -4.832000      2.984000     -9.470000
H          -4.454000      0.961000    -11.112000
H          -5.876000     -2.399000    -15.768000
H          -3.536000     -2.524000    -14.343000
H         -16.403000      7.412000     -7.671000
C         -17.869000      6.836000     -9.206000
H         -16.202000      8.066000     -9.349000
H         -17.939000      6.662000    -10.287000
H         -18.428000      7.772000     -9.085000
C         -18.568000      5.755000     -8.352000
H         -18.031000      4.841000     -8.633000
C         -20.104000      5.651000     -8.686000
H         -18.373000      5.951000     -7.290000
H         -20.638000      6.386000     -8.071000
H         -20.460000      4.736000     -8.196000
C         -20.511000      5.543000    -10.200000
H         -20.290000      6.445000    -10.785000
C         -22.104000      5.491000    -10.312000
H         -19.904000      4.752000    -10.656000
H         -22.415000      5.494000    -11.364000
H         -22.547000      6.326000     -9.755000
H         -22.475000      4.564000     -9.857000
$end

--------------------------------------------------------------

             Standard Nuclear Orientation (Angstroms)
    I     Atom           X                Y                Z
 ----------------------------------------------------------------
    1      C      12.3834970714    -0.6306649451    -0.1892495952
    2      C      11.7315096525     0.5886467078    -0.5203757023
    3      N      11.7944892320    -1.5159271710     0.6050856970
    4      C      10.4231933646     0.7114532532    -0.1559912305
    5      C      10.4578703445    -1.3560718957     0.9279327823
    6      C       9.6853380770    -0.2478505891     0.5855872971
    7      C       8.2361480052    -0.3678855428     0.7705460647
    8      C       7.4444942190    -1.3358077323     0.1968598107
    9      C       7.6286966898     0.6121400868     1.5147709397
   10      N       6.0861633205    -1.3484362970     0.2598494091
   11      N       8.2914389701     1.5604344249     2.2261727378
   12      C       6.2604201341     0.5819858618     1.6990533043
   13      C       5.4482880126    -0.3556515385     1.0056821752
   14      S       7.1639021495     2.5045454245     2.9630350984
   15      N       5.8133326880     1.6842998414     2.3988823590
   16      C       3.9752666977    -0.4719175514     1.0804780319
   17      S       2.8793222148     0.6724130759     1.9712917643
   18      C       3.2168309004    -1.4723673237     0.5706315897
   19      C       1.4641072474    -0.3644864567     1.7402096251
   20      S       3.7048753210    -2.9939127881    -0.2043871475
   21      C       1.8047138428    -1.4371575903     0.9229662180
   22      C       0.2056646738    -0.2614851779     2.5294086022
   23      C       2.0265998398    -3.5557579863    -0.0465315727
   24      C       1.1145231163    -2.6179995939     0.5331124972
   25      N      -0.9311851886    -0.6949185105     1.9545686795
   26      S       0.0456321560     1.0275366268     3.6565848884
   27      C      -2.0678699872    -0.1714033175     2.6342866439
   28      C      -1.7284074495     0.7905726282     3.5689461891
   29      C      13.7114065395    -0.9465189106    -0.7574913722
   30      H      12.2663553231     1.3198796260    -1.1191440447
   31      H       9.8180454312     1.5431332513    -0.5058459998
   32      H      10.0220529117    -2.2947513113     1.2683944101
   33      H       7.8756257329    -2.1063980883    -0.4401214456
   34      H       1.9424962434    -4.5888236512    -0.3567200914
   35      H       0.0516714150    -2.7838066412     0.6633211145
   36      H      -3.0534903027    -0.4574145015     2.2914452865
   37      H      -2.2747108409     1.2407167904     4.3879210592
   38      H      14.1294066214     0.0567794619    -0.9067438673
   39      C      13.7402162705    -1.7655141959    -2.1069774677
   40      H      14.3743347980    -1.5174701507    -0.0946574522
   41      H      13.5826710807    -1.1112162752    -2.9729721235
   42      H      12.8883687789    -2.4551654459    -2.1680839697
   43      C      15.0467759631    -2.5459256810    -2.3917399718
   44      H      15.7260228881    -1.7171814447    -2.6247477087
   45      C      14.9295228723    -3.5402573719    -3.4630196744
   46      H      15.5353904161    -2.9848261063    -1.5138263468
   47      H      15.9630932590    -3.6796826639    -3.8042847381
   48      H      14.3052449842    -3.0655622752    -4.2296895405
   49      C      14.4124306128    -4.9604188229    -3.0991817322
   50      H      15.0741826237    -5.3740826805    -2.3285271475
   51      C      14.5682862048    -5.9728037076    -4.2790511655
   52      H      13.4038162733    -4.9070039562    -2.6698008218
   53      H      14.0012345930    -5.5010173545    -5.0916415338
   54      H      13.9542149857    -6.8361785174    -3.9958154410
   55      H      15.5964801487    -6.3200396561    -4.4387678199
   56      C      -9.8465982228    -3.4673691698     1.3006659567
   57      C      -8.4688724456    -3.7301443614     1.3527224783
   58      N     -10.3181141124    -2.4565327600     0.5432839405
   59      C      -7.5800057511    -2.7836740761     0.8556349623
   60      C      -9.4413926962    -1.6477079820    -0.0105680586
   61      C      -8.0222871713    -1.6510571044     0.1266226575
   62      C      -7.1532582538    -0.5152558056    -0.1249526796
   63      C      -6.1049750323    -0.2216974469     0.7820813757
   64      C      -7.2715304423     0.1404094716    -1.3862507148
   65      N      -5.3298425395     0.9036062884     0.5511763695
   66      N      -8.1686551199    -0.1618880545    -2.3490406808
   67      C      -6.4713247495     1.2642913722    -1.5817253241
   68      C      -5.5333251662     1.6497140751    -0.5499176279
   69      S      -8.1231578626     1.1579862755    -3.3505004915
   70      N      -6.8615312729     2.0064813718    -2.6305140891
   71      C      -4.6668506050     2.8243187512    -0.6595747733
   72      S      -4.6720191968     3.8562296469    -2.0940831174
   73      C      -4.0110737169     3.5011008770     0.3692267758
   74      C      -3.4595421120     4.9617121864    -1.3661733197
   75      S      -3.6297147924     2.9798926176     1.9592749892
   76      C      -3.3536982809     4.6835732930    -0.0165782548
   77      C      -2.9819826388     6.1359593001    -1.9483671583
   78      C      -2.9189291464     4.5840869132     2.1755928745
   79      C      -2.7004625883     5.2932063481     1.0181007622
   80      N      -3.5763548278     6.4901501720    -3.1115939320
   81      S      -1.6390388395     7.0718200702    -1.4558313009
   82      C      -3.0177379079     7.6354876733    -3.5781377613
   83      C      -1.9798354509     8.1374243022    -2.7653572802
   84      C     -10.8118105279    -4.3528236474     2.0339343757
   85      H      -8.1015072337    -4.6192206948     1.8568336511
   86      H      -6.5152790047    -2.7637589443     1.0696661354
   87      H      -9.8455574277    -0.7663273933    -0.5062192744
   88      H      -5.9289051216    -0.7875753717     1.6956127440
   89      H      -2.6635373644     4.8880698778     3.1821783874
   90      H      -2.1184558013     6.2062359362     0.9692840538
   91      H      -3.3595760792     8.0860358361    -4.5002673713
   92      H      -1.2764825667     8.9409874004    -2.9344994317
   93      H     -10.3168129970    -5.0104594214     2.7601407052
   94      C     -11.5713496909    -5.1407180295     0.9583839573
   95      H     -11.6023079431    -3.7584201996     2.5077490840
   96      H     -12.1176440704    -4.4960272740     0.2586173672
   97      H     -12.3855079648    -5.6288182329     1.5080406652
   98      C     -10.7376545550    -6.2447387712     0.2709476895
   99      H     -10.0409225832    -5.6692688410    -0.3504418171
  100      C     -11.6389887729    -7.1990147335    -0.6000414124
  101      H     -10.1533139385    -6.7815982215     1.0289799939
  102      H     -12.0267484523    -7.9917894184     0.0516922218
  103      H     -10.9484474673    -7.8031511740    -1.2018992581
  104      C     -12.6473533659    -6.5289527141    -1.6019030484
  105      H     -13.4524511378    -5.9661901193    -1.1122237253
  106      C     -13.4829997753    -7.6696762909    -2.3457725261
  107      H     -12.0951350394    -5.7846569409    -2.1876886081
  108      H     -14.2480574777    -7.2242269831    -2.9936117239
  109      H     -13.9224815696    -8.3538920850    -1.6092757511
  110      H     -12.8124856660    -8.2627386970    -2.9803454626
 ----------------------------------------------------------------

   10   -5663.4809915565      3.89E-06 Convergence criterion met
 Total energy in the final basis set = -5663.4809915565

                    Orbital Energies (a.u.)
 --------------------------------------------------------------

 Alpha MOs
 -- Occupied --
-88.991 -88.987 -88.933 -88.926 -88.922 -88.917 -88.914 -88.909
-14.391 -14.387 -14.386 -14.378 -14.354 -14.354 -14.349 -14.340
-14.328 -14.321 -10.273 -10.270 -10.266 -10.261 -10.257 -10.256
-10.255 -10.248 -10.247 -10.245 -10.244 -10.239 -10.239 -10.238
-10.237 -10.233 -10.233 -10.233 -10.229 -10.229 -10.228 -10.228
-10.227 -10.226 -10.225 -10.222 -10.220 -10.215 -10.213 -10.208
-10.207 -10.207 -10.206 -10.204 -10.204 -10.201 -10.197 -10.196
-10.187 -10.185 -10.185 -10.183 -10.180 -10.179 -10.178 -10.176
-10.174 -10.174 -10.173 -10.172  -8.045  -8.042  -7.995  -7.988
 -7.981  -7.975  -7.974  -7.968  -6.010  -6.007  -6.005  -6.003
 -6.002  -5.999  -5.958  -5.955  -5.952  -5.952  -5.948  -5.945
 -5.945  -5.941  -5.939  -5.938  -5.937  -5.936  -5.935  -5.933
 -5.931  -5.930  -5.929  -5.925  -1.030  -1.023  -0.969  -0.956
 -0.952  -0.948  -0.945  -0.931  -0.917  -0.904  -0.901  -0.889
 -0.847  -0.836  -0.836  -0.832  -0.817  -0.809  -0.807  -0.806
 -0.804  -0.799  -0.799  -0.795  -0.785  -0.778  -0.766  -0.764
 -0.751  -0.749  -0.741  -0.740  -0.720  -0.719  -0.712  -0.710
 -0.694  -0.693  -0.674  -0.673  -0.655  -0.653  -0.646  -0.643
 -0.634  -0.631  -0.624  -0.624  -0.614  -0.607  -0.602  -0.598
 -0.597  -0.592  -0.589  -0.582  -0.579  -0.576  -0.561  -0.559
 -0.548  -0.547  -0.541  -0.534  -0.528  -0.521  -0.520  -0.509
 -0.508  -0.506  -0.500  -0.496  -0.491  -0.486  -0.479  -0.477
 -0.469  -0.468  -0.467  -0.466  -0.464  -0.454  -0.451  -0.449
 -0.447  -0.441  -0.438  -0.437  -0.436  -0.433  -0.431  -0.430
 -0.427  -0.426  -0.424  -0.420  -0.420  -0.417  -0.416  -0.412
 -0.412  -0.405  -0.403  -0.402  -0.401  -0.401  -0.397  -0.397
 -0.395  -0.393  -0.391  -0.390  -0.387  -0.385  -0.384  -0.381
 -0.379  -0.378  -0.372  -0.371  -0.365  -0.362  -0.361  -0.356
 -0.353  -0.353  -0.350  -0.349  -0.345  -0.344  -0.343  -0.337
 -0.337  -0.335  -0.331  -0.328  -0.327  -0.325  -0.321  -0.319
 -0.313  -0.311  -0.307  -0.306  -0.304  -0.300  -0.298  -0.297
 -0.296  -0.295  -0.293  -0.289  -0.285  -0.284  -0.281  -0.279
 -0.278  -0.277  -0.266  -0.264  -0.258  -0.252  -0.249  -0.246
 -0.240  -0.240  -0.232  -0.230  -0.195  -0.190

          Ground-State Mulliken Net Atomic Charges

     Atom                 Charge (a.u.)
  ----------------------------------------
      1 C                     0.281994
      2 C                    -0.111682
      3 N                    -0.486789
      4 C                    -0.052151
      5 C                     0.041333
      6 C                     0.053263
      7 C                     0.002828
      8 C                     0.079317
      9 C                     0.246900
     10 N                    -0.531883
     11 N                    -0.552498
     12 C                     0.202408
     13 C                     0.299889
     14 S                     0.609163
     15 N                    -0.563670
     16 C                    -0.229730
     17 S                     0.311682
     18 C                    -0.102111
     19 C                    -0.232215
     20 S                     0.295551
     21 C                     0.139878
     22 C                     0.050046
     23 C                    -0.317887
     24 C                    -0.062064
     25 N                    -0.418496
     26 S                     0.270524
     27 C                     0.127844
     28 C                    -0.310242
     29 C                    -0.225849
     30 H                     0.092326
     31 H                     0.089075
     32 H                     0.101070
     33 H                     0.119951
     34 H                     0.133957
     35 H                     0.130623
     36 H                     0.133365
     37 H                     0.141654
     38 H                     0.092540
     39 C                    -0.184649
     40 H                     0.120448
     41 H                     0.092959
     42 H                     0.104576
     43 C                    -0.174560
     44 H                     0.089985
     45 C                    -0.163958
     46 H                     0.088637
     47 H                     0.088342
     48 H                     0.084260
     49 C                    -0.183498
     50 H                     0.092166
     51 C                    -0.317754
     52 H                     0.098742
     53 H                     0.106443
     54 H                     0.101763
     55 H                     0.110264
     56 C                     0.278415
     57 C                    -0.116917
     58 N                    -0.474181
     59 C                    -0.095824
     60 C                     0.091737
     61 C                     0.043766
     62 C                     0.000139
     63 C                     0.069499
     64 C                     0.247954
     65 N                    -0.549124
     66 N                    -0.551306
     67 C                     0.222377
     68 C                     0.326714
     69 S                     0.597085
     70 N                    -0.559077
     71 C                    -0.224121
     72 S                     0.361435
     73 C                    -0.123452
     74 C                    -0.212336
     75 S                     0.297268
     76 C                     0.141857
     77 C                     0.043511
     78 C                    -0.319589
     79 C                    -0.072909
     80 N                    -0.430737
     81 S                     0.294062
     82 C                     0.128783
     83 C                    -0.320093
     84 C                    -0.228804
     85 H                     0.088474
     86 H                     0.085897
     87 H                     0.095429
     88 H                     0.120885
     89 H                     0.119737
     90 H                     0.116166
     91 H                     0.117595
     92 H                     0.132880
     93 H                     0.097482
     94 C                    -0.178933
     95 H                     0.117435
     96 H                     0.124088
     97 H                     0.081646
     98 C                    -0.187965
     99 H                     0.100543
    100 C                    -0.177077
    101 H                     0.082879
    102 H                     0.089602
    103 H                     0.089770
    104 C                    -0.180078
    105 H                     0.100977
    106 C                    -0.325612
    107 H                     0.103612
    108 H                     0.101593
    109 H                     0.109170
    110 H                     0.103591
  ----------------------------------------
  Sum of atomic charges =     0.000000

                    Cartesian Multipole Moments
 -----------------------------------------------------------------
    Charge (ESU x 10^10)
                 0.0000
    Dipole Moment (Debye)
         X       0.4481      Y       2.4266      Z       1.2692
       Tot       2.7749
    Quadrupole Moments (Debye-Ang)
        XX    -458.8305     XY      26.7678     YY    -404.8377
        XZ     -27.2428     YZ      -1.0544     ZZ    -433.7519

 Total job time:  86.91s(wall), 999.49s(cpu)
        *  Thank you very much for using Q-Chem.  Have a nice day.  *
