 Q-Chem 4.4, Q-Chem, Inc., Pleasanton, CA (2016)
 Q-Chem 4.4.2 for Intel X86 Linux

User input:
--------------------------------------------------------------
$comment
SP
$end

$rem
MEM_STATIC 5000
MEM_TOTAL 20000
JOBTYPE SP
EXCHANGE B3LYP
BASIS 6-31g(d,p)
$end

$molecule
0 1
C         -26.751000     -1.295000     -4.803000
C         -25.966000     -2.361000     -4.299000
N         -26.258000     -0.297000     -5.490000
C         -24.606000     -2.454000     -4.618000
C         -24.910000     -0.309000     -5.667000
C         -24.008000     -1.339000     -5.321000
C         -22.583000     -1.208000     -5.452000
C         -21.950000      0.031000     -5.277000
C         -21.686000     -2.254000     -5.787000
N         -20.654000      0.251000     -5.435000
N         -22.069000     -3.505000     -5.992000
C         -20.328000     -2.052000     -5.904000
C         -19.803000     -0.732000     -5.713000
S         -20.678000     -4.365000     -6.328000
N         -19.589000     -3.162000     -6.164000
C         -18.382000     -0.353000     -5.833000
S         -17.032000     -1.432000     -6.158000
C         -17.955000      0.923000     -5.893000
C         -15.827000     -0.121000     -5.961000
S         -18.780000      2.394000     -6.003000
C         -16.571000      1.054000     -5.965000
C         -14.419000     -0.383000     -6.050000
C         -17.218000      3.309000     -5.958000
C         -16.131000      2.442000     -6.117000
N         -13.675000      0.725000     -6.182000
S         -13.665000     -1.943000     -6.336000
C         -12.337000      0.298000     -6.341000
C         -12.228000     -1.035000     -6.468000
C         -28.344000     -1.462000     -4.805000
H         -26.513000     -3.107000     -3.731000
H         -24.065000     -3.306000     -4.216000
H         -24.627000      0.627000     -6.146000
H         -22.452000      0.972000     -5.055000
H         -17.211000      4.371000     -5.752000
H         -15.098000      2.763000     -6.046000
H         -11.527000      1.009000     -6.436000
H         -11.306000     -1.600000     -6.511000
H         -28.792000     -0.713000     -5.470000
C         -29.060000     -1.237000     -3.481000
H         -28.636000     -2.477000     -5.101000
H         -28.650000     -0.339000     -3.003000
H         -28.881000     -2.012000     -2.725000
C         -30.617000     -1.030000     -3.679000
H         -31.110000     -0.555000     -2.821000
C         -31.346000     -2.349000     -3.905000
H         -30.772000     -0.355000     -4.531000
H         -30.942000     -2.808000     -4.816000
H         -32.394000     -2.065000     -4.064000
C         -31.266000     -3.272000     -2.674000
H         -30.292000     -3.718000     -2.437000
C         -32.122000     -4.529000     -2.839000
H         -31.452000     -2.653000     -1.788000
H         -32.470000     -5.036000     -1.931000
H         -31.690000     -5.288000     -3.504000
H         -33.051000     -4.278000     -3.364000
C         -15.585000      6.018000     -9.127000
C         -15.068000      5.168000     -8.137000
N         -15.362000      5.758000    -10.431000
C         -14.101000      4.232000     -8.486000
C         -14.529000      4.784000    -10.726000
C         -13.759000      3.977000     -9.838000
C         -12.558000      3.245000    -10.199000
C         -11.436000      3.271000     -9.334000
C         -12.632000      2.366000    -11.320000
N         -10.282000      2.615000     -9.732000
N         -13.707000      2.200000    -12.120000
C         -11.452000      1.721000    -11.685000
C         -10.265000      1.915000    -10.881000
S         -13.087000      1.426000    -13.448000
N         -11.511000      1.181000    -12.913000
C          -8.978000      1.294000    -11.198000
S          -8.779000      0.216000    -12.584000
C          -7.713000      1.672000    -10.747000
C          -7.029000      0.013000    -12.240000
S          -7.270000      2.636000     -9.398000
C          -6.638000      0.974000    -11.327000
C          -6.131000     -0.720000    -13.016000
C          -5.602000      2.372000     -9.921000
C          -5.423000      1.357000    -10.831000
N          -6.635000     -1.223000    -14.167000
S          -4.540000     -1.190000    -12.604000
C          -5.671000     -1.920000    -14.820000
C          -4.434000     -1.956000    -14.143000
C         -16.448000      7.185000     -8.744000
H         -15.354000      5.303000     -7.098000
H         -13.461000      3.712000     -7.779000
H         -14.264000      4.679000    -11.777000
H         -11.406000      3.848000     -8.411000
H          -4.832000      2.984000     -9.470000
H          -4.454000      0.961000    -11.112000
H          -5.876000     -2.399000    -15.768000
H          -3.536000     -2.524000    -14.343000
H         -16.403000      7.412000     -7.671000
C         -17.869000      6.836000     -9.206000
H         -16.202000      8.066000     -9.349000
H         -17.939000      6.662000    -10.287000
H         -18.428000      7.772000     -9.085000
C         -18.568000      5.755000     -8.352000
H         -18.031000      4.841000     -8.633000
C         -20.104000      5.651000     -8.686000
H         -18.373000      5.951000     -7.290000
H         -20.638000      6.386000     -8.071000
H         -20.460000      4.736000     -8.196000
C         -20.511000      5.543000    -10.200000
H         -20.290000      6.445000    -10.785000
C         -22.104000      5.491000    -10.312000
H         -19.904000      4.752000    -10.656000
H         -22.415000      5.494000    -11.364000
H         -22.547000      6.326000     -9.755000
H         -22.475000      4.564000     -9.857000
$end

--------------------------------------------------------------

             Standard Nuclear Orientation (Angstroms)
    I     Atom           X                Y                Z
 ----------------------------------------------------------------
    1      C      11.1056726028     0.5409111185    -0.6399897131
    2      C      10.6833723045     1.8089853904    -0.1706848027
    3      N      10.2855576929    -0.4479831751    -0.8860011166
    4      C       9.3200327888     2.1043639353    -0.0520809239
    5      C       8.9734954108    -0.2084029295    -0.6220487080
    6      C       8.3826576983     1.0198433336    -0.2525329238
    7      C       6.9979851682     1.1441104358     0.1110419261
    8      C       6.3219336331     0.0994969400     0.7577040993
    9      C       6.1741915162     2.2682196599    -0.1510505601
   10      N       5.0367288259     0.1083348416     1.0757457555
   11      N       6.6090858432     3.3671983410    -0.7484011965
   12      C       4.8480372899     2.3134886825     0.2203288735
   13      C       4.2680541393     1.1726951707     0.8658640844
   14      S       5.3038701863     4.4063436580    -0.8113781692
   15      N       4.2050348248     3.4821377745    -0.0377953791
   16      C       2.8609325099     1.0585896578     1.2951316607
   17      S       1.6241629784     2.3032912405     1.1790063145
   18      C       2.2889576480    -0.1022489153     1.6684995283
   19      C       0.4161819540     1.3027991827     2.0446577957
   20      S       2.8379297825    -1.7005216570     1.6416697204
   21      C       0.9630952837     0.0244237272     2.0732760500
   22      C      -0.8903478562     1.8106817553     2.3513565855
   23      C       1.2930583127    -2.2764853651     2.3904900920
   24      C       0.3331309035    -1.2581158166     2.3918434658
   25      N      -1.7615539966     0.8604226752     2.7209936259
   26      S      -1.5019270054     3.4122960769     1.9709429826
   27      C      -3.0077488797     1.5020294523     2.9031832444
   28      C      -2.9921796401     2.7882589679     2.5155361988
   29      C      12.6038662152     0.3959876283    -1.1876712644
   30      H      11.4812392359     2.5233975836     0.0064382564
   31      H       9.0624298222     3.1011371577     0.2947228458
   32      H       8.4289789480    -1.1415047241    -0.7578752985
   33      H       6.7520436620    -0.8670445281     1.0176501582
   34      H       1.2304178268    -3.2649460216     2.8256345510
   35      H      -0.6396308254    -1.3574305021     2.8598629227
   36      H      -3.8791299277     0.9543145673     3.2368739304
   37      H      -3.7947171006     3.5034802051     2.6402366657
   38      H      12.6951086853    -0.5292651682    -1.7703479107
   39      C      13.7069378166     0.2718446232    -0.1464803326
   40      H      12.8937050406     1.2686555998    -1.7856253320
   41      H      13.3857520637    -0.4334625960     0.6296442958
   42      H      13.9005466319     1.1864110683     0.4282246735
   43      C      15.0574851823    -0.2615225900    -0.7772284826
   44      H      15.7593769633    -0.6654777391    -0.0362789801
   45      C      15.8143958025     0.8330389334    -1.5197238593
   46      H      14.8199411338    -1.0916230989    -1.4555056901
   47      H      15.1745370330     1.1952200272    -2.3341092781
   48      H      16.6968664355     0.3298291364    -1.9347738347
   49      C      16.2848977272     1.9542814610    -0.5736091024
   50      H      15.5181691168     2.6133315589    -0.1475325758
   51      C      17.1736422028     2.9752042250    -1.2862520474
   52      H      16.6942333633     1.4750731078     0.3239189981
   53      H      17.8774409570     3.5562249606    -0.6782230856
   54      H      16.6306488581     3.6753574856    -1.9342286205
   55      H      17.8209125860     2.4629577673    -2.0075783381
   56      C      -1.6654499755    -5.1313568186     0.6171123282
   57      C      -1.6941947234    -4.0386939594     1.4975387111
   58      N      -2.2996298580    -5.0645853612    -0.5707860046
   59      C      -2.6012092829    -3.0098221810     1.2700888211
   60      C      -3.0586657703    -4.0153348178    -0.7999754048
   61      C      -3.3633378048    -2.9333926605     0.0771044773
   62      C      -4.5164827152    -2.0587070764    -0.0400618333
   63      C      -5.2568534296    -1.7177048772     1.1189695319
   64      C      -4.7356523785    -1.4192466558    -1.2961721108
   65      N      -6.3885888690    -0.9318904863     0.9702192769
   66      N      -3.9990924515    -1.6046882552    -2.4125375918
   67      C      -5.8812464889    -0.6333154306    -1.4037650628
   68      C      -6.7237521216    -0.4527150485    -0.2416167243
   69      S      -4.9479804053    -0.9694451228    -3.6138443029
   70      N      -6.1930264305    -0.3370237496    -2.6757986739
   71      C      -7.9546898635     0.3389429536    -0.2654679985
   72      S      -8.4963803991     1.1768541758    -1.7239456800
   73      C      -9.0160428654     0.2953183418     0.6390410941
   74      C      -9.9752070592     1.7688484265    -0.8965041312
   75      S      -9.0694873568    -0.3156682223     2.2419088693
   76      C     -10.1333785967     1.0748239390     0.2880982390
   77      C     -10.9929482967     2.5140291955    -1.4921360603
   78      C     -10.7697703911     0.1684648377     2.2318200976
   79      C     -11.1330971595     1.0246089715     1.2192111495
   80      N     -10.8690612568     2.7025566959    -2.8266529703
   81      S     -12.2679357528     3.3452112654    -0.7140175903
   82      C     -11.9091612488     3.4470672608    -3.2798747982
   83      C     -12.8148979436     3.8372807935    -2.2713271104
   84      C      -0.8709850370    -6.3574392259     0.9619229893
   85      H      -1.0796104797    -4.0429984890     2.3929769716
   86      H      -2.8836297381    -2.2615582833     2.0050642124
   87      H      -3.6616108059    -4.0461270955    -1.7062646079
   88      H      -5.0299157455    -2.1084305779     2.1097221319
   89      H     -11.3999841244    -0.1962021168     3.0322535194
   90      H     -12.0834403362     1.5441731383     1.1787275341
   91      H     -11.9943188730     3.7051876051    -4.3269144665
   92      H     -13.6500176428     4.5234419740    -2.2993614163
   93      H      -0.5628272261    -6.3811215210     2.0151850234
   94      C       0.3277914036    -6.3736922000     0.0042399069
   95      H      -1.4188159339    -7.2664748632     0.6858115650
   96      H       0.0336075407    -6.4073915584    -1.0521961812
   97      H       0.7758904671    -7.3639431177     0.1519841091
   98      C       1.4079134724    -5.3150975676     0.3191870782
   99      H       0.9212931512    -4.3781905348     0.0223169470
  100      C       2.7287914309    -5.5677570166    -0.5012473321
  101      H       1.5767211580    -5.2819550849     1.4030184955
  102      H       3.3517837652    -6.2730254242     0.0627411648
  103      H       3.3423950448    -4.6670374541    -0.3737488030
  104      C       2.5871265797    -5.8053342275    -2.0481788557
  105      H       2.0669933256    -6.7359680198    -2.3090469116
  106      C       4.0327031062    -6.0804877868    -2.6706706427
  107      H       1.9590810778    -5.0042663096    -2.4555055534
  108      H       3.9509902071    -6.3263570663    -3.7366468617
  109      H       4.5387160450    -6.8749682060    -2.1081097399
  110      H       4.6493724471    -5.1771555842    -2.5828933349
 ----------------------------------------------------------------

    9   -5663.5031363166      7.32E-06 Convergence criterion met
 Total energy in the final basis set = -5663.5031363166

                    Orbital Energies (a.u.)
 --------------------------------------------------------------

 Alpha MOs
 -- Occupied --
-88.987 -88.985 -88.934 -88.933 -88.917 -88.917 -88.914 -88.905
-14.390 -14.390 -14.386 -14.379 -14.352 -14.349 -14.343 -14.340
-14.328 -14.325 -10.272 -10.264 -10.261 -10.261 -10.256 -10.254
-10.253 -10.251 -10.246 -10.241 -10.238 -10.236 -10.235 -10.233
-10.232 -10.230 -10.230 -10.229 -10.228 -10.227 -10.226 -10.226
-10.226 -10.225 -10.223 -10.221 -10.221 -10.219 -10.219 -10.215
-10.210 -10.204 -10.203 -10.202 -10.201 -10.199 -10.198 -10.194
-10.186 -10.184 -10.181 -10.181 -10.178 -10.178 -10.178 -10.176
-10.175 -10.173 -10.172 -10.171  -8.042  -8.040  -7.995  -7.995
 -7.977  -7.975  -7.974  -7.965  -6.008  -6.006  -6.002  -6.000
 -6.000  -5.998  -5.959  -5.958  -5.956  -5.955  -5.952  -5.952
 -5.941  -5.940  -5.938  -5.938  -5.936  -5.935  -5.933  -5.932
 -5.931  -5.929  -5.925  -5.921  -1.037  -1.029  -0.969  -0.967
 -0.965  -0.950  -0.943  -0.942  -0.917  -0.915  -0.905  -0.902
 -0.847  -0.839  -0.834  -0.834  -0.818  -0.817  -0.808  -0.806
 -0.805  -0.804  -0.797  -0.796  -0.781  -0.775  -0.767  -0.762
 -0.751  -0.749  -0.738  -0.737  -0.720  -0.719  -0.711  -0.707
 -0.695  -0.691  -0.677  -0.673  -0.654  -0.651  -0.644  -0.643
 -0.632  -0.632  -0.624  -0.621  -0.613  -0.612  -0.602  -0.602
 -0.597  -0.591  -0.589  -0.587  -0.581  -0.578  -0.556  -0.555
 -0.553  -0.547  -0.541  -0.540  -0.526  -0.525  -0.520  -0.513
 -0.509  -0.505  -0.500  -0.497  -0.487  -0.483  -0.477  -0.476
 -0.473  -0.468  -0.466  -0.466  -0.458  -0.452  -0.451  -0.451
 -0.447  -0.441  -0.437  -0.436  -0.435  -0.433  -0.429  -0.427
 -0.425  -0.423  -0.423  -0.421  -0.418  -0.416  -0.415  -0.413
 -0.412  -0.410  -0.406  -0.403  -0.400  -0.399  -0.399  -0.397
 -0.396  -0.394  -0.393  -0.392  -0.392  -0.388  -0.387  -0.386
 -0.382  -0.378  -0.370  -0.369  -0.362  -0.361  -0.360  -0.354
 -0.353  -0.352  -0.352  -0.348  -0.347  -0.345  -0.343  -0.343
 -0.336  -0.335  -0.329  -0.326  -0.326  -0.324  -0.317  -0.317
 -0.311  -0.310  -0.309  -0.307  -0.306  -0.304  -0.303  -0.298
 -0.296  -0.296  -0.295  -0.293  -0.290  -0.286  -0.285  -0.281
 -0.277  -0.271  -0.268  -0.264  -0.255  -0.254  -0.249  -0.246
 -0.240  -0.239  -0.231  -0.228  -0.193  -0.190

          Ground-State Mulliken Net Atomic Charges

     Atom                 Charge (a.u.)
  ----------------------------------------
      1 C                     0.272864
      2 C                    -0.112329
      3 N                    -0.472772
      4 C                    -0.055105
      5 C                     0.050658
      6 C                     0.034436
      7 C                     0.048265
      8 C                     0.046545
      9 C                     0.263868
     10 N                    -0.530937
     11 N                    -0.576718
     12 C                     0.189610
     13 C                     0.325620
     14 S                     0.591751
     15 N                    -0.558186
     16 C                    -0.218905
     17 S                     0.292038
     18 C                    -0.080075
     19 C                    -0.233083
     20 S                     0.276406
     21 C                     0.132187
     22 C                     0.066388
     23 C                    -0.310428
     24 C                    -0.046677
     25 N                    -0.451298
     26 S                     0.297573
     27 C                     0.123536
     28 C                    -0.298723
     29 C                    -0.224952
     30 H                     0.089438
     31 H                     0.115041
     32 H                     0.101743
     33 H                     0.115661
     34 H                     0.128099
     35 H                     0.124973
     36 H                     0.122032
     37 H                     0.132419
     38 H                     0.117562
     39 C                    -0.186052
     40 H                     0.108243
     41 H                     0.095936
     42 H                     0.091677
     43 C                    -0.191007
     44 H                     0.088725
     45 C                    -0.166929
     46 H                     0.089974
     47 H                     0.093410
     48 H                     0.094179
     49 C                    -0.167509
     50 H                     0.096741
     51 C                    -0.329346
     52 H                     0.093682
     53 H                     0.100789
     54 H                     0.103782
     55 H                     0.097566
     56 C                     0.277579
     57 C                    -0.105475
     58 N                    -0.476879
     59 C                    -0.092714
     60 C                     0.093291
     61 C                     0.040626
     62 C                     0.003497
     63 C                     0.067294
     64 C                     0.248275
     65 N                    -0.543277
     66 N                    -0.547392
     67 C                     0.222116
     68 C                     0.322913
     69 S                     0.597170
     70 N                    -0.561252
     71 C                    -0.226863
     72 S                     0.359025
     73 C                    -0.119770
     74 C                    -0.214447
     75 S                     0.285968
     76 C                     0.144258
     77 C                     0.044550
     78 C                    -0.316442
     79 C                    -0.073945
     80 N                    -0.430869
     81 S                     0.290540
     82 C                     0.128155
     83 C                    -0.320221
     84 C                    -0.229815
     85 H                     0.078507
     86 H                     0.094796
     87 H                     0.094028
     88 H                     0.124220
     89 H                     0.123236
     90 H                     0.115976
     91 H                     0.117359
     92 H                     0.132249
     93 H                     0.094381
     94 C                    -0.180239
     95 H                     0.117321
     96 H                     0.124949
     97 H                     0.080845
     98 C                    -0.189667
     99 H                     0.112725
    100 C                    -0.183164
    101 H                     0.074207
    102 H                     0.088054
    103 H                     0.099090
    104 C                    -0.181059
    105 H                     0.099934
    106 C                    -0.326011
    107 H                     0.105248
    108 H                     0.100989
    109 H                     0.108659
    110 H                     0.105084
  ----------------------------------------
  Sum of atomic charges =     0.000000

                    Cartesian Multipole Moments
 -----------------------------------------------------------------
    Charge (ESU x 10^10)
                 0.0000
    Dipole Moment (Debye)
         X      -2.9168      Y       3.6681      Z       2.3925
       Tot       5.2618
    Quadrupole Moments (Debye-Ang)
        XX    -380.1416     XY     -10.9276     YY    -428.4026
        XZ      -7.6225     YZ      -9.7412     ZZ    -439.9877

 Total job time:  84.38s(wall), 998.45s(cpu)
        *  Thank you very much for using Q-Chem.  Have a nice day.  *
