 Q-Chem 4.4, Q-Chem, Inc., Pleasanton, CA (2016)
 Q-Chem 4.4.2 for Intel X86 Linux

User input:
--------------------------------------------------------------
$comment
SP
$end

$rem
MEM_STATIC 5000
MEM_TOTAL 20000
JOBTYPE SP
EXCHANGE B3LYP
BASIS 6-31g(d,p)
$end

$molecule
0 1
C           0.031000    -19.042000     -5.245000
C           0.575000    -18.338000     -4.189000
N          -0.763000    -20.125000     -5.077000
C           0.009000    -18.539000     -2.975000
C          -1.100000    -20.452000     -3.815000
C          -0.777000    -19.666000     -2.713000
C          -1.194000    -19.918000     -1.386000
C          -2.564000    -19.943000     -1.027000
C          -0.325000    -20.308000     -0.370000
N          -3.001000    -20.436000      0.120000
N           1.015000    -20.258000     -0.528000
C          -0.771000    -20.728000      0.906000
C          -2.170000    -20.801000      1.109000
S           1.576000    -20.775000      0.894000
N           0.192000    -20.980000      1.735000
C          -2.960000    -21.181000      2.271000
S          -4.695000    -20.562000      2.407000
C          -2.568000    -21.983000      3.326000
C          -4.875000    -21.562000      3.860000
S          -1.132000    -22.877000      3.678000
C          -3.677000    -22.200000      4.210000
C          -6.068000    -21.675000      4.714000
C          -1.973000    -23.634000      5.015000
C          -3.259000    -23.174000      5.157000
N          -7.203000    -21.501000      4.115000
S          -6.093000    -21.508000      6.432000
C          -8.227000    -21.358000      5.043000
C          -7.828000    -21.403000      6.352000
C           0.372000    -18.786000     -6.736000
H           1.369000    -17.605000     -4.298000
H           0.250000    -17.951000     -2.094000
H          -1.693000    -21.362000     -3.733000
H          -3.306000    -19.736000     -1.796000
H          -1.365000    -24.327000      5.582000
H          -3.867000    -23.535000      5.978000
H          -9.228000    -21.252000      4.647000
H          -8.346000    -21.438000      7.301000
H           1.390000    -18.379000     -6.775000
C          -0.533000    -17.735000     -7.410000
H           0.322000    -19.725000     -7.302000
H          -0.344000    -16.751000     -6.962000
H          -1.593000    -17.980000     -7.269000
C          -0.420000    -17.642000     -8.976000
H           0.463000    -17.058000     -9.260000
C          -1.618000    -16.777000     -9.483000
H          -0.430000    -18.603000     -9.505000
H          -1.863000    -15.944000     -8.813000
H          -2.493000    -17.438000     -9.480000
C          -1.509000    -16.201000    -10.920000
H          -2.317000    -15.510000    -11.188000
C          -1.311000    -17.195000    -12.006000
H          -0.668000    -15.502000    -10.829000
H          -1.212000    -16.739000    -12.999000
H          -2.170000    -17.873000    -11.929000
H          -0.440000    -17.846000    -11.868000
C           6.527000    -14.380000    -17.137000
C           7.072000    -13.490000    -16.233000
N           5.626000    -15.269000    -16.743000
C           6.764000    -13.669000    -14.809000
C           5.252000    -15.370000    -15.427000
C           5.783000    -14.574000    -14.413000
C           5.356000    -14.531000    -12.949000
C           6.175000    -14.172000    -11.897000
C           3.978000    -14.717000    -12.537000
N           5.743000    -14.012000    -10.591000
N           3.021000    -14.936000    -13.450000
C           3.553000    -14.575000    -11.234000
C           4.457000    -14.254000    -10.245000
S           1.613000    -14.953000    -12.577000
N           2.257000    -14.783000    -11.043000
C           4.099000    -14.071000     -8.819000
S           2.409000    -14.262000     -8.155000
C           4.893000    -13.502000     -7.823000
C           2.988000    -13.965000     -6.566000
S           6.581000    -13.084000     -7.816000
C           4.219000    -13.476000     -6.590000
C           2.261000    -14.206000     -5.296000
C           6.287000    -12.507000     -6.104000
C           5.023000    -12.918000     -5.572000
N           1.083000    -14.636000     -5.409000
S           2.982000    -14.461000     -3.679000
C           0.509000    -15.014000     -4.136000
C           1.390000    -14.910000     -3.085000
C           6.617000    -14.326000    -18.644000
H           7.864000    -12.800000    -16.509000
H           7.306000    -13.086000    -14.071000
H           4.628000    -16.222000    -15.162000
H           7.228000    -13.943000    -12.049000
H           7.050000    -11.924000     -5.605000
H           4.597000    -12.871000     -4.577000
H          -0.527000    -15.310000     -4.041000
H           1.229000    -15.106000     -2.033000
H           5.675000    -13.973000    -19.083000
C           7.018000    -15.642000    -19.417000
H           7.355000    -13.589000    -18.984000
H           6.252000    -16.422000    -19.321000
H           7.897000    -16.017000    -18.880000
C           7.460000    -15.443000    -20.861000
H           6.559000    -15.104000    -21.385000
C           7.880000    -16.804000    -21.481000
H           8.256000    -14.689000    -20.897000
H           7.311000    -17.643000    -21.061000
H           8.912000    -17.114000    -21.272000
C           7.796000    -16.786000    -22.990000
H           8.210000    -17.694000    -23.446000
C           8.444000    -15.561000    -23.724000
H           6.763000    -16.978000    -23.306000
H           7.734000    -14.725000    -23.705000
H           8.762000    -15.861000    -24.730000
H           9.424000    -15.329000    -23.289000
$end

--------------------------------------------------------------

             Standard Nuclear Orientation (Angstroms)
    I     Atom           X                Y                Z
 ----------------------------------------------------------------
    1      C       1.6973672141    -1.3185178405    -0.4325262245
    2      C       2.1759412427    -0.0243928343    -0.3787176062
    3      N       2.4869310296    -2.3853253197    -0.6972143117
    4      C       3.5162037197     0.1177357801    -0.2443712266
    5      C       3.8091579576    -2.1591842278    -0.8143388501
    6      C       4.3960844447    -0.9244478734    -0.5545842856
    7      C       5.7860818694    -0.6674602060    -0.5682407199
    8      C       6.6754143875    -1.3295466176     0.3133120329
    9      C       6.4102966653     0.1238498563    -1.5293345103
   10      N       7.9883730645    -1.3243563206     0.1528764596
   11      N       5.6993905940     0.8840648831    -2.3894215239
   12      C       7.8170279984     0.2335446448    -1.6414327251
   13      C       8.5980058301    -0.5539859805    -0.7618827603
   14      S       6.8387446855     1.6142010175    -3.2685503423
   15      N       8.2010250785     1.0734909603    -2.5498106364
   16      C      10.0388681920    -0.6841109952    -0.6014859571
   17      S      10.7027757684    -1.2785180418     1.0164723221
   18      C      11.0151606578    -0.4166576380    -1.5423444602
   19      C      12.3182323523    -1.2795613288     0.2857822804
   20      S      10.9759973678     0.0712575794    -3.1993420394
   21      C      12.3029328608    -0.7773736871    -1.0227747486
   22      C      13.5852569188    -1.6414502150     0.9407778389
   23      C      12.6977961104    -0.2358766189    -3.2940873513
   24      C      13.2250248952    -0.6550769308    -2.0974834457
   25      N      13.4937979889    -2.5183106182     1.8894891214
   26      S      15.0270190108    -0.6920817496     0.9330585604
   27      C      14.6799286631    -2.5823226932     2.6100482640
   28      C      15.6533773466    -1.7136564770     2.1946885821
   29      C       0.1967607209    -1.7010449612    -0.3503608153
   30      H       1.5382869094     0.8548015922    -0.3742330002
   31      H       4.0042901415     1.0694111507    -0.0544458886
   32      H       4.3906277915    -3.0404825574    -1.0820683527
   33      H       6.2636647248    -2.0340330432     1.0336835282
   34      H      13.1320048267    -0.0150047182    -4.2605656978
   35      H      14.2906159450    -0.8344829363    -2.0177639396
   36      H      14.7268964443    -3.3188257092     3.4008771550
   37      H      16.6973978371    -1.5723500455     2.4400530208
   38      H      -0.3801210916    -0.8539313694    -0.7416406857
   39      C      -0.3087993969    -1.9325566866     1.0879414089
   40      H       0.0014634273    -2.5974606523    -0.9527517812
   41      H      -0.2862527194    -0.9834917646     1.6388029353
   42      H       0.3266954289    -2.6533771098     1.6171580411
   43      C      -1.7315624883    -2.5913468548     1.2124994276
   44      H      -2.5141082789    -1.8386038041     1.0628298407
   45      C      -1.9170413790    -3.0313473656     2.6999385462
   46      H      -1.9053686965    -3.4587441848     0.5637504207
   47      H      -1.4781904310    -2.3265537478     3.4165205734
   48      H      -1.3575973683    -3.9678417157     2.8119909052
   49      C      -3.3665525651    -3.3282108932     3.1683564872
   50      H      -3.4590432908    -3.5211564424     4.2437106060
   51      C      -4.0975027183    -4.3697003383     2.4017747178
   52      H      -3.8418010410    -2.3415481288     3.0990854572
   53      H      -5.1257957108    -4.5245847598     2.7516466052
   54      H      -3.4761105064    -5.2700125434     2.4842589731
   55      H      -4.1548692604    -4.1790679840     1.3238812234
   56      C     -12.6073361710    -0.4656498872    -0.4313780637
   57      C     -12.3138097445     0.8683302272    -0.2296845059
   58      N     -11.6344302957    -1.3633877281    -0.5012273804
   59      C     -10.9069462168     1.2849721265    -0.2724108698
   60      C     -10.3155056742    -0.9922760832    -0.4330585473
   61      C      -9.8942399626     0.3300482069    -0.2997668666
   62      C      -8.4672874261     0.8326970973    -0.1032355676
   63      C      -8.0075100433     2.0766389379    -0.4873702516
   64      C      -7.4824602237     0.0924401487     0.6618520298
   65      N      -6.7483322407     2.5697023973    -0.1886736054
   66      N      -7.8052577527    -1.0782324507     1.2299245781
   67      C      -6.2235941024     0.5770541456     0.9429273980
   68      C      -5.8426433933     1.8171263772     0.4787341002
   69      S      -6.4596863544    -1.5007321415     2.0992999995
   70      N      -5.4570305628    -0.2381220576     1.6551275787
   71      C      -4.5177120434     2.4292295805     0.7337156416
   72      S      -3.1839379395     1.6239232873     1.6855588083
   73      C      -4.1563660141     3.7603360559     0.5244368844
   74      C      -2.1434170908     2.9536842132     1.3734318414
   75      S      -4.9770066408     5.0415029819    -0.3177491221
   76      C      -2.8201442851     3.9876876266     0.8960061973
   77      C      -0.6760423116     3.0019286667     1.5831786650
   78      C      -3.5463445949     6.0799961384     0.1566421453
   79      C      -2.4408564643     5.3290244812     0.6700411744
   80      N      -0.1565069669     1.9678616387     2.0793050675
   81      S       0.4886540768     4.0888639561     0.7697851566
   82      C       1.2890390558     2.0248980583     2.0850097222
   83      C       1.7956840985     3.1475124150     1.4729428902
   84      C     -13.9584043696    -1.1329517330    -0.3246636347
   85      H     -13.0820277639     1.6359590671    -0.2409556526
   86      H     -10.6664468779     2.3434718929    -0.2783533056
   87      H      -9.5802249788    -1.7645916087    -0.6530495196
   88      H      -8.6449290172     2.7777968707    -1.0225605028
   89      H      -3.6040956922     7.1520606121     0.0209897405
   90      H      -1.4193813924     5.5997601747     0.9087897068
   91      H       1.8896131839     1.2638611862     2.5646664703
   92      H       2.8256148956     3.4558884742     1.3497042633
   93      H     -14.0444890165    -1.7021445394     0.6098431779
   94      C     -14.4116829850    -2.0949500361    -1.4905468886
   95      H     -14.7727324028    -0.4008029256    -0.2595408423
   96      H     -13.7833579040    -2.9929308215    -1.5472046463
   97      H     -14.2084988960    -1.5283090057    -2.4066632396
   98      C     -15.8975869643    -2.4283673640    -1.5225351668
   99      H     -16.0699762265    -3.0241042025    -0.6188330248
  100      C     -16.2140491302    -3.3301638644    -2.7471721617
  101      H     -16.4792758555    -1.4983583026    -1.5103212539
  102      H     -15.3720384016    -3.9835692596    -3.0082493964
  103      H     -16.3761000438    -2.7952412201    -3.6918426154
  104      C     -17.4836735152    -4.1257717829    -2.5483683363
  105      H     -17.7872396993    -4.6679260136    -3.4526428311
  106      C     -18.7406371265    -3.3425293557    -2.0327533829
  107      H     -17.2683488303    -5.0264034878    -1.9598899492
  108      H     -18.6688304955    -3.2425783565    -0.9427026476
  109      H     -19.6533395731    -3.8409150175    -2.3816745432
  110      H     -18.8428680491    -2.3894234521    -2.5662203220
 ----------------------------------------------------------------

    9   -5663.4944033505      8.04E-06 Convergence criterion met
 Total energy in the final basis set = -5663.4944033505

                    Orbital Energies (a.u.)
 --------------------------------------------------------------

 Alpha MOs
 -- Occupied --
-88.986 -88.986 -88.929 -88.927 -88.925 -88.923 -88.919 -88.912
-14.389 -14.386 -14.385 -14.382 -14.353 -14.350 -14.340 -14.339
-14.325 -14.324 -10.276 -10.263 -10.262 -10.257 -10.256 -10.256
-10.252 -10.250 -10.244 -10.242 -10.242 -10.242 -10.241 -10.239
-10.239 -10.235 -10.233 -10.233 -10.232 -10.231 -10.230 -10.230
-10.228 -10.228 -10.228 -10.224 -10.220 -10.219 -10.218 -10.212
-10.211 -10.210 -10.205 -10.205 -10.202 -10.201 -10.199 -10.190
-10.184 -10.178 -10.177 -10.175 -10.174 -10.174 -10.174 -10.173
-10.173 -10.171 -10.170 -10.168  -8.042  -8.041  -7.990  -7.987
 -7.983  -7.982  -7.978  -7.973  -6.007  -6.006  -6.002  -6.001
 -6.000  -5.999  -5.954  -5.951  -5.951  -5.948  -5.948  -5.947
 -5.946  -5.944  -5.944  -5.943  -5.942  -5.940  -5.939  -5.938
 -5.937  -5.934  -5.933  -5.929  -1.051  -1.038  -0.979  -0.975
 -0.962  -0.952  -0.937  -0.937  -0.920  -0.917  -0.909  -0.906
 -0.845  -0.841  -0.837  -0.832  -0.811  -0.809  -0.806  -0.805
 -0.803  -0.798  -0.796  -0.796  -0.783  -0.778  -0.768  -0.765
 -0.750  -0.749  -0.745  -0.742  -0.727  -0.722  -0.710  -0.708
 -0.696  -0.690  -0.676  -0.673  -0.658  -0.652  -0.647  -0.645
 -0.641  -0.634  -0.631  -0.626  -0.613  -0.612  -0.605  -0.602
 -0.597  -0.596  -0.587  -0.577  -0.575  -0.572  -0.561  -0.555
 -0.553  -0.548  -0.540  -0.540  -0.525  -0.524  -0.518  -0.518
 -0.511  -0.509  -0.501  -0.498  -0.493  -0.488  -0.479  -0.479
 -0.474  -0.474  -0.470  -0.466  -0.466  -0.460  -0.450  -0.446
 -0.445  -0.444  -0.441  -0.440  -0.439  -0.439  -0.435  -0.433
 -0.431  -0.430  -0.427  -0.427  -0.418  -0.417  -0.413  -0.412
 -0.411  -0.407  -0.406  -0.403  -0.400  -0.398  -0.395  -0.394
 -0.392  -0.391  -0.390  -0.388  -0.387  -0.383  -0.380  -0.379
 -0.377  -0.375  -0.371  -0.369  -0.366  -0.363  -0.361  -0.359
 -0.358  -0.355  -0.352  -0.348  -0.348  -0.342  -0.341  -0.340
 -0.336  -0.334  -0.332  -0.330  -0.325  -0.322  -0.319  -0.317
 -0.315  -0.314  -0.309  -0.305  -0.304  -0.301  -0.300  -0.297
 -0.295  -0.295  -0.293  -0.290  -0.286  -0.283  -0.282  -0.280
 -0.277  -0.271  -0.264  -0.261  -0.260  -0.258  -0.251  -0.249
 -0.246  -0.244  -0.239  -0.236  -0.202  -0.194

          Ground-State Mulliken Net Atomic Charges

     Atom                 Charge (a.u.)
  ----------------------------------------
      1 C                     0.249132
      2 C                    -0.106114
      3 N                    -0.469541
      4 C                    -0.056660
      5 C                     0.076023
      6 C                     0.041255
      7 C                    -0.037519
      8 C                     0.068611
      9 C                     0.221615
     10 N                    -0.510340
     11 N                    -0.532018
     12 C                     0.260451
     13 C                     0.304249
     14 S                     0.588731
     15 N                    -0.579185
     16 C                    -0.231033
     17 S                     0.353032
     18 C                    -0.115310
     19 C                    -0.196106
     20 S                     0.289484
     21 C                     0.127841
     22 C                     0.041165
     23 C                    -0.302670
     24 C                    -0.086486
     25 N                    -0.413725
     26 S                     0.271582
     27 C                     0.115193
     28 C                    -0.309601
     29 C                    -0.219296
     30 H                     0.108689
     31 H                     0.086375
     32 H                     0.099506
     33 H                     0.112365
     34 H                     0.137174
     35 H                     0.104101
     36 H                     0.116066
     37 H                     0.142398
     38 H                     0.097863
     39 C                    -0.191455
     40 H                     0.114198
     41 H                     0.115776
     42 H                     0.101808
     43 C                    -0.183941
     44 H                     0.109306
     45 C                    -0.185446
     46 H                     0.095287
     47 H                     0.094844
     48 H                     0.086784
     49 C                    -0.194691
     50 H                     0.090808
     51 C                    -0.310752
     52 H                     0.094882
     53 H                     0.098004
     54 H                     0.101859
     55 H                     0.105563
     56 C                     0.290776
     57 C                    -0.135571
     58 N                    -0.486998
     59 C                    -0.091870
     60 C                     0.089761
     61 C                     0.059215
     62 C                     0.064209
     63 C                     0.033874
     64 C                     0.216202
     65 N                    -0.558918
     66 N                    -0.550231
     67 C                     0.254251
     68 C                     0.331184
     69 S                     0.602730
     70 N                    -0.595486
     71 C                    -0.240834
     72 S                     0.348820
     73 C                    -0.103036
     74 C                    -0.221723
     75 S                     0.290025
     76 C                     0.157057
     77 C                     0.091365
     78 C                    -0.325438
     79 C                    -0.063655
     80 N                    -0.436670
     81 S                     0.245373
     82 C                     0.099092
     83 C                    -0.302252
     84 C                    -0.221507
     85 H                     0.090595
     86 H                     0.099667
     87 H                     0.113268
     88 H                     0.112615
     89 H                     0.129629
     90 H                     0.106736
     91 H                     0.129698
     92 H                     0.145802
     93 H                     0.120009
     94 C                    -0.182620
     95 H                     0.082171
     96 H                     0.114331
     97 H                     0.089569
     98 C                    -0.168167
     99 H                     0.095623
    100 C                    -0.171468
    101 H                     0.096794
    102 H                     0.093883
    103 H                     0.091481
    104 C                    -0.190860
    105 H                     0.084321
    106 C                    -0.317177
    107 H                     0.089558
    108 H                     0.111961
    109 H                     0.100908
    110 H                     0.101797
  ----------------------------------------
  Sum of atomic charges =     0.000000

                    Cartesian Multipole Moments
 -----------------------------------------------------------------
    Charge (ESU x 10^10)
                 0.0000
    Dipole Moment (Debye)
         X       2.5638      Y       4.7794      Z      -0.4048
       Tot       5.4387
    Quadrupole Moments (Debye-Ang)
        XX    -357.3288     XY      -0.9544     YY    -440.5442
        XZ       0.1179     YZ      -5.5303     ZZ    -439.0822

 Total job time:  82.68s(wall), 983.53s(cpu)
        *  Thank you very much for using Q-Chem.  Have a nice day.  *
