 Q-Chem 4.4, Q-Chem, Inc., Pleasanton, CA (2016)
 Q-Chem 4.4.2 for Intel X86 Linux

User input:
--------------------------------------------------------------
$comment
SP
$end

$rem
MEM_STATIC 5000
MEM_TOTAL 20000
JOBTYPE SP
EXCHANGE B3LYP
BASIS 6-31g(d,p)
$end

$molecule
0 1
C           0.031000    -19.042000     -5.245000
C           0.575000    -18.338000     -4.189000
N          -0.763000    -20.125000     -5.077000
C           0.009000    -18.539000     -2.975000
C          -1.100000    -20.452000     -3.815000
C          -0.777000    -19.666000     -2.713000
C          -1.194000    -19.918000     -1.386000
C          -2.564000    -19.943000     -1.027000
C          -0.325000    -20.308000     -0.370000
N          -3.001000    -20.436000      0.120000
N           1.015000    -20.258000     -0.528000
C          -0.771000    -20.728000      0.906000
C          -2.170000    -20.801000      1.109000
S           1.576000    -20.775000      0.894000
N           0.192000    -20.980000      1.735000
C          -2.960000    -21.181000      2.271000
S          -4.695000    -20.562000      2.407000
C          -2.568000    -21.983000      3.326000
C          -4.875000    -21.562000      3.860000
S          -1.132000    -22.877000      3.678000
C          -3.677000    -22.200000      4.210000
C          -6.068000    -21.675000      4.714000
C          -1.973000    -23.634000      5.015000
C          -3.259000    -23.174000      5.157000
N          -7.203000    -21.501000      4.115000
S          -6.093000    -21.508000      6.432000
C          -8.227000    -21.358000      5.043000
C          -7.828000    -21.403000      6.352000
C           0.372000    -18.786000     -6.736000
H           1.369000    -17.605000     -4.298000
H           0.250000    -17.951000     -2.094000
H          -1.693000    -21.362000     -3.733000
H          -3.306000    -19.736000     -1.796000
H          -1.365000    -24.327000      5.582000
H          -3.867000    -23.535000      5.978000
H          -9.228000    -21.252000      4.647000
H          -8.346000    -21.438000      7.301000
H           1.390000    -18.379000     -6.775000
C          -0.533000    -17.735000     -7.410000
H           0.322000    -19.725000     -7.302000
H          -0.344000    -16.751000     -6.962000
H          -1.593000    -17.980000     -7.269000
C          -0.420000    -17.642000     -8.976000
H           0.463000    -17.058000     -9.260000
C          -1.618000    -16.777000     -9.483000
H          -0.430000    -18.603000     -9.505000
H          -1.863000    -15.944000     -8.813000
H          -2.493000    -17.438000     -9.480000
C          -1.509000    -16.201000    -10.920000
H          -2.317000    -15.510000    -11.188000
C          -1.311000    -17.195000    -12.006000
H          -0.668000    -15.502000    -10.829000
H          -1.212000    -16.739000    -12.999000
H          -2.170000    -17.873000    -11.929000
H          -0.440000    -17.846000    -11.868000
C          10.731000    -16.110000     -9.583000
C          11.285000    -17.075000     -8.832000
N           9.403000    -15.812000     -9.464000
C          10.567000    -17.860000     -7.862000
C           8.674000    -16.475000     -8.544000
C           9.188000    -17.516000     -7.737000
C           8.357000    -18.457000     -6.922000
C           8.674000    -19.784000     -6.629000
C           7.155000    -18.013000     -6.240000
N           8.001000    -20.588000     -5.728000
N           6.661000    -16.810000     -6.325000
C           6.381000    -18.842000     -5.432000
C           6.850000    -20.158000     -5.181000
S           5.170000    -16.840000     -5.702000
N           5.221000    -18.317000     -4.938000
C           6.243000    -21.158000     -4.344000
S           7.265000    -22.441000     -3.565000
C           4.901000    -21.474000     -4.194000
C           5.837000    -23.204000     -2.842000
S           3.468000    -20.681000     -4.766000
C           4.703000    -22.610000     -3.361000
C           5.880000    -24.118000     -1.803000
C           2.592000    -21.835000     -3.731000
C           3.346000    -22.703000     -2.956000
N           4.909000    -25.084000     -1.731000
S           7.381000    -24.515000     -0.971000
C           5.273000    -25.989000     -0.712000
C           6.539000    -25.793000     -0.217000
C          11.400000    -15.347000    -10.685000
H          12.326000    -17.299000     -9.049000
H          11.154000    -18.601000     -7.327000
H           7.627000    -16.175000     -8.566000
H           9.603000    -20.162000     -7.052000
H           1.513000    -21.826000     -3.806000
H           3.001000    -23.372000     -2.176000
H           4.587000    -26.781000     -0.442000
H           7.079000    -26.436000      0.465000
H          11.675000    -16.048000    -11.482000
C          12.674000    -14.499000    -10.337000
H          10.704000    -14.700000    -11.232000
H          12.559000    -13.831000     -9.474000
H          12.786000    -13.881000    -11.236000
C          14.044000    -15.228000    -10.077000
H          14.020000    -15.759000     -9.118000
C          15.301000    -14.327000    -10.192000
H          14.211000    -15.994000    -10.845000
H          16.212000    -14.879000     -9.929000
H          15.171000    -13.523000     -9.458000
C          15.559000    -13.590000    -11.559000
H          15.888000    -14.339000    -12.290000
C          16.626000    -12.541000    -11.437000
H          14.589000    -13.167000    -11.847000
H          17.584000    -13.061000    -11.312000
H          16.585000    -11.962000    -10.506000
H          16.700000    -11.774000    -12.217000
$end

--------------------------------------------------------------

             Standard Nuclear Orientation (Angstroms)
    I     Atom           X                Y                Z
 ----------------------------------------------------------------
    1      C      -0.5913182377     3.4628266435    -1.0234915870
    2      C      -0.6596769895     2.8899916672     0.2310502301
    3      N      -1.5690245987     3.3271173367    -1.9493545659
    4      C      -1.8848771400     2.4856865247     0.6433304055
    5      C      -2.6889484503     2.6814038852    -1.5725698727
    6      C      -2.9268507653     2.2700723350    -0.2646180982
    7      C      -4.1261386232     1.6796494007     0.1951985963
    8      C      -5.3650971964     2.3634959238     0.1340300855
    9      C      -4.2215919784     0.3492323405     0.5956934190
   10      N      -6.5313883658     1.7604582015     0.2944589284
   11      N      -3.1230389517    -0.4129459830     0.7836547198
   12      C      -5.4552735154    -0.2812379751     0.8855710595
   13      C      -6.6313870121     0.4827238607     0.6935857568
   14      S      -3.7315977096    -1.8320361223     1.2526253101
   15      N      -5.3284754923    -1.4983175478     1.3107222972
   16      C      -8.0369199183     0.1605909215     0.8922100728
   17      S      -9.2345755395     1.5398700829     1.1662392823
   18      C      -8.6176867501    -1.0934382024     0.8959307626
   19      C     -10.5368371093     0.3372029389     1.1299688450
   20      S      -8.0169033538    -2.6892637985     0.6172984287
   21      C     -10.0419373992    -0.9692943995     1.0164480014
   22      C     -11.9766112249     0.5867018812     1.3035625478
   23      C      -9.6692037992    -3.2701495559     0.5979599940
   24      C     -10.5822135654    -2.2699237237     0.8249433667
   25      N     -12.3938683180     1.7487864356     0.9127198599
   26      S     -13.0186707766    -0.2581908950     2.3899814760
   27      C     -13.6869926953     1.9798344540     1.3651081423
   28      C     -14.2189203759     0.9736896880     2.1263128798
   29      C       0.6550180484     4.1954464826    -1.5845727160
   30      H       0.1881373230     2.8116357677     0.9053478236
   31      H      -2.0985079614     2.1471584548     1.6531554487
   32      H      -3.4190633182     2.5515695675    -2.3704096622
   33      H      -5.3784006138     3.3797799116    -0.2555387470
   34      H      -9.7584421525    -4.3395069900     0.4568458753
   35      H     -11.6366230595    -2.5129523709     0.8813676109
   36      H     -14.1498684834     2.9071291463     1.0553928560
   37      H     -15.1998001921     0.7703231426     2.5345613757
   38      H       1.5374848172     3.7630881057    -1.0969123464
   39      C       0.6873601091     5.7034982173    -1.2642042459
   40      H       0.7200144880     4.0533941380    -2.6709306654
   41      H       0.8100945246     5.8431956418    -0.1824917644
   42      H      -0.2463152768     6.1910319876    -1.5709078431
   43      C       1.7689780293     6.5418900781    -2.0394305111
   44      H       2.7514676650     6.4246752270    -1.5678631304
   45      C       1.4321424160     8.0527304154    -1.8287619442
   46      H       1.8345746190     6.3418874070    -3.1160725216
   47      H       1.0569689374     8.2751242686    -0.8224817472
   48      H       0.6097431972     8.2798159182    -2.5177080228
   49      C       2.5592421456     9.0730550486    -2.1405468739
   50      H       2.3147385343    10.1070537380    -1.8699296268
   51      C       3.1155567374     9.0273742811    -3.5171598705
   52      H       3.3082759858     8.8360250320    -1.3744345601
   53      H       3.9272879367     9.7470398034    -3.6813548645
   54      H       2.2544077961     9.1943660294    -4.1759695979
   55      H       3.4979409114     8.0446907419    -3.8164948085
   56      C      10.7678614170     0.3875363878     0.8248848400
   57      C      10.4520134248    -0.8891252749     0.5555949501
   58      N       9.7950722009     1.3438702558     0.9000890546
   59      C       9.1110266779    -1.3623988114     0.3310605333
   60      C       8.5095598004     0.9686379294     0.7449485713
   61      C       8.1091925166    -0.3522061421     0.4380235370
   62      C       6.7397951005    -0.7470580700    -0.0192615729
   63      C       6.4377227088    -1.8039695497    -0.8788878837
   64      C       5.5486658755    -0.1079195116     0.5096780008
   65      N       5.1677205411    -2.2784226987    -1.1493221702
   66      N       5.5580237372     0.8855442492     1.3531305403
   67      C       4.2554323894    -0.4780568382     0.1495023356
   68      C       4.0943606096    -1.6053772469    -0.6978597936
   69      S       4.0644736578     1.5001836583     1.4134344147
   70      N       3.2336945986     0.2793760049     0.6471049632
   71      C       2.8605645665    -2.1892800911    -1.1515367628
   72      S       2.7873352212    -3.9520027487    -1.5814905922
   73      C       1.6946722794    -1.5593327916    -1.5604151980
   74      C       1.0828076163    -3.8138284273    -2.0500794326
   75      S       1.2059797779     0.1035286407    -1.4856255191
   76      C       0.7284017381    -2.4787160885    -2.0550308008
   77      C       0.2250977719    -4.8891505778    -2.2075027327
   78      C      -0.3900675538    -0.4937695025    -2.0015565643
   79      C      -0.5476901154    -1.8640052351    -2.1435923518
   80      N      -0.7921373392    -4.7956032354    -3.1227418399
   81      S       0.7076900468    -6.5345019506    -1.8040705122
   82      C      -1.3985766205    -6.0648986789    -3.2276345233
   83      C      -0.7216328488    -7.0632872692    -2.5710034604
   84      C      12.1489646731     0.9542320888     0.9495595307
   85      H      11.2940429720    -1.5655482181     0.4356606204
   86      H       9.0134323282    -2.4252780249     0.1294715440
   87      H       7.8319425743     1.8202523610     0.7927058195
   88      H       7.2843186568    -2.3734498433    -1.2581259304
   89      H      -1.1358015226     0.2570711396    -2.2253112914
   90      H      -1.4649159671    -2.4159364799    -2.3140465630
   91      H      -2.2826512711    -6.1765104548    -3.8414055096
   92      H      -0.9191403880    -8.1257431282    -2.6194938692
   93      H      12.6603477240     0.8507660303    -0.0148144372
   94      C      13.0968319334     0.3698544189     2.0556040125
   95      H      12.1486998177     2.0461801820     1.0489742757
   96      H      12.6534781094     0.3152827810     3.0579399458
   97      H      13.9028396995     1.1131833718     2.0775710028
   98      C      13.7501422005    -1.0465323433     1.8482993221
   99      H      12.9948187427    -1.8353253053     1.9458192548
  100      C      14.9874601783    -1.3368793495     2.7370162838
  101      H      14.1466351252    -1.1291628854     0.8282823839
  102      H      15.3479570525    -2.3633111735     2.5946304895
  103      H      14.6494789425    -1.2399516466     3.7754986885
  104      C      16.2236651545    -0.3690031924     2.6211068312
  105      H      16.7210061832    -0.5690476916     1.6639040838
  106      C      17.2131010101    -0.5892431482     3.7284843862
  107      H      15.8008989792     0.6428585883     2.6344296641
  108      H      17.7025365723    -1.5536439909     3.5436253990
  109      H      16.7582742044    -0.7758236305     4.7093020555
  110      H      17.9568150529     0.1905274548     3.9309991490
 ----------------------------------------------------------------

   10   -5663.5006110448      3.28E-06 Convergence criterion met
 Total energy in the final basis set = -5663.5006110448

                    Orbital Energies (a.u.)
 --------------------------------------------------------------

 Alpha MOs
 -- Occupied --
-88.987 -88.986 -88.927 -88.925 -88.924 -88.916 -88.912 -88.908
-14.392 -14.384 -14.382 -14.380 -14.349 -14.344 -14.341 -14.339
-14.331 -14.327 -10.263 -10.263 -10.259 -10.258 -10.257 -10.255
-10.255 -10.252 -10.241 -10.239 -10.239 -10.236 -10.234 -10.232
-10.231 -10.231 -10.230 -10.230 -10.229 -10.229 -10.228 -10.227
-10.226 -10.225 -10.225 -10.224 -10.223 -10.222 -10.220 -10.212
-10.211 -10.205 -10.205 -10.204 -10.204 -10.198 -10.197 -10.192
-10.189 -10.188 -10.186 -10.185 -10.185 -10.182 -10.182 -10.181
-10.176 -10.173 -10.172 -10.168  -8.043  -8.042  -7.987  -7.986
 -7.983  -7.974  -7.973  -7.969  -6.008  -6.007  -6.003  -6.001
 -6.001  -5.999  -5.951  -5.950  -5.948  -5.948  -5.946  -5.944
 -5.944  -5.943  -5.940  -5.939  -5.937  -5.935  -5.933  -5.933
 -5.931  -5.930  -5.929  -5.925  -1.051  -1.046  -0.975  -0.962
 -0.954  -0.951  -0.944  -0.936  -0.920  -0.911  -0.906  -0.902
 -0.847  -0.839  -0.838  -0.829  -0.809  -0.807  -0.806  -0.805
 -0.804  -0.804  -0.800  -0.795  -0.787  -0.787  -0.769  -0.765
 -0.751  -0.749  -0.744  -0.743  -0.727  -0.715  -0.714  -0.713
 -0.694  -0.692  -0.674  -0.673  -0.657  -0.654  -0.647  -0.645
 -0.639  -0.637  -0.630  -0.627  -0.614  -0.614  -0.602  -0.598
 -0.597  -0.587  -0.585  -0.581  -0.576  -0.575  -0.562  -0.560
 -0.553  -0.552  -0.541  -0.540  -0.525  -0.521  -0.518  -0.512
 -0.512  -0.509  -0.503  -0.500  -0.497  -0.482  -0.480  -0.476
 -0.474  -0.472  -0.470  -0.467  -0.466  -0.465  -0.453  -0.447
 -0.445  -0.443  -0.439  -0.438  -0.437  -0.433  -0.432  -0.430
 -0.428  -0.424  -0.421  -0.420  -0.417  -0.417  -0.417  -0.412
 -0.411  -0.410  -0.406  -0.404  -0.399  -0.398  -0.396  -0.396
 -0.394  -0.394  -0.391  -0.389  -0.388  -0.383  -0.383  -0.380
 -0.379  -0.378  -0.376  -0.372  -0.366  -0.365  -0.361  -0.360
 -0.359  -0.356  -0.350  -0.348  -0.347  -0.346  -0.343  -0.341
 -0.339  -0.339  -0.336  -0.328  -0.328  -0.324  -0.322  -0.319
 -0.318  -0.313  -0.310  -0.310  -0.305  -0.302  -0.300  -0.300
 -0.295  -0.295  -0.290  -0.290  -0.285  -0.284  -0.282  -0.277
 -0.277  -0.272  -0.269  -0.263  -0.258  -0.255  -0.253  -0.250
 -0.247  -0.241  -0.241  -0.230  -0.194  -0.187

          Ground-State Mulliken Net Atomic Charges

     Atom                 Charge (a.u.)
  ----------------------------------------
      1 C                     0.248286
      2 C                    -0.101017
      3 N                    -0.467945
      4 C                    -0.049565
      5 C                     0.059883
      6 C                     0.046949
      7 C                    -0.036592
      8 C                     0.071004
      9 C                     0.220940
     10 N                    -0.511609
     11 N                    -0.529674
     12 C                     0.260339
     13 C                     0.305578
     14 S                     0.594308
     15 N                    -0.578837
     16 C                    -0.231136
     17 S                     0.354102
     18 C                    -0.115124
     19 C                    -0.194553
     20 S                     0.289879
     21 C                     0.127355
     22 C                     0.042274
     23 C                    -0.303399
     24 C                    -0.086162
     25 N                    -0.413568
     26 S                     0.271417
     27 C                     0.115040
     28 C                    -0.309906
     29 C                    -0.219905
     30 H                     0.098691
     31 H                     0.101350
     32 H                     0.103261
     33 H                     0.112122
     34 H                     0.137149
     35 H                     0.104202
     36 H                     0.116111
     37 H                     0.142536
     38 H                     0.093628
     39 C                    -0.180358
     40 H                     0.120329
     41 H                     0.092607
     42 H                     0.109971
     43 C                    -0.175546
     44 H                     0.091541
     45 C                    -0.186800
     46 H                     0.102305
     47 H                     0.090065
     48 H                     0.089734
     49 C                    -0.178737
     50 H                     0.091243
     51 C                    -0.310412
     52 H                     0.084789
     53 H                     0.101416
     54 H                     0.101110
     55 H                     0.103607
     56 C                     0.289920
     57 C                    -0.119606
     58 N                    -0.488616
     59 C                    -0.086549
     60 C                     0.094701
     61 C                     0.026190
     62 C                     0.073621
     63 C                     0.043343
     64 C                     0.234649
     65 N                    -0.525145
     66 N                    -0.541951
     67 C                     0.214242
     68 C                     0.284923
     69 S                     0.583252
     70 N                    -0.559275
     71 C                    -0.227505
     72 S                     0.298365
     73 C                    -0.109791
     74 C                    -0.191099
     75 S                     0.293667
     76 C                     0.127151
     77 C                     0.015849
     78 C                    -0.300910
     79 C                    -0.050744
     80 N                    -0.427026
     81 S                     0.282154
     82 C                     0.113704
     83 C                    -0.302954
     84 C                    -0.245298
     85 H                     0.085613
     86 H                     0.117236
     87 H                     0.121359
     88 H                     0.102572
     89 H                     0.131956
     90 H                     0.124212
     91 H                     0.115923
     92 H                     0.132088
     93 H                     0.110496
     94 C                    -0.181490
     95 H                     0.125363
     96 H                     0.102864
     97 H                     0.100287
     98 C                    -0.185777
     99 H                     0.094072
    100 C                    -0.183110
    101 H                     0.086098
    102 H                     0.090002
    103 H                     0.089800
    104 C                    -0.173225
    105 H                     0.095640
    106 C                    -0.317437
    107 H                     0.096977
    108 H                     0.101077
    109 H                     0.100570
    110 H                     0.103293
  ----------------------------------------
  Sum of atomic charges =     0.000000

                    Cartesian Multipole Moments
 -----------------------------------------------------------------
    Charge (ESU x 10^10)
                 0.0000
    Dipole Moment (Debye)
         X      -1.1999      Y      -3.1008      Z       2.6598
       Tot       4.2579
    Quadrupole Moments (Debye-Ang)
        XX    -370.9830     XY      11.1685     YY    -418.9602
        XZ     -12.3091     YZ       5.9375     ZZ    -455.7144

 Total job time:  90.06s(wall), 1062.30s(cpu)
        *  Thank you very much for using Q-Chem.  Have a nice day.  *
