 Q-Chem 4.4, Q-Chem, Inc., Pleasanton, CA (2016)
 Q-Chem 4.4.2 for Intel X86 Linux

User input:
--------------------------------------------------------------
$comment
SP
$end

$rem
MEM_STATIC 5000
MEM_TOTAL 20000
JOBTYPE SP
EXCHANGE B3LYP
BASIS 6-31g(d,p)
$end

$molecule
0 1
C          15.972000    -24.772000    -10.833000
C          16.000000    -23.753000     -9.909000
N          15.387000    -25.913000    -10.577000
C          15.437000    -24.001000     -8.595000
C          14.838000    -26.125000     -9.323000
C          14.758000    -25.137000     -8.293000
C          14.224000    -25.480000     -6.955000
C          13.127000    -26.368000     -6.820000
C          14.824000    -25.087000     -5.714000
N          12.497000    -26.532000     -5.641000
N          15.982000    -24.438000     -5.600000
C          14.230000    -25.368000     -4.474000
C          12.999000    -26.103000     -4.478000
S          16.161000    -24.118000     -4.016000
N          14.824000    -24.788000     -3.405000
C          12.239000    -26.359000     -3.274000
S          12.690000    -25.898000     -1.628000
C          10.960000    -26.932000     -3.256000
C          11.257000    -26.737000     -0.943000
S          10.000000    -27.537000     -4.576000
C          10.431000    -27.042000     -1.971000
C          10.908000    -26.654000      0.455000
C           8.790000    -27.818000     -3.292000
C           9.178000    -27.592000     -1.949000
N           9.979000    -27.483000      0.871000
S          11.515000    -25.561000      1.627000
C           9.722000    -27.301000      2.216000
C          10.377000    -26.180000      2.815000
C          16.346000    -24.508000    -12.290000
H          16.477000    -22.803000    -10.134000
H          15.445000    -23.174000     -7.891000
H          14.312000    -27.065000     -9.165000
H          12.718000    -26.908000     -7.672000
H           7.829000    -28.214000     -3.592000
H           8.592000    -27.923000     -1.099000
H           9.089000    -27.978000      2.774000
H          10.322000    -25.790000      3.822000
H          17.311000    -23.986000    -12.277000
C          15.319000    -23.752000    -13.061000
H          16.667000    -25.465000    -12.720000
H          15.754000    -23.575000    -14.052000
H          15.157000    -22.777000    -12.585000
C          13.938000    -24.421000    -13.187000
H          13.550000    -24.824000    -12.243000
C          14.050000    -25.657000    -14.185000
H          13.228000    -23.670000    -13.557000
H          14.779000    -26.385000    -13.810000
H          14.508000    -25.319000    -15.123000
C          12.719000    -26.373000    -14.407000
H          12.386000    -26.898000    -13.503000
C          12.876000    -27.491000    -15.496000
H          11.973000    -25.664000    -14.787000
H          13.434000    -28.363000    -15.136000
H          13.362000    -27.062000    -16.382000
H          11.939000    -27.907000    -15.887000
C          10.731000    -16.110000     -9.583000
C          11.285000    -17.075000     -8.832000
N           9.403000    -15.812000     -9.464000
C          10.567000    -17.860000     -7.862000
C           8.674000    -16.475000     -8.544000
C           9.188000    -17.516000     -7.737000
C           8.357000    -18.457000     -6.922000
C           8.674000    -19.784000     -6.629000
C           7.155000    -18.013000     -6.240000
N           8.001000    -20.588000     -5.728000
N           6.661000    -16.810000     -6.325000
C           6.381000    -18.842000     -5.432000
C           6.850000    -20.158000     -5.181000
S           5.170000    -16.840000     -5.702000
N           5.221000    -18.317000     -4.938000
C           6.243000    -21.158000     -4.344000
S           7.265000    -22.441000     -3.565000
C           4.901000    -21.474000     -4.194000
C           5.837000    -23.204000     -2.842000
S           3.468000    -20.681000     -4.766000
C           4.703000    -22.610000     -3.361000
C           5.880000    -24.118000     -1.803000
C           2.592000    -21.835000     -3.731000
C           3.346000    -22.703000     -2.956000
N           4.909000    -25.084000     -1.731000
S           7.381000    -24.515000     -0.971000
C           5.273000    -25.989000     -0.712000
C           6.539000    -25.793000     -0.217000
C          11.400000    -15.347000    -10.685000
H          12.326000    -17.299000     -9.049000
H          11.154000    -18.601000     -7.327000
H           7.627000    -16.175000     -8.566000
H           9.603000    -20.162000     -7.052000
H           1.513000    -21.826000     -3.806000
H           3.001000    -23.372000     -2.176000
H           4.587000    -26.781000     -0.442000
H           7.079000    -26.436000      0.465000
H          11.675000    -16.048000    -11.482000
C          12.674000    -14.499000    -10.337000
H          10.704000    -14.700000    -11.232000
H          12.559000    -13.831000     -9.474000
H          12.786000    -13.881000    -11.236000
C          14.044000    -15.228000    -10.077000
H          14.020000    -15.759000     -9.118000
C          15.301000    -14.327000    -10.192000
H          14.211000    -15.994000    -10.845000
H          16.212000    -14.879000     -9.929000
H          15.171000    -13.523000     -9.458000
C          15.559000    -13.590000    -11.559000
H          15.888000    -14.339000    -12.290000
C          16.626000    -12.541000    -11.437000
H          14.589000    -13.167000    -11.847000
H          17.584000    -13.061000    -11.312000
H          16.585000    -11.962000    -10.506000
H          16.700000    -11.774000    -12.217000
$end

--------------------------------------------------------------

             Standard Nuclear Orientation (Angstroms)
    I     Atom           X                Y                Z
 ----------------------------------------------------------------
    1      C      -5.0557695872     5.7917424890    -0.9353855754
    2      C      -4.8687338125     4.9663034656     0.1493213148
    3      N      -4.0511857361     6.2043123258    -1.6635609772
    4      C      -3.5100346040     4.6271142289     0.5287368162
    5      C      -2.7618865201     5.8546822691    -1.2970540128
    6      C      -2.4337201890     4.9677548005    -0.2250882835
    7      C      -1.0217068732     4.7149814552     0.1428424597
    8      C      -0.0214703058     4.6106294219    -0.8565650959
    9      C      -0.5210161570     4.6985354849     1.4858124284
   10      N       1.2206276466     4.1793925154    -0.5649070645
   11      N      -1.2384294324     4.9919668183     2.5694993042
   12      C       0.8105803326     4.3705394048     1.7835813998
   13      C       1.6848644691     4.0789821169     0.6852992882
   14      S      -0.2648053778     4.7083947948     3.8403809304
   15      N       1.0899883770     4.2318135690     3.1006551590
   16      C       3.0457922780     3.6247371243     0.8704721415
   17      S       3.8834158240     3.4146692259     2.4130337362
   18      C       3.8765015484     3.1800348636    -0.1671482165
   19      C       5.4183924467     2.9890178463     1.5827911987
   20      S       3.5707290046     3.1174248868    -1.8796341704
   21      C       5.1305070349     2.7659737645     0.2791584563
   22      C       6.5877974252     2.5429790219     2.3015647119
   23      C       5.1924837885     2.3696827337    -1.9297349999
   24      C       5.9420265209     2.3215428514    -0.7292612417
   25      N       7.7028852115     2.4784823025     1.6118130160
   26      S       6.6858745870     2.0268777704     3.9327306656
   27      C       8.7444865922     2.0277407176     2.3992751340
   28      C       8.3721004052     1.5850794672     3.7068861409
   29      C      -6.4526179230     6.0072649226    -1.5139923566
   30      H      -5.7099884213     4.6172840216     0.7418836414
   31      H      -3.3870779151     3.9522164994     1.3707603951
   32      H      -1.9562255162     6.1705772524    -1.9576300541
   33      H      -0.2324505661     4.8214325145    -1.9033861819
   34      H       5.5606461066     2.0439891209    -2.8934347344
   35      H       6.9979354041     2.0774006454    -0.6991279770
   36      H       9.7690740425     2.0362788149     2.0521013194
   37      H       8.9688708779     1.1546781097     4.4992204607
   38      H      -7.1036005617     6.2743719145    -0.6721173902
   39      C      -6.9870921410     4.8454636237    -2.2790159197
   40      H      -6.4394079078     6.9694229579    -2.0411236596
   41      H      -8.0111559018     5.1156167282    -2.5635255225
   42      H      -7.0404213433     3.9723255510    -1.6170258124
   43      C      -6.1759993209     4.4177023107    -3.5158452112
   44      H      -5.0952549998     4.3494987030    -3.3385630062
   45      C      -6.3701344743     5.5040689815    -4.6640451062
   46      H      -6.5345300179     3.4300392872    -3.8336163418
   47      H      -6.0271153478     6.4871797827    -4.3207070349
   48      H      -7.4432371873     5.6663119625    -4.8252275569
   49      C      -5.6297098211     5.1546727500    -5.9536941306
   50      H      -4.5418572071     5.2170195326    -5.8255552646
   51      C      -5.9704427166     6.1948633284    -7.0772592842
   52      H      -5.9600341734     4.1745371412    -6.3195042054
   53      H      -5.4962030386     7.1696597168    -6.9153434756
   54      H      -7.0607169005     6.3038508817    -7.1455008936
   55      H      -5.6716961097     5.9097402108    -8.0938030721
   56      C      -6.2153180143    -4.2065839328     0.7228487894
   57      C      -5.3953826463    -3.2085034108     1.0884760093
   58      N      -5.7191629323    -5.3319599052     0.1279470703
   59      C      -3.9679150994    -3.2225430912     0.9019598172
   60      C      -4.3857075811    -5.4372347799    -0.0400530098
   61      C      -3.4687522652    -4.4165557000     0.3013165328
   62      C      -2.0349460129    -4.3760160907    -0.1262617299
   63      C      -1.2857202255    -3.2237283822    -0.3674271425
   64      C      -1.2347227792    -5.5837437363    -0.2162656763
   65      N       0.0798491093    -3.1861443844    -0.5794503371
   66      N      -1.6902377259    -6.7869734145    -0.0083847617
   67      C       0.1144631189    -5.5859350332    -0.5610462018
   68      C       0.7629081812    -4.3347694763    -0.7311101618
   69      S      -0.5795136207    -7.8365171234    -0.5345596046
   70      N       0.7137800998    -6.8043851778    -0.7075364792
   71      C       2.1494129897    -4.1025420274    -1.0355651306
   72      S       2.9534009464    -2.5596673833    -0.5154159232
   73      C       2.9794981603    -4.7917720483    -1.9069092576
   74      C       4.4775596903    -3.0415987666    -1.2827256816
   75      S       2.7474432442    -6.2755432514    -2.7752959991
   76      C       4.2600018367    -4.1841263075    -2.0280124713
   77      C       5.7045272554    -2.4560291681    -1.0211442618
   78      C       4.4732448704    -6.1332327388    -3.1896309662
   79      C       5.1800421385    -5.0739039585    -2.6411556641
   80      N       6.6429491187    -2.4116938500    -2.0204339025
   81      S       5.9099786229    -1.2439074642     0.2403567135
   82      C       7.7164823755    -1.6142877344    -1.5714886571
   83      C       7.4690061627    -0.9578357261    -0.3908010249
   84      C      -7.7120354957    -4.1952881382     0.7848422219
   85      H      -5.8833340580    -2.3200604741     1.4802904655
   86      H      -3.4373828776    -2.3427904127     1.2547285607
   87      H      -4.1150435127    -6.3596034041    -0.5525665055
   88      H      -1.8075993180    -2.2760144073    -0.2477006436
   89      H       4.8611634240    -6.8587088672    -3.8918777768
   90      H       6.2498243731    -4.9010357158    -2.6670118247
   91      H       8.6007446102    -1.5264308783    -2.1888390221
   92      H       8.0825241867    -0.1971944571     0.0730885031
   93      H      -8.0862348598    -3.4118527054     0.1151865203
   94      C      -8.3981689045    -3.9943422132     2.1820271347
   95      H      -8.1596860436    -5.0784624391     0.3138367640
   96      H      -8.0239764009    -4.6529458196     2.9760291875
   97      H      -9.4362583803    -4.2741151306     1.9657718343
   98      C      -8.4093239258    -2.5662815669     2.8426778411
   99      H      -7.4053237749    -2.2972754044     3.1917299597
  100      C      -9.4674267862    -2.3657863674     3.9586057114
  101      H      -8.6842003344    -1.8112022853     2.0951704909
  102      H      -9.3728435237    -1.3766991125     4.4239597795
  103      H      -9.2527143046    -3.1200667721     4.7247855998
  104      C     -10.9819321776    -2.5839087503     3.5883111727
  105      H     -11.3045390126    -1.7360900867     2.9712768595
  106      C     -11.8536952430    -2.6450956117     4.8089910348
  107      H     -11.0070131711    -3.5157448781     3.0105349403
  108      H     -11.8997065044    -1.6329099997     5.2298856186
  109      H     -11.4143870434    -3.1960802596     5.6498877132
  110      H     -12.8591727463    -3.0721948480     4.7153628726
 ----------------------------------------------------------------

   10   -5663.5070900761      4.44E-06 Convergence criterion met
 Total energy in the final basis set = -5663.5070900761

                    Orbital Energies (a.u.)
 --------------------------------------------------------------

 Alpha MOs
 -- Occupied --
-88.990 -88.986 -88.932 -88.922 -88.921 -88.916 -88.916 -88.910
-14.391 -14.391 -14.382 -14.379 -14.350 -14.348 -14.347 -14.343
-14.330 -14.327 -10.272 -10.264 -10.261 -10.259 -10.258 -10.257
-10.256 -10.254 -10.246 -10.243 -10.241 -10.240 -10.238 -10.238
-10.236 -10.234 -10.230 -10.230 -10.230 -10.229 -10.227 -10.227
-10.226 -10.224 -10.223 -10.223 -10.223 -10.222 -10.222 -10.222
-10.215 -10.210 -10.205 -10.202 -10.200 -10.197 -10.195 -10.193
-10.189 -10.188 -10.185 -10.182 -10.182 -10.181 -10.180 -10.175
-10.174 -10.173 -10.170 -10.166  -8.046  -8.042  -7.994  -7.983
 -7.980  -7.975  -7.974  -7.971  -6.011  -6.007  -6.005  -6.003
 -6.001  -5.999  -5.958  -5.954  -5.951  -5.947  -5.944  -5.944
 -5.941  -5.940  -5.939  -5.939  -5.937  -5.936  -5.935  -5.935
 -5.932  -5.931  -5.931  -5.927  -1.048  -1.044  -0.976  -0.961
 -0.953  -0.950  -0.942  -0.936  -0.917  -0.911  -0.910  -0.903
 -0.842  -0.840  -0.838  -0.829  -0.812  -0.810  -0.806  -0.805
 -0.805  -0.803  -0.798  -0.795  -0.787  -0.777  -0.768  -0.765
 -0.753  -0.749  -0.744  -0.743  -0.716  -0.715  -0.714  -0.708
 -0.694  -0.693  -0.676  -0.672  -0.657  -0.655  -0.649  -0.645
 -0.639  -0.638  -0.632  -0.627  -0.614  -0.612  -0.598  -0.597
 -0.593  -0.588  -0.584  -0.581  -0.577  -0.576  -0.562  -0.562
 -0.560  -0.552  -0.543  -0.541  -0.529  -0.520  -0.515  -0.511
 -0.508  -0.506  -0.500  -0.499  -0.490  -0.482  -0.477  -0.476
 -0.475  -0.472  -0.471  -0.467  -0.465  -0.464  -0.454  -0.453
 -0.448  -0.441  -0.438  -0.438  -0.436  -0.431  -0.431  -0.425
 -0.424  -0.423  -0.421  -0.420  -0.418  -0.417  -0.416  -0.416
 -0.412  -0.406  -0.405  -0.401  -0.398  -0.396  -0.396  -0.395
 -0.394  -0.394  -0.391  -0.390  -0.388  -0.388  -0.388  -0.383
 -0.379  -0.377  -0.376  -0.375  -0.368  -0.365  -0.362  -0.359
 -0.359  -0.357  -0.352  -0.350  -0.346  -0.345  -0.342  -0.341
 -0.339  -0.339  -0.330  -0.328  -0.328  -0.324  -0.319  -0.319
 -0.316  -0.313  -0.313  -0.309  -0.308  -0.305  -0.301  -0.300
 -0.295  -0.293  -0.292  -0.291  -0.288  -0.286  -0.283  -0.276
 -0.275  -0.269  -0.268  -0.265  -0.258  -0.254  -0.253  -0.250
 -0.245  -0.241  -0.231  -0.230  -0.195  -0.188

          Ground-State Mulliken Net Atomic Charges

     Atom                 Charge (a.u.)
  ----------------------------------------
      1 C                     0.268565
      2 C                    -0.112046
      3 N                    -0.466451
      4 C                    -0.091933
      5 C                     0.053374
      6 C                     0.073617
      7 C                     0.031150
      8 C                     0.062006
      9 C                     0.234454
     10 N                    -0.548077
     11 N                    -0.552749
     12 C                     0.188652
     13 C                     0.338935
     14 S                     0.599778
     15 N                    -0.551691
     16 C                    -0.223794
     17 S                     0.303656
     18 C                    -0.093637
     19 C                    -0.217322
     20 S                     0.308458
     21 C                     0.158018
     22 C                     0.043720
     23 C                    -0.312284
     24 C                    -0.060902
     25 N                    -0.434620
     26 S                     0.288640
     27 C                     0.104751
     28 C                    -0.315641
     29 C                    -0.217819
     30 H                     0.090194
     31 H                     0.098375
     32 H                     0.097751
     33 H                     0.120623
     34 H                     0.119579
     35 H                     0.131553
     36 H                     0.117531
     37 H                     0.143623
     38 H                     0.090102
     39 C                    -0.173535
     40 H                     0.112559
     41 H                     0.096180
     42 H                     0.086020
     43 C                    -0.175864
     44 H                     0.107671
     45 C                    -0.169779
     46 H                     0.086305
     47 H                     0.107062
     48 H                     0.081856
     49 C                    -0.174430
     50 H                     0.099532
     51 C                    -0.326693
     52 H                     0.092407
     53 H                     0.103042
     54 H                     0.097617
     55 H                     0.093984
     56 C                     0.289932
     57 C                    -0.119289
     58 N                    -0.488471
     59 C                    -0.085931
     60 C                     0.094601
     61 C                     0.026059
     62 C                     0.073924
     63 C                     0.042680
     64 C                     0.234916
     65 N                    -0.524443
     66 N                    -0.542445
     67 C                     0.214254
     68 C                     0.284281
     69 S                     0.590029
     70 N                    -0.559158
     71 C                    -0.226461
     72 S                     0.304843
     73 C                    -0.106165
     74 C                    -0.190382
     75 S                     0.286431
     76 C                     0.127785
     77 C                     0.016309
     78 C                    -0.308340
     79 C                    -0.046037
     80 N                    -0.430779
     81 S                     0.292649
     82 C                     0.110135
     83 C                    -0.307746
     84 C                    -0.244972
     85 H                     0.083987
     86 H                     0.116047
     87 H                     0.121999
     88 H                     0.101711
     89 H                     0.121853
     90 H                     0.127838
     91 H                     0.113600
     92 H                     0.138342
     93 H                     0.110008
     94 C                    -0.182275
     95 H                     0.125593
     96 H                     0.103155
     97 H                     0.100442
     98 C                    -0.184635
     99 H                     0.093589
    100 C                    -0.183248
    101 H                     0.085275
    102 H                     0.089318
    103 H                     0.090075
    104 C                    -0.173598
    105 H                     0.095445
    106 C                    -0.317226
    107 H                     0.097385
    108 H                     0.100818
    109 H                     0.100666
    110 H                     0.103551
  ----------------------------------------
  Sum of atomic charges =     0.000000

                    Cartesian Multipole Moments
 -----------------------------------------------------------------
    Charge (ESU x 10^10)
                 0.0000
    Dipole Moment (Debye)
         X       1.2069      Y      -0.2940      Z       3.0963
       Tot       3.3362
    Quadrupole Moments (Debye-Ang)
        XX    -395.9140     XY      -7.3547     YY    -463.3331
        XZ       1.0890     YZ      12.8801     ZZ    -436.4902

 Total job time:  90.14s(wall), 1054.56s(cpu)
        *  Thank you very much for using Q-Chem.  Have a nice day.  *
