 Q-Chem 4.4, Q-Chem, Inc., Pleasanton, CA (2016)
 Q-Chem 4.4.2 for Intel X86 Linux

User input:
--------------------------------------------------------------
$comment
SP
$end

$rem
MEM_STATIC 5000
MEM_TOTAL 20000
JOBTYPE SP
EXCHANGE B3LYP
BASIS 6-31g(d,p)
$end

$molecule
0 1
C         -17.561000     21.699000     -5.864000
C         -18.676000     21.815000     -5.028000
N         -17.005000     20.574000     -6.251000
C         -19.157000     20.655000     -4.392000
C         -17.536000     19.463000     -5.722000
C         -18.609000     19.439000     -4.744000
C         -19.182000     18.100000     -4.360000
C         -20.265000     17.581000     -5.019000
C         -18.842000     17.529000     -3.127000
N         -20.887000     16.472000     -4.639000
N         -17.845000     17.973000     -2.411000
C         -19.540000     16.465000     -2.575000
C         -20.517000     15.940000     -3.433000
S         -17.999000     17.286000     -0.970000
N         -19.188000     16.161000     -1.315000
C         -21.496000     15.013000     -2.947000
S         -21.723000     14.693000     -1.179000
C         -22.471000     14.402000     -3.713000
C         -23.001000     13.521000     -1.604000
S         -22.603000     14.170000     -5.449000
C         -23.269000     13.525000     -2.941000
C         -23.578000     12.570000     -0.642000
C         -24.090000     13.177000     -5.100000
C         -24.198000     12.870000     -3.758000
N         -24.115000     11.433000     -1.016000
S         -23.366000     12.810000      1.073000
C         -24.149000     10.504000     -0.005000
C         -23.727000     11.073000      1.191000
C         -16.935000     23.001000     -6.253000
H         -19.045000     22.822000     -4.859000
H         -19.908000     20.707000     -3.609000
H         -17.201000     18.511000     -6.131000
H         -20.535000     18.056000     -5.961000
H         -24.776000     13.011000     -5.920000
H         -25.066000     12.313000     -3.423000
H         -24.520000      9.509000     -0.214000
H         -23.572000     10.511000      2.102000
H         -16.876000     23.701000     -5.411000
C         -17.784000     23.639000     -7.358000
H         -15.876000     22.912000     -6.528000
H         -18.822000     23.385000     -7.109000
H         -17.460000     23.154000     -8.286000
C         -17.708000     25.196000     -7.598000
H         -18.108000     25.784000     -6.763000
C         -18.383000     25.554000     -8.931000
H         -16.705000     25.638000     -7.635000
H         -18.000000     24.901000     -9.724000
H         -18.141000     26.591000     -9.196000
C         -19.921000     25.259000     -8.903000
H         -20.291000     25.630000     -9.866000
C         -20.644000     26.142000     -7.841000
H         -20.237000     24.216000     -8.777000
H         -20.135000     26.173000     -6.869000
H         -21.653000     25.774000     -7.615000
H         -20.629000     27.173000     -8.216000
C         -23.666000     10.347000     -8.030000
C         -23.420000      8.966000     -8.381000
N         -23.974000     10.771000     -6.801000
C         -23.526000      8.015000     -7.357000
C         -24.040000      9.837000     -5.872000
C         -23.902000      8.423000     -6.087000
C         -24.192000      7.518000     -4.898000
C         -25.009000      8.012000     -3.787000
C         -23.809000      6.131000     -4.758000
N         -25.295000      7.354000     -2.671000
N         -23.200000      5.334000     -5.716000
C         -23.980000      5.485000     -3.517000
C         -24.762000      6.094000     -2.483000
S         -22.805000      3.964000     -4.977000
N         -23.444000      4.234000     -3.505000
C         -24.995000      5.397000     -1.220000
S         -24.368000      3.850000     -0.732000
C         -25.757000      5.941000     -0.140000
C         -25.183000      3.926000      0.797000
S         -26.503000      7.519000     -0.014000
C         -25.777000      5.135000      0.981000
C         -24.906000      2.864000      1.790000
C         -26.948000      6.972000      1.739000
C         -26.446000      5.754000      2.090000
N         -24.675000      1.667000      1.221000
S         -25.536000      2.865000      3.442000
C         -24.842000      0.767000      2.209000
C         -25.176000      1.172000      3.457000
C         -23.473000     11.384000     -9.136000
H         -23.184000      8.762000     -9.421000
H         -23.462000      6.971000     -7.652000
H         -24.151000     10.252000     -4.871000
H         -25.474000      8.996000     -3.780000
H         -27.561000      7.712000      2.236000
H         -26.516000      5.347000      3.093000
H         -24.664000     -0.297000      2.122000
H         -25.175000      0.654000      4.407000
H         -23.207000     12.335000     -8.659000
C         -24.698000     11.560000    -10.075000
H         -22.577000     11.151000     -9.724000
H         -25.625000     11.857000     -9.570000
H         -24.933000     10.596000    -10.543000
C         -24.652000     12.664000    -11.097000
H         -24.116000     12.377000    -12.010000
C         -23.835000     13.905000    -10.690000
H         -25.672000     13.002000    -11.320000
H         -22.818000     13.506000    -10.589000
H         -24.139000     14.256000     -9.697000
C         -23.829000     15.011000    -11.702000
H         -24.894000     15.271000    -11.714000
C         -23.206000     14.660000    -13.031000
H         -23.191000     15.897000    -11.599000
H         -22.235000     14.257000    -12.718000
H         -23.116000     15.628000    -13.539000
H         -23.712000     13.840000    -13.555000
$end

--------------------------------------------------------------

             Standard Nuclear Orientation (Angstroms)
    I     Atom           X                Y                Z
 ----------------------------------------------------------------
    1      C     -10.7304903169    -1.6508707922     1.3847572555
    2      C     -10.2082203511    -2.2135301390     0.2159007449
    3      N     -10.0312049332    -1.1079242060     2.3546742399
    4      C      -8.8141403765    -2.3846761211     0.1225890237
    5      C      -8.7008869067    -1.1810373065     2.2096520931
    6      C      -8.0197033586    -1.8479164635     1.1143666674
    7      C      -6.5217858538    -1.7138870532     1.0307887641
    8      C      -5.9430663241    -0.7123157462     0.2969838696
    9      C      -5.7079616557    -2.7886544587     1.4109140048
   10      N      -4.6359471153    -0.6260843929     0.0844549833
   11      N      -6.1741825880    -3.8037867872     2.0861512948
   12      C      -4.3598857000    -2.8584729345     1.0918206043
   13      C      -3.8751655562    -1.6929558327     0.4811371613
   14      S      -5.0341635665    -4.9303729561     2.0284777770
   15      N      -3.7784100384    -4.0338410446     1.3821925395
   16      C      -2.5836827560    -1.6750320038    -0.1399239573
   17      S      -1.6385051614    -3.1909586568    -0.4371758668
   18      C      -1.9923539382    -0.5726411904    -0.7279432799
   19      C      -0.3399441194    -2.1867564222    -1.1391802060
   20      S      -2.3239853260     1.1443484500    -0.5638969533
   21      C      -0.7062250238    -0.8766451863    -1.2332857243
   22      C       1.0067280527    -2.6981443834    -1.4353734097
   23      C      -0.8615491483     1.4227753419    -1.6140292745
   24      C      -0.1070506042     0.2750735068    -1.7568208874
   25      N       2.0608038369    -1.9180112608    -1.4718501449
   26      S       1.2993647565    -4.4156750981    -1.5260431606
   27      C       3.2354442773    -2.6034816207    -1.2803606630
   28      C       2.9968531766    -3.9722367028    -1.2374093906
   29      C     -12.2136222321    -1.7820890568     1.5313945261
   30      H     -10.9333454496    -2.5625217791    -0.5129129670
   31      H      -8.3657469207    -2.9622917122    -0.6805906185
   32      H      -8.0942071830    -0.6148163051     2.9147361238
   33      H      -6.5961329624     0.1005570809    -0.0170714327
   34      H      -0.7741172282     2.3895557763    -2.0917773786
   35      H       0.7702578740     0.3086175056    -2.3932976224
   36      H       4.1665842271    -2.0537238637    -1.2346244338
   37      H       3.7527558484    -4.7065462956    -0.9941182631
   38      H     -12.5740545624    -2.7735626851     1.2322063250
   39      C     -12.8861441613    -0.7307033682     0.6419158087
   40      H     -12.5553599520    -1.7390231664     2.5736937441
   41      H     -12.2543440544    -0.6608578100    -0.2524617530
   42      H     -12.8648091331     0.1965069872     1.2260483052
   43      C     -14.3755395378    -0.9468656038     0.1701104459
   44      H     -14.4959426715    -1.7979782344    -0.5111232697
   45      C     -14.9290187194     0.3548304477    -0.4298280385
   46      H     -15.0930516460    -1.2583186316     0.9388206553
   47      H     -14.7314705005     1.1881600426     0.2546304975
   48      H     -16.0155662400     0.2661515632    -0.5551617572
   49      C     -14.1790247026     0.7551646323    -1.7453106553
   50      H     -14.7154524727     1.6384927057    -2.1112160561
   51      C     -14.3858352926    -0.3158568836    -2.8590450457
   52      H     -13.1105047421     0.9921812024    -1.6700163023
   53      H     -14.2473883912    -1.3482662007    -2.5129389097
   54      H     -13.6692650779    -0.2000081955    -3.6822626408
   55      H     -15.4331736722    -0.2488823812    -3.1790571311
   56      C       0.5478296238     4.8384545359     0.1524256840
   57      C       1.5833282560     5.4871616035     0.9256007762
   58      N       0.6762254302     3.6426298484    -0.4294667749
   59      C       2.8042673854     4.8117244917     1.0571505773
   60      C       1.8379076545     3.0424413669    -0.2562005162
   61      C       2.9817195190     3.5972041144     0.4135738583
   62      C       4.2739634125     2.7963098695     0.3392762928
   63      C       4.4589242514     1.8064381288    -0.7245796303
   64      C       5.4360146233     2.9564382117     1.1842933917
   65      N       5.5057454976     1.0057426782    -0.8771183916
   66      N       5.6364201853     3.9324301390     2.1492448769
   67      C       6.4781076335     2.0096397877     1.1190791112
   68      C       6.5241524371     1.0526407802     0.0543755019
   69      S       6.9794418242     3.5248239018     2.9297549877
   70      N       7.4288573258     2.2180747176     2.0704312556
   71      C       7.6382474817     0.1130935691    -0.0519742492
   72      S       8.9829405450    -0.0637641863     1.0366045950
   73      C       7.7512698517    -0.8737611577    -1.0797503397
   74      C       9.6787403725    -1.3314368109     0.0791544829
   75      S       6.6208146593    -1.2529862330    -2.3606622806
   76      C       8.8487870035    -1.6987592087    -0.9330829701
   77      C      10.8690651565    -2.0339039786     0.6085775527
   78      C       7.8307826008    -2.6440411944    -2.7744093952
   79      C       8.8758249218    -2.7540881662    -1.9057868009
   80      N      11.6727435047    -1.2279229185     1.3258129696
   81      S      11.6151376486    -3.4378999112    -0.1648409999
   82      C      12.8552463036    -1.8698202990     1.3865409174
   83      C      13.0149727731    -3.0723980415     0.7853926595
   84      C      -0.8040489549     5.5476242378     0.0792365975
   85      H       1.3445699689     6.4625216439     1.3386132119
   86      H       3.6151007460     5.3573337315     1.5324576557
   87      H       1.8370108559     2.0180219736    -0.6264856799
   88      H       3.7300673476     1.6368804711    -1.5148630064
   89      H       7.5285567843    -3.1723265366    -3.6688098385
   90      H       9.5944162695    -3.5659810445    -1.9376369078
   91      H      13.7178311285    -1.5390356638     1.9503475731
   92      H      13.7925998096    -3.8204929012     0.8658617418
   93      H      -1.5739823406     4.7827437552    -0.0783909031
   94      C      -0.8931351843     6.6540487944    -1.0075984150
   95      H      -1.0713772784     5.9593988902     1.0599639822
   96      H      -0.7008183998     6.3094947003    -2.0307600497
   97      H      -0.1182663188     7.4070663119    -0.8176303656
   98      C      -2.2309227513     7.2994991992    -1.2507736615
   99      H      -2.4467033718     8.1110783125    -0.5450739614
  100      C      -3.4535895358     6.3971577222    -0.9976239176
  101      H      -2.2890507784     7.6458261904    -2.2905100452
  102      H      -3.3809399691     6.1822413216     0.0757930476
  103      H      -3.3401996147     5.4410875176    -1.5217789421
  104      C      -4.7773864645     7.0417141245    -1.2796252223
  105      H      -4.6817158884     7.2219871206    -2.3568057029
  106      C      -5.1020337179     8.2403151769    -0.4219943705
  107      H      -5.7298810846     6.5606670473    -1.0266495158
  108      H      -4.9407998473     7.8385023362     0.5858593292
  109      H      -6.1609876128     8.4319743055    -0.6342946933
  110      H      -4.3897604571     9.0675634366    -0.5284796685
 ----------------------------------------------------------------

    9   -5663.4709240324      7.22E-06 Convergence criterion met
 Total energy in the final basis set = -5663.4709240324

                    Orbital Energies (a.u.)
 --------------------------------------------------------------

 Alpha MOs
 -- Occupied --
-88.991 -88.984 -88.934 -88.923 -88.918 -88.918 -88.915 -88.899
-14.387 -14.384 -14.380 -14.375 -14.355 -14.352 -14.343 -14.332
-14.330 -14.325 -10.278 -10.265 -10.261 -10.259 -10.255 -10.253
-10.248 -10.242 -10.242 -10.241 -10.240 -10.236 -10.233 -10.233
-10.233 -10.231 -10.231 -10.230 -10.229 -10.228 -10.224 -10.223
-10.222 -10.221 -10.221 -10.219 -10.219 -10.216 -10.215 -10.210
-10.209 -10.208 -10.207 -10.207 -10.201 -10.198 -10.195 -10.187
-10.186 -10.184 -10.181 -10.178 -10.178 -10.177 -10.177 -10.176
-10.171 -10.171 -10.170 -10.169  -8.047  -8.040  -7.996  -7.982
 -7.979  -7.976  -7.973  -7.958  -6.012  -6.006  -6.005  -6.004
 -6.000  -5.998  -5.960  -5.956  -5.953  -5.947  -5.943  -5.943
 -5.940  -5.940  -5.939  -5.937  -5.937  -5.936  -5.934  -5.932
 -5.929  -5.923  -5.919  -5.914  -1.045  -1.034  -0.982  -0.960
 -0.958  -0.953  -0.947  -0.945  -0.917  -0.912  -0.899  -0.895
 -0.844  -0.831  -0.830  -0.827  -0.820  -0.816  -0.807  -0.807
 -0.806  -0.798  -0.794  -0.790  -0.787  -0.782  -0.767  -0.759
 -0.752  -0.744  -0.738  -0.730  -0.728  -0.715  -0.712  -0.707
 -0.692  -0.689  -0.675  -0.672  -0.660  -0.650  -0.644  -0.638
 -0.634  -0.631  -0.629  -0.625  -0.609  -0.608  -0.601  -0.595
 -0.595  -0.588  -0.584  -0.581  -0.580  -0.569  -0.553  -0.553
 -0.546  -0.544  -0.542  -0.536  -0.524  -0.520  -0.519  -0.506
 -0.503  -0.500  -0.498  -0.494  -0.490  -0.488  -0.478  -0.474
 -0.474  -0.469  -0.466  -0.464  -0.464  -0.460  -0.456  -0.454
 -0.452  -0.445  -0.442  -0.439  -0.436  -0.432  -0.430  -0.424
 -0.424  -0.422  -0.422  -0.421  -0.418  -0.416  -0.412  -0.411
 -0.409  -0.406  -0.404  -0.401  -0.400  -0.398  -0.395  -0.395
 -0.393  -0.392  -0.390  -0.386  -0.383  -0.382  -0.380  -0.379
 -0.378  -0.375  -0.375  -0.371  -0.367  -0.361  -0.355  -0.352
 -0.351  -0.350  -0.348  -0.346  -0.345  -0.341  -0.340  -0.339
 -0.337  -0.335  -0.334  -0.330  -0.324  -0.319  -0.319  -0.316
 -0.313  -0.310  -0.309  -0.309  -0.305  -0.303  -0.302  -0.301
 -0.297  -0.296  -0.293  -0.292  -0.287  -0.286  -0.283  -0.275
 -0.274  -0.267  -0.266  -0.260  -0.259  -0.257  -0.247  -0.244
 -0.238  -0.235  -0.234  -0.227  -0.194  -0.186

          Ground-State Mulliken Net Atomic Charges

     Atom                 Charge (a.u.)
  ----------------------------------------
      1 C                     0.279770
      2 C                    -0.105425
      3 N                    -0.468235
      4 C                    -0.064471
      5 C                     0.073278
      6 C                     0.023600
      7 C                    -0.024739
      8 C                     0.087184
      9 C                     0.217832
     10 N                    -0.497500
     11 N                    -0.522022
     12 C                     0.256771
     13 C                     0.274861
     14 S                     0.589837
     15 N                    -0.585745
     16 C                    -0.222478
     17 S                     0.314470
     18 C                    -0.114046
     19 C                    -0.235587
     20 S                     0.259018
     21 C                     0.174728
     22 C                     0.067474
     23 C                    -0.263849
     24 C                    -0.067196
     25 N                    -0.438389
     26 S                     0.243654
     27 C                     0.127105
     28 C                    -0.324546
     29 C                    -0.237195
     30 H                     0.094248
     31 H                     0.097932
     32 H                     0.099716
     33 H                     0.111016
     34 H                     0.144002
     35 H                     0.114135
     36 H                     0.140516
     37 H                     0.122665
     38 H                     0.100547
     39 C                    -0.177256
     40 H                     0.110080
     41 H                     0.101673
     42 H                     0.110446
     43 C                    -0.183198
     44 H                     0.089663
     45 C                    -0.176548
     46 H                     0.085709
     47 H                     0.094768
     48 H                     0.087740
     49 C                    -0.182405
     50 H                     0.093594
     51 C                    -0.317634
     52 H                     0.101399
     53 H                     0.098503
     54 H                     0.097227
     55 H                     0.102159
     56 C                     0.270480
     57 C                    -0.118290
     58 N                    -0.486923
     59 C                    -0.079107
     60 C                     0.069259
     61 C                     0.052967
     62 C                     0.025170
     63 C                     0.067199
     64 C                     0.203058
     65 N                    -0.530762
     66 N                    -0.556317
     67 C                     0.209793
     68 C                     0.312934
     69 S                     0.620307
     70 N                    -0.567137
     71 C                    -0.231883
     72 S                     0.381163
     73 C                    -0.122117
     74 C                    -0.242694
     75 S                     0.263332
     76 C                     0.154419
     77 C                     0.024269
     78 C                    -0.313068
     79 C                    -0.051365
     80 N                    -0.408927
     81 S                     0.280583
     82 C                     0.132429
     83 C                    -0.306978
     84 C                    -0.244833
     85 H                     0.096198
     86 H                     0.123088
     87 H                     0.113947
     88 H                     0.121450
     89 H                     0.131948
     90 H                     0.121753
     91 H                     0.110700
     92 H                     0.143888
     93 H                     0.122337
     94 C                    -0.170637
     95 H                     0.105254
     96 H                     0.103133
     97 H                     0.094092
     98 C                    -0.185040
     99 H                     0.091549
    100 C                    -0.183179
    101 H                     0.090279
    102 H                     0.087169
    103 H                     0.090531
    104 C                    -0.161927
    105 H                     0.085799
    106 C                    -0.318752
    107 H                     0.092888
    108 H                     0.102468
    109 H                     0.102478
    110 H                     0.102774
  ----------------------------------------
  Sum of atomic charges =     0.000000

                    Cartesian Multipole Moments
 -----------------------------------------------------------------
    Charge (ESU x 10^10)
                 0.0000
    Dipole Moment (Debye)
         X       3.9574      Y      -1.7716      Z      -1.3144
       Tot       4.5307
    Quadrupole Moments (Debye-Ang)
        XX    -382.0248     XY     -23.0156     YY    -408.5098
        XZ      16.3994     YZ      10.6956     ZZ    -448.7836

 Total job time:  83.48s(wall), 986.99s(cpu)
        *  Thank you very much for using Q-Chem.  Have a nice day.  *
