 Q-Chem 4.4, Q-Chem, Inc., Pleasanton, CA (2016)
 Q-Chem 4.4.2 for Intel X86 Linux

User input:
--------------------------------------------------------------
$comment
SP
$end

$rem
MEM_STATIC 5000
MEM_TOTAL 20000
JOBTYPE SP
EXCHANGE B3LYP
BASIS 6-31g(d,p)
$end

$molecule
0 1
C         -20.454000     11.106000     15.225000
C         -20.989000     11.884000     14.206000
N         -20.625000      9.741000     15.296000
C         -21.714000     11.230000     13.175000
C         -21.407000      9.219000     14.365000
C         -22.026000      9.879000     13.316000
C         -23.045000      9.306000     12.387000
C         -23.091000      9.615000     10.952000
C         -23.924000      8.233000     12.775000
N         -23.875000      8.917000     10.069000
N         -24.057000      7.906000     14.044000
C         -24.562000      7.421000     11.845000
C         -24.558000      7.804000     10.446000
S         -24.784000      6.472000     13.989000
N         -25.044000      6.315000     12.358000
C         -25.214000      7.047000      9.367000
S         -26.294000      5.662000      9.593000
C         -25.111000      7.301000      7.973000
C         -26.459000      5.431000      7.797000
S         -24.456000      8.661000      7.147000
C         -25.762000      6.436000      7.146000
C         -27.323000      4.548000      7.132000
C         -25.066000      8.023000      5.566000
C         -25.706000      6.814000      5.762000
N         -27.142000      4.241000      5.868000
S         -28.737000      3.847000      7.925000
C         -28.216000      3.634000      5.318000
C         -29.194000      3.398000      6.283000
C         -19.623000     11.623000     16.389000
H         -20.784000     12.950000     14.191000
H         -21.945000     11.813000     12.288000
H         -21.566000      8.155000     14.533000
H         -22.463000     10.357000     10.462000
H         -24.809000      8.517000      4.638000
H         -26.255000      6.324000      4.966000
H         -28.322000      3.409000      4.265000
H         -30.166000      2.946000      6.137000
H         -19.636000     10.854000     17.171000
C         -20.087000     13.065000     16.822000
H         -18.565000     11.707000     16.113000
H         -21.170000     13.025000     16.993000
H         -19.910000     13.805000     16.032000
C         -19.402000     13.460000     18.136000
H         -20.000000     14.286000     18.541000
C         -17.986000     13.936000     17.792000
H         -19.593000     12.756000     18.955000
H         -17.984000     14.861000     17.201000
H         -17.529000     13.136000     17.197000
C         -17.087000     14.132000     19.004000
H         -16.849000     13.253000     19.614000
C         -17.444000     15.337000     19.919000
H         -16.063000     14.209000     18.619000
H         -17.103000     16.259000     19.432000
H         -16.921000     15.253000     20.880000
H         -18.508000     15.462000     20.151000
C         -23.666000     10.347000     -8.030000
C         -23.420000      8.966000     -8.381000
N         -23.974000     10.771000     -6.801000
C         -23.526000      8.015000     -7.357000
C         -24.040000      9.837000     -5.872000
C         -23.902000      8.423000     -6.087000
C         -24.192000      7.518000     -4.898000
C         -25.009000      8.012000     -3.787000
C         -23.809000      6.131000     -4.758000
N         -25.295000      7.354000     -2.671000
N         -23.200000      5.334000     -5.716000
C         -23.980000      5.485000     -3.517000
C         -24.762000      6.094000     -2.483000
S         -22.805000      3.964000     -4.977000
N         -23.444000      4.234000     -3.505000
C         -24.995000      5.397000     -1.220000
S         -24.368000      3.850000     -0.732000
C         -25.757000      5.941000     -0.140000
C         -25.183000      3.926000      0.797000
S         -26.503000      7.519000     -0.014000
C         -25.777000      5.135000      0.981000
C         -24.906000      2.864000      1.790000
C         -26.948000      6.972000      1.739000
C         -26.446000      5.754000      2.090000
N         -24.675000      1.667000      1.221000
S         -25.536000      2.865000      3.442000
C         -24.842000      0.767000      2.209000
C         -25.176000      1.172000      3.457000
C         -23.473000     11.384000     -9.136000
H         -23.184000      8.762000     -9.421000
H         -23.462000      6.971000     -7.652000
H         -24.151000     10.252000     -4.871000
H         -25.474000      8.996000     -3.780000
H         -27.561000      7.712000      2.236000
H         -26.516000      5.347000      3.093000
H         -24.664000     -0.297000      2.122000
H         -25.175000      0.654000      4.407000
H         -23.207000     12.335000     -8.659000
C         -24.698000     11.560000    -10.075000
H         -22.577000     11.151000     -9.724000
H         -25.625000     11.857000     -9.570000
H         -24.933000     10.596000    -10.543000
C         -24.652000     12.664000    -11.097000
H         -24.116000     12.377000    -12.010000
C         -23.835000     13.905000    -10.690000
H         -25.672000     13.002000    -11.320000
H         -22.818000     13.506000    -10.589000
H         -24.139000     14.256000     -9.697000
C         -23.829000     15.011000    -11.702000
H         -24.894000     15.271000    -11.714000
C         -23.206000     14.660000    -13.031000
H         -23.191000     15.897000    -11.599000
H         -22.235000     14.257000    -12.718000
H         -23.116000     15.628000    -13.539000
H         -23.712000     13.840000    -13.555000
$end

--------------------------------------------------------------

             Standard Nuclear Orientation (Angstroms)
    I     Atom           X                Y                Z
 ----------------------------------------------------------------
    1      C      11.7445743683     3.5403366124    -0.8915703959
    2      C      10.7211483317     4.0815422725    -0.1237386558
    3      N      11.7177390250     2.2515055804    -1.3770613180
    4      C       9.5825930208     3.2744934803     0.1383034227
    5      C      10.6800168105     1.5243114505    -0.9961541076
    6      C       9.6110219833     1.9257680668    -0.2117787863
    7      C       8.5470674883     1.0439210100     0.3539752246
    8      C       7.1356665054     1.4399143919     0.4431856894
    9      C       8.7763395595    -0.3468397661     0.6501724241
   10      N       6.1351797146     0.5518803436     0.7464524213
   11      N      10.0028435808    -0.8246335374     0.6989576471
   12      C       7.7381578866    -1.2630983998     0.7682272000
   13      C       6.3721079763    -0.7824399297     0.8505744991
   14      S       9.7876751591    -2.4184513711     0.6621165912
   15      N       8.1319124751    -2.5121122766     0.7078065115
   16      C       5.1872947442    -1.6435021781     1.0002922646
   17      S       5.2162619082    -3.3856633896     1.3161026770
   18      C       3.8292868828    -1.2312571902     0.9352559795
   19      C       3.4025571492    -3.4839500123     1.2323364128
   20      S       3.1580009513     0.3531152514     0.9415935223
   21      C       2.8888880218    -2.2106269013     1.0467905091
   22      C       2.5992142888    -4.5939752805     1.5338229838
   23      C       1.4866936184    -0.3311188916     1.0729725032
   24      C       1.5429805088    -1.7118603537     1.0820168854
   25      N       1.3460580923    -4.6530939447     1.1454796683
   26      S       3.1950194014    -5.9451309138     2.5028641194
   27      C       0.6504715240    -5.6286094982     1.7691412200
   28      C       1.4904215199    -6.3859810944     2.5841732866
   29      C      13.0185088920     4.2622239908    -1.3023202494
   30      H      10.7898711932     5.1169909376     0.1952115447
   31      H       8.7112988507     3.7710329794     0.5558126982
   32      H      10.7681829704     0.4964209820    -1.3443909711
   33      H       6.7592158365     2.4333669429     0.2057305932
   34      H       0.6215637591     0.3166534097     1.0163123566
   35      H       0.6659514241    -2.3168335834     1.2818777769
   36      H      -0.4190849163    -5.7694249594     1.6861350344
   37      H       1.2157034467    -7.2186229488     3.2179252275
   38      H      13.7487935755     3.4996668411    -1.5993806382
   39      C      13.4823953342     5.2745358702    -0.1877875996
   40      H      12.8621906006     4.8530209641    -2.2128802573
   41      H      13.5343735918     4.7215628853     0.7583884616
   42      H      12.7599709790     6.0881348456    -0.0492641064
   43      C      14.8825908910     5.8063112468    -0.5172012477
   44      H      15.2687116943     6.2168025040     0.4242405471
   45      C      14.7196466111     6.9147833524    -1.5634835962
   46      H      15.6343944314     5.0150304282    -0.6245516219
   47      H      14.1868166257     7.7904015329    -1.1706795628
   48      H      14.1314059007     6.4812429212    -2.3813402836
   49      C      16.0298773349     7.3804248898    -2.1815729173
   50      H      16.6098145786     6.6543186465    -2.7628022325
   51      C      16.9698779651     8.1846662421    -1.2401412083
   52      H      15.7613344500     7.9603574427    -3.0728040618
   53      H      16.5762412696     9.2037832852    -1.1402182165
   54      H      17.9746612430     8.2552272944    -1.6755004879
   55      H      17.0939904398     7.7796829769    -0.2291369311
   56      C     -11.7250005869     3.7372388921     0.0185564714
   57      C     -12.1271960754     2.6696480554    -0.8699065805
   58      N     -10.5133447037     3.8442911176     0.5712868231
   59      C     -11.1771566537     1.6793104187    -1.1542821464
   60      C      -9.6523548678     2.8970148804     0.2532974633
   61      C      -9.9329789930     1.7367001784    -0.5464430524
   62      C      -8.8361065723     0.6851920861    -0.6361516057
   63      C      -7.7917797750     0.6306341319     0.3896412437
   64      C      -8.7366732038    -0.3739924461    -1.6150791474
   65      N      -6.7526314299    -0.1940288454     0.4074651269
   66      N      -9.6688564558    -0.6979703537    -2.5897209791
   67      C      -7.5604946675    -1.1475726124    -1.6844749473
   68      C      -6.5822056084    -1.0768552885    -0.6406787137
   69      S      -8.9725836899    -1.7971597589    -3.5310141783
   70      N      -7.5639275719    -2.0032987757    -2.7428519824
   71      C      -5.3937531614    -1.9262422874    -0.6779548117
   72      S      -4.9321513134    -3.0488084000    -1.9234471065
   73      C      -4.3714378878    -1.9081997099     0.3208073956
   74      C      -3.4969164412    -3.5129606952    -1.0675817500
   75      S      -4.2344638239    -0.8753542186     1.7268459075
   76      C      -3.3075471126    -2.7408459035     0.0353012927
   77      C      -2.5432535346    -4.4209794250    -1.7433413573
   78      C      -2.5735382954    -1.7400615543     1.9795326942
   79      C      -2.2421875867    -2.6166796539     0.9893426037
   80      N      -3.1527773068    -5.3113593568    -2.5468557307
   81      S      -0.9705526038    -4.8781516363    -1.0773005543
   82      C      -2.2420194265    -6.2813134756    -2.7560018296
   83      C      -1.0153761251    -6.2049357183    -2.1880250259
   84      C     -12.7421780913     4.8518355686     0.2612047214
   85      H     -13.1461767760     2.7040584298    -1.2432780551
   86      H     -11.5236412780     0.8188741373    -1.7205460520
   87      H      -8.6465372488     3.1102098507     0.6130554679
   88      H      -7.7773881022     1.2820080334     1.2614410603
   89      H      -2.1026785186    -1.4215688008     2.8999844510
   90      H      -1.2776382036    -3.1089667010     0.9272463019
   91      H      -2.3710475199    -7.1277097648    -3.4180547526
   92      H      -0.1022980339    -6.7568552125    -2.3682977948
   93      H     -12.1852499726     5.7644352567     0.5054973323
   94      C     -13.7946226089     4.5357159295     1.3592716188
   95      H     -13.2438258029     5.1200058914    -0.6764963244
   96      H     -13.3749582721     4.3179950155     2.3487373575
   97      H     -14.3400659732     3.6250781341     1.0821879819
   98      C     -14.7402081499     5.6329267946     1.7684321037
   99      H     -15.6059575367     5.7200058436     1.1005030368
  100      C     -14.1772281549     7.0627210778     1.6590665100
  101      H     -15.0507041080     5.4819171905     2.8101428887
  102      H     -13.9916849248     7.1709280269     0.5831687612
  103      H     -13.2036319939     7.1311521996     2.1581593839
  104      C     -15.1170354446     8.1421996668     2.1050533196
  105      H     -15.2274057736     7.8803523100     3.1639316659
  106      C     -16.3901462236     8.2551298844     1.3025530329
  107      H     -14.8954576466     9.2072232252     1.9662113248
  108      H     -15.9993040432     8.3171338887     0.2795100751
  109      H     -16.8287177776     9.2009109300     1.6436412999
  110      H     -17.0117200101     7.3517940691     1.3278992884
 ----------------------------------------------------------------

    9   -5663.4877823058      9.14E-06 Convergence criterion met
 Total energy in the final basis set = -5663.4877823058

                    Orbital Energies (a.u.)
 --------------------------------------------------------------

 Alpha MOs
 -- Occupied --
-88.989 -88.985 -88.933 -88.932 -88.926 -88.919 -88.910 -88.908
-14.388 -14.384 -14.382 -14.378 -14.353 -14.349 -14.349 -14.349
-14.328 -14.328 -10.273 -10.271 -10.268 -10.262 -10.257 -10.257
-10.255 -10.252 -10.252 -10.248 -10.246 -10.240 -10.240 -10.237
-10.237 -10.236 -10.233 -10.233 -10.232 -10.231 -10.229 -10.229
-10.229 -10.228 -10.225 -10.225 -10.224 -10.221 -10.217 -10.216
-10.215 -10.211 -10.211 -10.206 -10.205 -10.201 -10.201 -10.199
-10.185 -10.185 -10.184 -10.182 -10.181 -10.178 -10.178 -10.175
-10.174 -10.171 -10.170 -10.170  -8.044  -8.041  -7.994  -7.990
 -7.987  -7.978  -7.969  -7.968  -6.009  -6.006  -6.003  -6.002
 -6.001  -5.999  -5.957  -5.955  -5.955  -5.951  -5.951  -5.951
 -5.948  -5.947  -5.944  -5.943  -5.939  -5.935  -5.933  -5.932
 -5.930  -5.929  -5.925  -5.924  -1.054  -1.032  -0.983  -0.975
 -0.950  -0.948  -0.944  -0.941  -0.921  -0.914  -0.913  -0.893
 -0.844  -0.840  -0.833  -0.825  -0.814  -0.813  -0.811  -0.810
 -0.806  -0.804  -0.801  -0.794  -0.785  -0.785  -0.765  -0.765
 -0.750  -0.748  -0.740  -0.740  -0.730  -0.724  -0.709  -0.709
 -0.691  -0.689  -0.675  -0.672  -0.662  -0.658  -0.645  -0.643
 -0.642  -0.628  -0.628  -0.622  -0.617  -0.605  -0.603  -0.600
 -0.596  -0.592  -0.588  -0.586  -0.584  -0.576  -0.568  -0.558
 -0.548  -0.544  -0.543  -0.539  -0.527  -0.520  -0.517  -0.513
 -0.507  -0.504  -0.501  -0.497  -0.490  -0.485  -0.477  -0.476
 -0.475  -0.472  -0.472  -0.467  -0.462  -0.459  -0.457  -0.454
 -0.450  -0.450  -0.446  -0.440  -0.440  -0.436  -0.435  -0.432
 -0.430  -0.429  -0.424  -0.424  -0.420  -0.418  -0.418  -0.415
 -0.414  -0.408  -0.404  -0.404  -0.403  -0.399  -0.399  -0.395
 -0.394  -0.393  -0.392  -0.392  -0.390  -0.388  -0.386  -0.382
 -0.380  -0.378  -0.376  -0.368  -0.368  -0.366  -0.360  -0.355
 -0.353  -0.352  -0.349  -0.348  -0.348  -0.343  -0.343  -0.342
 -0.339  -0.337  -0.336  -0.331  -0.330  -0.328  -0.325  -0.321
 -0.317  -0.309  -0.308  -0.307  -0.306  -0.302  -0.302  -0.298
 -0.297  -0.296  -0.294  -0.292  -0.290  -0.285  -0.285  -0.284
 -0.273  -0.271  -0.269  -0.263  -0.258  -0.255  -0.254  -0.253
 -0.250  -0.241  -0.234  -0.231  -0.193  -0.191

          Ground-State Mulliken Net Atomic Charges

     Atom                 Charge (a.u.)
  ----------------------------------------
      1 C                     0.256490
      2 C                    -0.103077
      3 N                    -0.484788
      4 C                    -0.093781
      5 C                     0.097358
      6 C                     0.064479
      7 C                     0.018359
      8 C                     0.056671
      9 C                     0.197673
     10 N                    -0.529464
     11 N                    -0.523858
     12 C                     0.234317
     13 C                     0.328304
     14 S                     0.581168
     15 N                    -0.574479
     16 C                    -0.217340
     17 S                     0.319528
     18 C                    -0.124000
     19 C                    -0.231529
     20 S                     0.276416
     21 C                     0.173658
     22 C                     0.058851
     23 C                    -0.325444
     24 C                    -0.027517
     25 N                    -0.451960
     26 S                     0.266722
     27 C                     0.129029
     28 C                    -0.310086
     29 C                    -0.223748
     30 H                     0.091424
     31 H                     0.102305
     32 H                     0.099348
     33 H                     0.117746
     34 H                     0.140448
     35 H                     0.110017
     36 H                     0.133015
     37 H                     0.127585
     38 H                     0.125781
     39 C                    -0.198713
     40 H                     0.117000
     41 H                     0.095597
     42 H                     0.095125
     43 C                    -0.171462
     44 H                     0.086472
     45 C                    -0.168526
     46 H                     0.099113
     47 H                     0.097377
     48 H                     0.093755
     49 C                    -0.186135
     50 H                     0.093350
     51 C                    -0.320646
     52 H                     0.085334
     53 H                     0.103670
     54 H                     0.101354
     55 H                     0.106546
     56 C                     0.257730
     57 C                    -0.114260
     58 N                    -0.468002
     59 C                    -0.081485
     60 C                     0.061848
     61 C                     0.055354
     62 C                     0.022683
     63 C                     0.061294
     64 C                     0.203336
     65 N                    -0.525205
     66 N                    -0.557286
     67 C                     0.207686
     68 C                     0.314046
     69 S                     0.618088
     70 N                    -0.567117
     71 C                    -0.234777
     72 S                     0.378134
     73 C                    -0.118971
     74 C                    -0.242286
     75 S                     0.264026
     76 C                     0.153639
     77 C                     0.007623
     78 C                    -0.326932
     79 C                    -0.052834
     80 N                    -0.410500
     81 S                     0.315993
     82 C                     0.131738
     83 C                    -0.318300
     84 C                    -0.238956
     85 H                     0.094782
     86 H                     0.122441
     87 H                     0.100738
     88 H                     0.116366
     89 H                     0.130025
     90 H                     0.128211
     91 H                     0.107412
     92 H                     0.144162
     93 H                     0.121347
     94 C                    -0.170199
     95 H                     0.101147
     96 H                     0.106607
     97 H                     0.092394
     98 C                    -0.184922
     99 H                     0.090182
    100 C                    -0.182562
    101 H                     0.089885
    102 H                     0.085367
    103 H                     0.092461
    104 C                    -0.162161
    105 H                     0.086067
    106 C                    -0.318220
    107 H                     0.090850
    108 H                     0.101645
    109 H                     0.101674
    110 H                     0.103166
  ----------------------------------------
  Sum of atomic charges =     0.000000

                    Cartesian Multipole Moments
 -----------------------------------------------------------------
    Charge (ESU x 10^10)
                 0.0000
    Dipole Moment (Debye)
         X       1.7004      Y      -1.3713      Z       0.8731
       Tot       2.3525
    Quadrupole Moments (Debye-Ang)
        XX    -431.4218     XY      10.5978     YY    -407.7739
        XZ      15.7182     YZ      -6.3953     ZZ    -443.5282

 Total job time:  81.04s(wall), 951.41s(cpu)
        *  Thank you very much for using Q-Chem.  Have a nice day.  *
