 Q-Chem 4.4, Q-Chem, Inc., Pleasanton, CA (2016)
 Q-Chem 4.4.2 for Intel X86 Linux

User input:
--------------------------------------------------------------
$comment
SP
$end

$rem
MEM_STATIC 5000
MEM_TOTAL 20000
JOBTYPE SP
EXCHANGE B3LYP
BASIS 6-31g(d,p)
$end

$molecule
0 1
C         -17.561000     21.699000     -5.864000
C         -18.676000     21.815000     -5.028000
N         -17.005000     20.574000     -6.251000
C         -19.157000     20.655000     -4.392000
C         -17.536000     19.463000     -5.722000
C         -18.609000     19.439000     -4.744000
C         -19.182000     18.100000     -4.360000
C         -20.265000     17.581000     -5.019000
C         -18.842000     17.529000     -3.127000
N         -20.887000     16.472000     -4.639000
N         -17.845000     17.973000     -2.411000
C         -19.540000     16.465000     -2.575000
C         -20.517000     15.940000     -3.433000
S         -17.999000     17.286000     -0.970000
N         -19.188000     16.161000     -1.315000
C         -21.496000     15.013000     -2.947000
S         -21.723000     14.693000     -1.179000
C         -22.471000     14.402000     -3.713000
C         -23.001000     13.521000     -1.604000
S         -22.603000     14.170000     -5.449000
C         -23.269000     13.525000     -2.941000
C         -23.578000     12.570000     -0.642000
C         -24.090000     13.177000     -5.100000
C         -24.198000     12.870000     -3.758000
N         -24.115000     11.433000     -1.016000
S         -23.366000     12.810000      1.073000
C         -24.149000     10.504000     -0.005000
C         -23.727000     11.073000      1.191000
C         -16.935000     23.001000     -6.253000
H         -19.045000     22.822000     -4.859000
H         -19.908000     20.707000     -3.609000
H         -17.201000     18.511000     -6.131000
H         -20.535000     18.056000     -5.961000
H         -24.776000     13.011000     -5.920000
H         -25.066000     12.313000     -3.423000
H         -24.520000      9.509000     -0.214000
H         -23.572000     10.511000      2.102000
H         -16.876000     23.701000     -5.411000
C         -17.784000     23.639000     -7.358000
H         -15.876000     22.912000     -6.528000
H         -18.822000     23.385000     -7.109000
H         -17.460000     23.154000     -8.286000
C         -17.708000     25.196000     -7.598000
H         -18.108000     25.784000     -6.763000
C         -18.383000     25.554000     -8.931000
H         -16.705000     25.638000     -7.635000
H         -18.000000     24.901000     -9.724000
H         -18.141000     26.591000     -9.196000
C         -19.921000     25.259000     -8.903000
H         -20.291000     25.630000     -9.866000
C         -20.644000     26.142000     -7.841000
H         -20.237000     24.216000     -8.777000
H         -20.135000     26.173000     -6.869000
H         -21.653000     25.774000     -7.615000
H         -20.629000     27.173000     -8.216000
C         -14.224000     14.690000      9.328000
C         -13.376000     15.331000      8.477000
N         -15.526000     14.942000      9.332000
C         -13.913000     16.312000      7.561000
C         -16.086000     15.922000      8.626000
C         -15.282000     16.664000      7.717000
C         -15.873000     17.659000      6.812000
C         -17.093000     17.417000      6.170000
C         -15.360000     18.968000      6.567000
N         -17.786000     18.263000      5.323000
N         -14.273000     19.442000      7.160000
C         -16.124000     19.909000      5.795000
C         -17.251000     19.522000      5.111000
S         -14.182000     20.976000      6.582000
N         -15.569000     21.074000      5.766000
C         -18.150000     20.607000      4.502000
S         -18.263000     22.383000      4.729000
C         -18.920000     20.272000      3.409000
C         -19.382000     22.603000      3.425000
S         -18.866000     18.860000      2.524000
C         -19.551000     21.364000      2.828000
C         -19.687000     23.871000      2.798000
C         -19.760000     19.646000      1.273000
C         -20.111000     20.969000      1.608000
N         -20.594000     23.935000      1.902000
S         -18.717000     25.353000      2.959000
C         -20.747000     25.275000      1.462000
C         -19.869000     26.162000      1.911000
C         -13.790000     13.518000     10.279000
H         -12.302000     15.227000      8.355000
H         -13.211000     16.890000      6.967000
H         -17.165000     16.057000      8.669000
H         -17.517000     16.414000      6.174000
H         -19.937000     19.053000      0.386000
H         -20.679000     21.688000      1.029000
H         -21.630000     25.441000      0.859000
H         -19.835000     27.201000      1.612000
H         -12.735000     13.284000     10.089000
C         -14.717000     12.252000     10.264000
H         -13.796000     13.807000     11.337000
H         -14.082000     11.357000     10.266000
H         -15.216000     12.278000      9.287000
C         -15.704000     12.271000     11.420000
H         -16.028000     13.276000     11.716000
C         -15.156000     11.515000     12.662000
H         -16.628000     11.767000     11.108000
H         -14.236000     12.059000     12.907000
H         -14.863000     10.523000     12.296000
C         -16.077000     11.394000     13.912000
H         -16.460000     12.408000     14.080000
C         -15.307000     10.844000     15.117000
H         -16.969000     10.798000     13.684000
H         -16.012000     10.493000     15.880000
H         -14.587000     11.591000     15.473000
H         -14.799000      9.944000     14.750000
$end

--------------------------------------------------------------

             Standard Nuclear Orientation (Angstroms)
    I     Atom           X                Y                Z
 ----------------------------------------------------------------
    1      C      -7.3463244916    -2.2012832979     2.5283920574
    2      C      -6.9209194745    -2.0228154000     1.2082569201
    3      N      -7.1733764124    -1.3494943656     3.5128079130
    4      C      -6.0822572009    -0.9298671990     0.9191776565
    5      C      -6.4610754259    -0.2570237454     3.2041685623
    6      C      -5.8492032159    -0.0013992737     1.9124032864
    7      C      -5.2026150902     1.3411337200     1.6927787056
    8      C      -5.9085480114     2.3844488622     1.1545564236
    9      C      -3.8062544386     1.4491253826     1.7138673586
   10      N      -5.3555859814     3.5437996620     0.8209343075
   11      N      -3.0461136783     0.4956491184     2.1795604313
   12      C      -3.1326665779     2.5635313804     1.2359733680
   13      C      -3.9888813691     3.6105562713     0.8659016058
   14      S      -1.5520551363     0.8654209989     1.7287568935
   15      N      -1.7983125080     2.4239696393     1.1731901178
   16      C      -3.4946051245     4.7324933974     0.1236657411
   17      S      -1.8469159412     4.7377261717    -0.6278966138
   18      C      -4.2381941535     5.8356708959    -0.2515365549
   19      C      -2.1731123995     6.3913086623    -1.2167546761
   20      S      -5.7657863331     6.4608093183     0.3489699694
   21      C      -3.4544781117     6.7788583450    -0.9573011059
   22      C      -1.1347394947     7.2695798063    -1.7763934063
   23      C      -5.5064344812     7.8784547728    -0.7654971599
   24      C      -4.2174001494     7.9129469435    -1.2595394473
   25      N      -1.2323804009     8.5775038466    -1.7478459329
   26      S       0.3921273179     6.6089517984    -2.3017669606
   27      C      -0.0147782451     9.2032704972    -1.8582048434
   28      C       0.9871020635     8.2737044769    -2.1119840015
   29      C      -7.9711363463    -3.5316627479     2.8078588090
   30      H      -7.2025414423    -2.8007188076     0.5051734572
   31      H      -5.5879650495    -0.8327242993    -0.0431281816
   32      H      -6.4239827007     0.5364884976     3.9489990463
   33      H      -6.9910428440     2.2717452632     1.1172491012
   34      H      -6.3724684067     8.4795528594    -1.0088453262
   35      H      -3.9548152286     8.6927603311    -1.9658242623
   36      H       0.0327345686    10.2823977894    -1.7905748212
   37      H       2.0406044394     8.5172970832    -2.1361787544
   38      H      -7.4286406479    -4.3541740077     2.3265910617
   39      C      -9.4075174351    -3.5173039050     2.2735618957
   40      H      -7.9126435465    -3.8291170769     3.8629069191
   41      H      -9.3689533962    -2.9185916798     1.3548576526
   42      H      -9.9996165673    -3.0245720417     3.0533175807
   43      C     -10.1271665422    -4.8797800656     1.9368292504
   44      H      -9.6736906038    -5.4131950917     1.0925562002
   45      C     -11.6303231486    -4.6403317216     1.7273949953
   46      H     -10.0461460969    -5.6755710802     2.6870921033
   47      H     -12.0284405758    -4.0510933542     2.5618095568
   48      H     -12.1546330381    -5.6041404774     1.7092339909
   49      C     -11.9089839137    -3.7537116453     0.4666388657
   50      H     -13.0017886543    -3.7286937204     0.3826037395
   51      C     -11.4337097129    -4.4642156409    -0.8370330663
   52      H     -11.5278260299    -2.7249975635     0.4734949181
   53      H     -10.4312179933    -4.9048897241    -0.7619151280
   54      H     -11.3701107158    -3.7713871603    -1.6858704265
   55      H     -12.1150182551    -5.3064757944    -1.0108936542
   56      C       9.6263310807    -0.5446466638     2.0354094144
   57      C       8.8634124240    -1.2822806537     2.8886603858
   58      N       9.2042624050    -0.2352029164     0.8168748026
   59      C       7.5647172812    -1.7400191495     2.4486008494
   60      C       8.0898981828    -0.7267892155     0.2793143028
   61      C       7.2290819998    -1.5238152512     1.0836811330
   62      C       5.9214945733    -1.9741473782     0.5879522784
   63      C       5.1021115962    -1.1240548930    -0.1637672861
   64      C       5.3950274160    -3.2946858812     0.7131936227
   65      N       3.8702726833    -1.4125245649    -0.7229918752
   66      N       6.0573853894    -4.2858242138     1.2935561997
   67      C       4.1805768075    -3.6541231129     0.0341681475
   68      C       3.3962059928    -2.7046520579    -0.5749468997
   69      S       5.0435388612    -5.5629517642     1.1022934557
   70      N       3.9088789132    -4.9095188376     0.1616547297
   71      C       2.2455629346    -3.1708056423    -1.4777361266
   72      S       1.8254882474    -4.7483509963    -2.2216191237
   73      C       1.1671936510    -2.3278613771    -1.6400280060
   74      C       0.2785405423    -4.2104550102    -2.7860637233
   75      S       0.8542815687    -0.9107688757    -0.8191626875
   76      C       0.1097572600    -2.9160181710    -2.3212664846
   77      C      -0.7941543032    -5.0788180898    -3.2210916884
   78      C      -0.7756563145    -0.9785948204    -1.3854975161
   79      C      -1.0083767052    -2.0792324761    -2.2341393549
   80      N      -1.8640305607    -4.5752250629    -3.7020489182
   81      S      -0.8915508705    -6.8256857705    -2.9015416689
   82      C      -2.7518468758    -5.6091480627    -4.0962499089
   83      C      -2.4131168744    -6.8508172198    -3.7756665491
   84      C      10.9937923912     0.1174753535     2.4328826820
   85      H       9.0693124528    -1.6047531317     3.9049244651
   86      H       7.0172326398    -2.4159229074     3.0990919542
   87      H       7.8008028404    -0.4131625515    -0.7218735910
   88      H       5.3311581795    -0.0608916312    -0.2187449319
   89      H      -1.4256882124    -0.1931884977    -1.0244678220
   90      H      -1.9223501573    -2.3626197525    -2.7432269509
   91      H      -3.5845317567    -5.2675423757    -4.6969124128
   92      H      -3.0233615618    -7.7239529753    -3.9635850792
   93      H      11.1768001195    -0.0675330631     3.4987912415
   94      C      11.1620948565     1.6243098671     2.0286129343
   95      H      11.8526042146    -0.3590605662     1.9447466668
   96      H      11.6305662702     2.1577704256     2.8653974747
   97      H      10.1385746617     2.0113490896     1.9460717259
   98      C      11.9431389512     1.7690692641     0.7325107628
   99      H      11.7888963863     0.9477764858     0.0223668312
  100      C      13.4642117240     1.9540524480     0.9904309856
  101      H      11.5878213167     2.6608883839     0.2000222312
  102      H      13.7444348168     1.0424663884     1.5315842673
  103      H      13.5426297073     2.7912430793     1.6952937146
  104      C      14.3945777597     2.1762218004    -0.2385693474
  105      H      14.1060341743     1.3980575896    -0.9557248816
  106      C      15.8712212830     2.0951303306     0.1618967292
  107      H      14.1545203871     3.1188984294    -0.7451236201
  108      H      16.4946805504     2.5352651985    -0.6254880813
  109      H      16.1313729146     1.0620593054     0.4231061958
  110      H      15.9741996070     2.7627166486     1.0258857181
 ----------------------------------------------------------------

   11   -5663.4664572876      7.04E-06 Convergence criterion met
 Total energy in the final basis set = -5663.4664572876

                    Orbital Energies (a.u.)
 --------------------------------------------------------------

 Alpha MOs
 -- Occupied --
-88.991 -88.990 -88.930 -88.925 -88.924 -88.921 -88.909 -88.907
-14.392 -14.390 -14.389 -14.380 -14.363 -14.349 -14.339 -14.338
-14.330 -14.328 -10.270 -10.270 -10.268 -10.261 -10.259 -10.255
-10.253 -10.247 -10.247 -10.244 -10.241 -10.238 -10.236 -10.236
-10.234 -10.233 -10.232 -10.229 -10.229 -10.228 -10.227 -10.226
-10.226 -10.226 -10.226 -10.222 -10.221 -10.221 -10.219 -10.211
-10.211 -10.211 -10.206 -10.205 -10.204 -10.197 -10.197 -10.195
-10.187 -10.183 -10.180 -10.179 -10.179 -10.178 -10.178 -10.176
-10.172 -10.172 -10.171 -10.168  -8.047  -8.045  -7.989  -7.985
 -7.983  -7.982  -7.971  -7.966  -6.012  -6.011  -6.006  -6.005
 -6.004  -6.003  -5.954  -5.950  -5.949  -5.948  -5.946  -5.946
 -5.946  -5.944  -5.943  -5.942  -5.939  -5.939  -5.936  -5.932
 -5.931  -5.928  -5.927  -5.922  -1.058  -1.051  -0.974  -0.967
 -0.963  -0.952  -0.949  -0.947  -0.928  -0.922  -0.917  -0.906
 -0.855  -0.837  -0.837  -0.835  -0.813  -0.812  -0.808  -0.806
 -0.800  -0.799  -0.797  -0.793  -0.785  -0.784  -0.767  -0.764
 -0.755  -0.747  -0.743  -0.735  -0.728  -0.723  -0.711  -0.707
 -0.694  -0.693  -0.680  -0.679  -0.654  -0.653  -0.653  -0.642
 -0.639  -0.637  -0.634  -0.631  -0.614  -0.613  -0.601  -0.597
 -0.593  -0.592  -0.585  -0.584  -0.581  -0.577  -0.564  -0.555
 -0.554  -0.550  -0.544  -0.542  -0.527  -0.525  -0.515  -0.511
 -0.509  -0.506  -0.505  -0.500  -0.495  -0.495  -0.483  -0.480
 -0.479  -0.474  -0.472  -0.469  -0.463  -0.458  -0.454  -0.450
 -0.448  -0.444  -0.440  -0.440  -0.436  -0.433  -0.433  -0.430
 -0.427  -0.424  -0.423  -0.423  -0.417  -0.416  -0.416  -0.415
 -0.415  -0.410  -0.410  -0.404  -0.402  -0.401  -0.399  -0.397
 -0.395  -0.395  -0.389  -0.389  -0.387  -0.386  -0.384  -0.383
 -0.380  -0.374  -0.374  -0.372  -0.364  -0.363  -0.359  -0.355
 -0.354  -0.353  -0.351  -0.351  -0.348  -0.347  -0.343  -0.341
 -0.341  -0.338  -0.337  -0.332  -0.326  -0.326  -0.325  -0.318
 -0.316  -0.315  -0.314  -0.309  -0.307  -0.302  -0.302  -0.299
 -0.299  -0.298  -0.291  -0.290  -0.289  -0.286  -0.283  -0.280
 -0.276  -0.273  -0.273  -0.260  -0.259  -0.253  -0.250  -0.248
 -0.245  -0.240  -0.238  -0.236  -0.197  -0.193

          Ground-State Mulliken Net Atomic Charges

     Atom                 Charge (a.u.)
  ----------------------------------------
      1 C                     0.280005
      2 C                    -0.105148
      3 N                    -0.467897
      4 C                    -0.063755
      5 C                     0.073787
      6 C                     0.023484
      7 C                    -0.021711
      8 C                     0.086628
      9 C                     0.213208
     10 N                    -0.496481
     11 N                    -0.519116
     12 C                     0.254146
     13 C                     0.275356
     14 S                     0.599153
     15 N                    -0.591894
     16 C                    -0.221390
     17 S                     0.323074
     18 C                    -0.111372
     19 C                    -0.235050
     20 S                     0.265817
     21 C                     0.174278
     22 C                     0.066512
     23 C                    -0.307175
     24 C                    -0.041700
     25 N                    -0.432602
     26 S                     0.255691
     27 C                     0.128899
     28 C                    -0.315285
     29 C                    -0.237972
     30 H                     0.095334
     31 H                     0.098341
     32 H                     0.099966
     33 H                     0.113291
     34 H                     0.133633
     35 H                     0.119504
     36 H                     0.123378
     37 H                     0.126003
     38 H                     0.101354
     39 C                    -0.176637
     40 H                     0.110561
     41 H                     0.101413
     42 H                     0.110688
     43 C                    -0.183393
     44 H                     0.089485
     45 C                    -0.176422
     46 H                     0.085815
     47 H                     0.094931
     48 H                     0.087788
     49 C                    -0.181643
     50 H                     0.093743
     51 C                    -0.317480
     52 H                     0.101227
     53 H                     0.097977
     54 H                     0.097065
     55 H                     0.102119
     56 C                     0.284159
     57 C                    -0.124109
     58 N                    -0.471132
     59 C                    -0.069638
     60 C                     0.089269
     61 C                     0.016955
     62 C                     0.048001
     63 C                     0.031737
     64 C                     0.198803
     65 N                    -0.475805
     66 N                    -0.544761
     67 C                     0.233915
     68 C                     0.231744
     69 S                     0.591117
     70 N                    -0.543447
     71 C                    -0.188833
     72 S                     0.320710
     73 C                    -0.115651
     74 C                    -0.226327
     75 S                     0.290177
     76 C                     0.148601
     77 C                     0.081249
     78 C                    -0.325582
     79 C                    -0.064962
     80 N                    -0.436621
     81 S                     0.242681
     82 C                     0.112705
     83 C                    -0.298187
     84 C                    -0.224540
     85 H                     0.096485
     86 H                     0.116967
     87 H                     0.112650
     88 H                     0.118843
     89 H                     0.131160
     90 H                     0.123036
     91 H                     0.112046
     92 H                     0.137640
     93 H                     0.086676
     94 C                    -0.169808
     95 H                     0.115264
     96 H                     0.091986
     97 H                     0.102570
     98 C                    -0.178832
     99 H                     0.107568
    100 C                    -0.173716
    101 H                     0.083838
    102 H                     0.084514
    103 H                     0.085813
    104 C                    -0.180915
    105 H                     0.091810
    106 C                    -0.310490
    107 H                     0.092554
    108 H                     0.099814
    109 H                     0.107087
    110 H                     0.103678
  ----------------------------------------
  Sum of atomic charges =     0.000000

                    Cartesian Multipole Moments
 -----------------------------------------------------------------
    Charge (ESU x 10^10)
                 0.0000
    Dipole Moment (Debye)
         X       0.6667      Y      -1.9803      Z      -0.1629
       Tot       2.0959
    Quadrupole Moments (Debye-Ang)
        XX    -434.4270     XY      12.9940     YY    -407.0937
        XZ      29.7738     YZ      -4.9934     ZZ    -450.6288

 Total job time:  97.34s(wall), 1138.49s(cpu)
        *  Thank you very much for using Q-Chem.  Have a nice day.  *
