 Q-Chem 4.4, Q-Chem, Inc., Pleasanton, CA (2016)
 Q-Chem 4.4.2 for Intel X86 Linux

User input:
--------------------------------------------------------------
$comment
SP
$end

$rem
MEM_STATIC 5000
MEM_TOTAL 20000
JOBTYPE SP
EXCHANGE B3LYP
BASIS 6-31g(d,p)
$end

$molecule
0 1
C          -4.711000     18.406000      7.746000
C          -5.178000     17.279000      8.390000
N          -5.454000     19.490000      7.501000
C          -6.519000     17.276000      8.964000
C          -6.650000     19.515000      8.156000
C          -7.258000     18.516000      8.967000
C          -8.526000     18.645000      9.709000
C          -9.492000     17.636000      9.927000
C          -8.697000     19.832000     10.401000
N         -10.638000     17.851000     10.616000
N          -7.765000     20.873000     10.441000
C          -9.727000     19.893000     11.337000
C         -10.757000     18.971000     11.345000
S          -8.266000     21.807000     11.757000
N          -9.640000     20.959000     12.087000
C         -11.927000     19.140000     12.312000
S         -11.901000     20.168000     13.777000
C         -13.199000     18.626000     12.044000
C         -13.642000     20.005000     13.986000
S         -13.864000     17.594000     10.756000
C         -14.131000     19.144000     12.948000
C         -14.403000     20.438000     15.153000
C         -15.411000     17.699000     11.608000
C         -15.409000     18.608000     12.668000
N         -15.690000     20.797000     14.942000
S         -13.648000     20.799000     16.731000
C         -16.149000     21.325000     16.134000
C         -15.237000     21.366000     17.201000
C          -3.312000     18.368000      7.222000
H          -4.599000     16.391000      8.628000
H          -6.906000     16.407000      9.487000
H          -7.278000     20.374000      7.926000
H          -9.457000     16.738000      9.312000
H         -16.258000     17.231000     11.125000
H         -16.236000     18.730000     13.358000
H         -17.136000     21.738000     16.295000
H         -15.251000     21.766000     18.206000
H          -3.136000     17.305000      7.016000
C          -2.234000     19.057000      8.058000
H          -3.284000     18.792000      6.211000
H          -2.423000     20.132000      8.177000
H          -1.346000     18.999000      7.416000
C          -2.103000     18.404000      9.490000
H          -3.016000     18.596000     10.068000
C          -0.884000     18.889000     10.237000
H          -2.271000     17.326000      9.376000
H          -1.104000     19.916000     10.552000
H          -0.062000     19.032000      9.525000
C          -0.504000     17.868000     11.331000
H          -1.172000     18.004000     12.191000
C           0.987000     17.970000     11.768000
H          -0.577000     16.804000     11.078000
H           1.671000     17.692000     10.957000
H           1.307000     17.204000     12.484000
H           1.223000     19.022000     11.971000
C         -14.224000     14.690000      9.328000
C         -13.376000     15.331000      8.477000
N         -15.526000     14.942000      9.332000
C         -13.913000     16.312000      7.561000
C         -16.086000     15.922000      8.626000
C         -15.282000     16.664000      7.717000
C         -15.873000     17.659000      6.812000
C         -17.093000     17.417000      6.170000
C         -15.360000     18.968000      6.567000
N         -17.786000     18.263000      5.323000
N         -14.273000     19.442000      7.160000
C         -16.124000     19.909000      5.795000
C         -17.251000     19.522000      5.111000
S         -14.182000     20.976000      6.582000
N         -15.569000     21.074000      5.766000
C         -18.150000     20.607000      4.502000
S         -18.263000     22.383000      4.729000
C         -18.920000     20.272000      3.409000
C         -19.382000     22.603000      3.425000
S         -18.866000     18.860000      2.524000
C         -19.551000     21.364000      2.828000
C         -19.687000     23.871000      2.798000
C         -19.760000     19.646000      1.273000
C         -20.111000     20.969000      1.608000
N         -20.594000     23.935000      1.902000
S         -18.717000     25.353000      2.959000
C         -20.747000     25.275000      1.462000
C         -19.869000     26.162000      1.911000
C         -13.790000     13.518000     10.279000
H         -12.302000     15.227000      8.355000
H         -13.211000     16.890000      6.967000
H         -17.165000     16.057000      8.669000
H         -17.517000     16.414000      6.174000
H         -19.937000     19.053000      0.386000
H         -20.679000     21.688000      1.029000
H         -21.630000     25.441000      0.859000
H         -19.835000     27.201000      1.612000
H         -12.735000     13.284000     10.089000
C         -14.717000     12.252000     10.264000
H         -13.796000     13.807000     11.337000
H         -14.082000     11.357000     10.266000
H         -15.216000     12.278000      9.287000
C         -15.704000     12.271000     11.420000
H         -16.028000     13.276000     11.716000
C         -15.156000     11.515000     12.662000
H         -16.628000     11.767000     11.108000
H         -14.236000     12.059000     12.907000
H         -14.863000     10.523000     12.296000
C         -16.077000     11.394000     13.912000
H         -16.460000     12.408000     14.080000
C         -15.307000     10.844000     15.117000
H         -16.969000     10.798000     13.684000
H         -16.012000     10.493000     15.880000
H         -14.587000     11.591000     15.473000
H         -14.799000      9.944000     14.750000
$end

--------------------------------------------------------------

             Standard Nuclear Orientation (Angstroms)
    I     Atom           X                Y                Z
 ----------------------------------------------------------------
    1      C       6.6593235615    -4.9525207957     1.8433682734
    2      C       6.8259514182    -3.7123325821     2.4239906568
    3      N       5.6761138768    -5.2528593074     0.9888359485
    4      C       5.9758145747    -2.6002679326     2.0136912993
    5      C       4.9819670033    -4.1745285377     0.5246927928
    6      C       5.0835222648    -2.8048485609     0.8975859278
    7      C       4.3485799947    -1.6778228807     0.2936803261
    8      C       3.8595834544    -0.5276840093     0.9546069181
    9      C       4.2848577795    -1.6766597683    -1.0894364898
   10      N       3.1829402823     0.4562878601     0.3156895699
   11      N       4.8645867753    -2.6441492947    -1.9151381961
   12      C       3.8606706984    -0.5074426796    -1.7169026002
   13      C       3.1958261487     0.4880529190    -1.0255139700
   14      S       4.8830814682    -1.9107347950    -3.4372991988
   15      N       4.0694949743    -0.5440455532    -3.0058857853
   16      C       2.6451351643     1.7009510645    -1.7726200725
   17      S       3.1610320536     2.2140234072    -3.4079463919
   18      C       1.5519707208     2.4351901311    -1.3036973792
   19      C       1.8292446086     3.3602530749    -3.5255506015
   20      S       0.5842490354     2.3859004801     0.1887094923
   21      C       1.0953485164     3.3098207689    -2.2939909771
   22      C       1.6643248507     4.3689055761    -4.5666656793
   23      C      -0.3270950946     3.7489902397    -0.4758024969
   24      C      -0.0039706976     4.0494691398    -1.8006376016
   25      N       0.3963803316     4.7299091876    -4.8695915594
   26      S       2.9961670475     4.8965171738    -5.6335547855
   27      C       0.4779612228     5.5503115279    -5.9789217890
   28      C       1.7616460531     5.7924378642    -6.4941325164
   29      C       7.5918424183    -6.0406236287     2.2672335899
   30      H       7.6246238959    -3.4245634584     3.1020321046
   31      H       6.0945299472    -1.6112984053     2.4453218524
   32      H       4.1521635735    -4.4167874750    -0.1370487543
   33      H       3.7833128493    -0.5424552048     2.0408014710
   34      H      -1.1768427258     4.0859708136     0.1022070671
   35      H      -0.3905950709     4.9100927463    -2.3342681873
   36      H      -0.3662430696     5.9860932220    -6.4966789018
   37      H       2.1551225880     6.3084394389    -7.3596610205
   38      H       7.8708934357    -5.7650085781     3.2917080276
   39      C       8.7614212348    -6.3600841138     1.3367867131
   40      H       7.0278679296    -6.9655592590     2.4378438355
   41      H       8.4261608662    -6.6953271490     0.3464738370
   42      H       9.2091227830    -7.2503613375     1.7961795611
   43      C       9.7157232473    -5.1150554788     1.1540153614
   44      H       9.1863925619    -4.3208280132     0.6122324175
   45      C      11.0051329339    -5.4729179634     0.4550503393
   46      H       9.7527248951    -4.5858662815     2.1141683032
   47      H      10.7501775634    -5.6317986184    -0.5995153043
   48      H      11.3190704596    -6.4740333347     0.7748756719
   49      C      12.0841447919    -4.4181867268     0.7820861615
   50      H      11.9119791114    -3.5298380911     0.1611870717
   51      C      13.5346629015    -4.9517472366     0.5929713919
   52      H      12.1301939696    -4.0430642757     1.8109674083
   53      H      13.7752530777    -5.7458932550     1.3101251193
   54      H      14.3223247072    -4.2520475408     0.8959915486
   55      H      13.6043263325    -5.4422808031    -0.3858712035
   56      C       0.2129196204     2.9800959700     3.3684966212
   57      C       0.3722964182     1.6280596074     3.3405196547
   58      N      -0.9390613011     3.5507024513     3.0428093480
   59      C      -0.7433333848     0.7999787875     2.9412223992
   60      C      -1.9710054432     2.8818567526     2.5327380598
   61      C      -1.8991733299     1.4639304995     2.4456387580
   62      C      -3.0580457379     0.6653663361     2.0241639439
   63      C      -4.3497565272     0.9798712099     2.4619971554
   64      C      -3.0299838049    -0.4084426638     1.0845779927
   65      N      -5.5338809697     0.3476406757     2.1280692346
   66      N      -1.9250551066    -0.7986039481     0.4642548964
   67      C      -4.2579793370    -0.9965436744     0.6248768130
   68      C      -5.4601958555    -0.6906725591     1.2155309449
   69      S      -2.4653482255    -1.9899124870    -0.5279085532
   70      N      -4.0572928318    -1.8723883816    -0.3017903201
   71      C      -6.7536418086    -1.1629655840     0.5371181907
   72      S      -7.1244359989    -1.8010873628    -1.0980534406
   73      C      -7.8661945001    -1.3566524760     1.3273623912
   74      C      -8.7557881458    -2.2248957448    -0.6979864112
   75      S      -7.9468122988    -1.3220860755     2.9923521613
   76      C      -8.9212144106    -1.9546670701     0.6509767514
   77      C      -9.5964650953    -3.1124819417    -1.4722157118
   78      C      -9.4854774933    -2.1009512901     2.9034061289
   79      C      -9.9056542633    -2.3192475000     1.5761709400
   80      N     -10.8150101310    -3.2885320270    -1.1349986253
   81      S      -9.0213792437    -4.2282854065    -2.7321378885
   82      C     -11.4514347948    -4.1607891473    -2.0551834781
   83      C     -10.6833879316    -4.7399560750    -2.9683776994
   84      C       1.3003280342     3.9792387778     3.9029099360
   85      H       1.2417824466     1.0244376996     3.5830287039
   86      H      -0.5675782584    -0.2649999209     2.8201666836
   87      H      -2.8901643673     3.4180371780     2.3047634480
   88      H      -4.4873732366     1.6907932869     3.2752944206
   89      H      -9.9403617561    -2.3404035075     3.8549784820
   90      H     -10.8253145564    -2.7693596219     1.2205728197
   91      H     -12.5283777615    -4.1942221390    -1.9555336845
   92      H     -11.0273530885    -5.4676604058    -3.6910203343
   93      H       2.1487602863     3.4008997530     4.2896497529
   94      C       0.7860480509     5.0700259495     4.9069066714
   95      H       1.7506871638     4.5815221547     3.1045664083
   96      H       1.5178953768     5.1667985996     5.7188725240
   97      H      -0.1194953444     4.6397520940     5.3530698351
   98      C       0.5150850004     6.3902852602     4.2037990141
   99      H       0.1678187547     6.2838130525     3.1690590354
  100      C       1.7507344568     7.3315884388     4.2428214019
  101      H      -0.3080488173     6.9047464786     4.7165527298
  102      H       2.5289593708     6.7531922473     3.7307815315
  103      H       2.0347076261     7.3993460214     5.3004778439
  104      C       1.6120144458     8.7500231290     3.6149824193
  105      H       1.1502742774     8.5811065415     2.6344865226
  106      C       2.9720938987     9.4486321180     3.5172360010
  107      H       0.8770742544     9.3505351736     4.1646297602
  108      H       2.8271873541    10.5236980453     3.3571411999
  109      H       3.5916790701     8.9557125805     2.7580986321
  110      H       3.4170418283     9.3574998377     4.5154690636
 ----------------------------------------------------------------

   10   -5663.4612902806      6.86E-06 Convergence criterion met
 Total energy in the final basis set = -5663.4612902806

                    Orbital Energies (a.u.)
 --------------------------------------------------------------

 Alpha MOs
 -- Occupied --
-88.991 -88.987 -88.927 -88.927 -88.926 -88.918 -88.906 -88.904
-14.386 -14.385 -14.385 -14.382 -14.360 -14.354 -14.351 -14.336
-14.332 -14.331 -10.274 -10.267 -10.267 -10.264 -10.258 -10.253
-10.252 -10.249 -10.246 -10.245 -10.243 -10.243 -10.242 -10.237
-10.235 -10.234 -10.233 -10.231 -10.228 -10.227 -10.227 -10.226
-10.224 -10.223 -10.222 -10.222 -10.221 -10.220 -10.220 -10.219
-10.218 -10.217 -10.207 -10.204 -10.200 -10.200 -10.192 -10.190
-10.184 -10.183 -10.182 -10.179 -10.179 -10.176 -10.176 -10.174
-10.172 -10.171 -10.170 -10.167  -8.045  -8.043  -7.988  -7.986
 -7.985  -7.979  -7.967  -7.965  -6.011  -6.009  -6.005  -6.003
 -6.003  -6.001  -5.952  -5.950  -5.950  -5.949  -5.946  -5.946
 -5.945  -5.943  -5.942  -5.942  -5.939  -5.935  -5.931  -5.930
 -5.927  -5.926  -5.923  -5.921  -1.054  -1.031  -0.971  -0.960
 -0.958  -0.951  -0.947  -0.938  -0.925  -0.918  -0.904  -0.896
 -0.851  -0.837  -0.836  -0.835  -0.809  -0.807  -0.805  -0.803
 -0.803  -0.799  -0.792  -0.786  -0.783  -0.783  -0.765  -0.762
 -0.752  -0.745  -0.744  -0.736  -0.724  -0.721  -0.710  -0.704
 -0.693  -0.691  -0.677  -0.675  -0.655  -0.652  -0.651  -0.647
 -0.638  -0.631  -0.629  -0.628  -0.612  -0.611  -0.594  -0.593
 -0.588  -0.587  -0.583  -0.582  -0.580  -0.576  -0.572  -0.562
 -0.551  -0.547  -0.541  -0.539  -0.524  -0.520  -0.513  -0.512
 -0.510  -0.503  -0.503  -0.497  -0.494  -0.485  -0.480  -0.479
 -0.478  -0.472  -0.471  -0.468  -0.461  -0.460  -0.449  -0.448
 -0.444  -0.441  -0.436  -0.436  -0.434  -0.433  -0.431  -0.429
 -0.427  -0.423  -0.421  -0.419  -0.415  -0.414  -0.412  -0.409
 -0.409  -0.408  -0.405  -0.404  -0.401  -0.400  -0.398  -0.396
 -0.394  -0.394  -0.389  -0.386  -0.384  -0.381  -0.380  -0.378
 -0.373  -0.372  -0.372  -0.369  -0.368  -0.362  -0.355  -0.354
 -0.351  -0.350  -0.349  -0.346  -0.345  -0.345  -0.342  -0.339
 -0.337  -0.336  -0.335  -0.332  -0.329  -0.329  -0.326  -0.322
 -0.313  -0.312  -0.307  -0.305  -0.305  -0.302  -0.298  -0.297
 -0.295  -0.293  -0.290  -0.289  -0.286  -0.283  -0.280  -0.279
 -0.278  -0.273  -0.270  -0.262  -0.260  -0.256  -0.252  -0.249
 -0.245  -0.244  -0.234  -0.229  -0.194  -0.190

          Ground-State Mulliken Net Atomic Charges

     Atom                 Charge (a.u.)
  ----------------------------------------
      1 C                     0.291110
      2 C                    -0.117510
      3 N                    -0.480367
      4 C                    -0.101093
      5 C                     0.092878
      6 C                     0.045103
      7 C                     0.013311
      8 C                     0.055300
      9 C                     0.231600
     10 N                    -0.506767
     11 N                    -0.559831
     12 C                     0.233505
     13 C                     0.301310
     14 S                     0.600497
     15 N                    -0.577480
     16 C                    -0.236873
     17 S                     0.336558
     18 C                    -0.118052
     19 C                    -0.209701
     20 S                     0.317108
     21 C                     0.135242
     22 C                     0.030650
     23 C                    -0.312746
     24 C                    -0.069438
     25 N                    -0.417832
     26 S                     0.271938
     27 C                     0.124211
     28 C                    -0.307416
     29 C                    -0.245263
     30 H                     0.095188
     31 H                     0.096781
     32 H                     0.101060
     33 H                     0.111512
     34 H                     0.133553
     35 H                     0.114340
     36 H                     0.116233
     37 H                     0.136881
     38 H                     0.095486
     39 C                    -0.173404
     40 H                     0.109360
     41 H                     0.109023
     42 H                     0.094803
     43 C                    -0.183454
     44 H                     0.101305
     45 C                    -0.174467
     46 H                     0.084894
     47 H                     0.100594
     48 H                     0.095111
     49 C                    -0.173186
     50 H                     0.097050
     51 C                    -0.327797
     52 H                     0.096454
     53 H                     0.099598
     54 H                     0.097883
     55 H                     0.102707
     56 C                     0.280228
     57 C                    -0.109128
     58 N                    -0.462368
     59 C                    -0.067757
     60 C                     0.058555
     61 C                     0.028828
     62 C                     0.049215
     63 C                     0.030742
     64 C                     0.199510
     65 N                    -0.476252
     66 N                    -0.539592
     67 C                     0.233657
     68 C                     0.232950
     69 S                     0.591655
     70 N                    -0.542205
     71 C                    -0.188807
     72 S                     0.319618
     73 C                    -0.113707
     74 C                    -0.226407
     75 S                     0.288703
     76 C                     0.148762
     77 C                     0.081096
     78 C                    -0.319381
     79 C                    -0.066400
     80 N                    -0.436403
     81 S                     0.241804
     82 C                     0.113239
     83 C                    -0.298357
     84 C                    -0.224192
     85 H                     0.097766
     86 H                     0.119505
     87 H                     0.113781
     88 H                     0.117114
     89 H                     0.131959
     90 H                     0.123366
     91 H                     0.111633
     92 H                     0.136852
     93 H                     0.085930
     94 C                    -0.171256
     95 H                     0.123448
     96 H                     0.091441
     97 H                     0.101300
     98 C                    -0.179597
     99 H                     0.107666
    100 C                    -0.174239
    101 H                     0.083147
    102 H                     0.086479
    103 H                     0.085214
    104 C                    -0.180969
    105 H                     0.092657
    106 C                    -0.310738
    107 H                     0.091950
    108 H                     0.099252
    109 H                     0.108136
    110 H                     0.103139
  ----------------------------------------
  Sum of atomic charges =     0.000000

                    Cartesian Multipole Moments
 -----------------------------------------------------------------
    Charge (ESU x 10^10)
                 0.0000
    Dipole Moment (Debye)
         X       2.3827      Y      -0.6293      Z      -0.6254
       Tot       2.5426
    Quadrupole Moments (Debye-Ang)
        XX    -426.2601     XY      20.1470     YY    -442.7026
        XZ       9.1149     YZ     -10.4018     ZZ    -412.6030

 Total job time:  91.57s(wall), 1085.76s(cpu)
        *  Thank you very much for using Q-Chem.  Have a nice day.  *
