 Q-Chem 4.4, Q-Chem, Inc., Pleasanton, CA (2016)
 Q-Chem 4.4.2 for Intel X86 Linux

User input:
--------------------------------------------------------------
$comment
SP
$end

$rem
MEM_STATIC 5000
MEM_TOTAL 20000
JOBTYPE SP
EXCHANGE B3LYP
BASIS 6-31g(d,p)
$end

$molecule
0 1
C          -2.805000     -9.362000      1.099000
C          -2.341000     -9.176000     -0.232000
N          -3.453000     -8.390000      1.729000
C          -2.760000     -8.054000     -0.884000
C          -3.875000     -7.281000      1.016000
C          -3.561000     -7.028000     -0.318000
C          -4.309000     -5.957000     -0.983000
C          -5.679000     -5.904000     -1.097000
C          -3.567000     -4.980000     -1.598000
N          -6.349000     -4.983000     -1.840000
N          -2.221000     -4.845000     -1.477000
C          -4.206000     -3.960000     -2.275000
C          -5.612000     -3.985000     -2.480000
S          -1.772000     -3.540000     -2.372000
N          -3.308000     -3.118000     -2.899000
C          -6.414000     -2.983000     -3.216000
S          -5.734000     -1.577000     -4.146000
C          -7.766000     -2.903000     -3.258000
C          -7.332000     -0.862000     -4.404000
S          -8.993000     -3.836000     -2.376000
C          -8.309000     -1.725000     -3.919000
C          -7.568000      0.553000     -4.803000
C         -10.204000     -2.646000     -2.900000
C          -9.715000     -1.600000     -3.745000
N          -8.706000      0.836000     -5.463000
S          -6.209000      1.541000     -5.170000
C          -8.605000      2.096000     -6.119000
C          -7.321000      2.610000     -6.082000
C          -2.606000    -10.656000      1.786000
H          -1.758000     -9.966000     -0.696000
H          -2.575000     -7.919000     -1.946000
H          -4.671000     -6.756000      1.543000
H          -6.307000     -6.682000     -0.666000
H         -11.159000     -2.847000     -2.433000
H         -10.325000     -0.820000     -4.185000
H          -9.460000      2.462000     -6.672000
H          -6.921000      3.596000     -6.281000
H          -1.692000    -11.022000      1.302000
C          -3.764000    -11.722000      1.662000
H          -2.436000    -10.584000      2.868000
H          -3.698000    -12.273000      0.716000
H          -4.744000    -11.233000      1.588000
C          -3.814000    -12.793000      2.779000
H          -2.935000    -13.394000      2.517000
C          -5.066000    -13.555000      2.823000
H          -3.544000    -12.442000      3.782000
H          -4.789000    -14.483000      3.339000
H          -5.332000    -13.733000      1.774000
C          -6.260000    -12.968000      3.627000
H          -5.927000    -12.810000      4.660000
C          -7.432000    -13.989000      3.786000
H          -6.554000    -11.990000      3.225000
H          -7.690000    -14.239000      2.749000
H          -8.284000    -13.392000      4.133000
H          -7.242000    -14.778000      4.524000
C         -20.806000     -0.023000    -13.332000
C         -19.998000     -0.711000    -14.222000
N         -20.402000      0.289000    -12.046000
C         -18.648000     -0.903000    -13.903000
C         -19.120000      0.048000    -11.739000
C         -18.183000     -0.508000    -12.616000
C         -16.772000     -0.758000    -12.184000
C         -15.988000     -1.642000    -12.921000
C         -16.097000     -0.048000    -11.128000
N         -14.697000     -1.900000    -12.631000
N         -16.636000      0.927000    -10.370000
C         -14.861000     -0.503000    -10.739000
C         -14.139000     -1.413000    -11.527000
S         -15.498000      1.194000     -9.204000
N         -14.423000      0.106000     -9.604000
C         -12.680000     -1.759000    -11.227000
S         -11.844000     -1.300000     -9.757000
C         -11.800000     -2.246000    -12.124000
C         -10.341000     -1.946000    -10.401000
S         -12.011000     -2.690000    -13.799000
C         -10.509000     -2.445000    -11.616000
C          -9.116000     -2.033000     -9.644000
C         -10.344000     -3.238000    -13.903000
C          -9.736000     -3.077000    -12.684000
N          -8.183000     -2.823000    -10.096000
S          -8.754000     -0.982000     -8.255000
C          -7.030000     -2.628000     -9.387000
C          -7.191000     -1.737000     -8.367000
C         -22.243000      0.322000    -13.789000
H         -20.462000     -1.010000    -15.157000
H         -17.948000     -1.328000    -14.616000
H         -18.883000      0.498000    -10.776000
H         -16.318000     -2.156000    -13.822000
H          -9.987000     -3.674000    -14.826000
H          -8.745000     -3.448000    -12.451000
H          -6.180000     -3.261000     -9.607000
H          -6.417000     -1.486000     -7.653000
H         -22.210000      0.723000    -14.810000
C         -23.040000      1.327000    -12.830000
H         -22.749000     -0.651000    -13.794000
H         -22.455000      2.139000    -12.382000
H         -23.378000      0.655000    -12.032000
C         -24.310000      1.821000    -13.492000
H         -24.138000      2.605000    -14.239000
C         -25.170000      2.412000    -12.386000
H         -24.815000      1.008000    -14.030000
H         -24.698000      3.255000    -11.866000
H         -25.420000      1.749000    -11.549000
C         -26.487000      2.970000    -13.007000
H         -26.274000      3.629000    -13.857000
C         -27.317000      3.722000    -12.001000
H         -27.008000      2.120000    -13.467000
H         -26.823000      4.561000    -11.496000
H         -27.608000      3.178000    -11.093000
H         -28.243000      4.046000    -12.491000
$end

--------------------------------------------------------------

             Standard Nuclear Orientation (Angstroms)
    I     Atom           X                Y                Z
 ----------------------------------------------------------------
    1      C     -12.5421042105     2.1408074436    -0.5776658172
    2      C     -12.0314158797     1.1933446328    -1.5066247243
    3      N     -12.0698962949     2.1917287023     0.6616947881
    4      C     -10.9219387697     0.4940430230    -1.1330115541
    5      C     -10.9278298579     1.4788077086     0.9838157438
    6      C     -10.2819667749     0.5860778319     0.1305542098
    7      C      -8.9481309079     0.1312780852     0.5340502698
    8      C      -7.8774288540     0.9557085962     0.7921518863
    9      C      -8.7497582052    -1.2258751589     0.5798906740
   10      N      -6.6118198601     0.5150964905     1.0229869934
   11      N      -9.7352448015    -2.1523262433     0.4570633285
   12      C      -7.5068031025    -1.7245277316     0.9167262783
   13      C      -6.3872938296    -0.8620403243     1.0660596640
   14      S      -9.0381350133    -3.6365804298     0.5862084141
   15      N      -7.4670048468    -3.1014606967     0.8317809515
   16      C      -4.9998825608    -1.2648419634     1.3850342882
   17      S      -4.4097014450    -2.9798987144     1.5050450851
   18      C      -3.9735676947    -0.4413444276     1.7084498168
   19      C      -2.8379350581    -2.4862928777     2.1510301494
   20      S      -3.9616720216     1.3120849724     1.9900272167
   21      C      -2.7483257137    -1.0983519303     2.1403956805
   22      C      -1.8945402770    -3.3949003789     2.8592396493
   23      C      -2.3314807465     1.1415097981     2.6760137448
   24      C      -1.7913797748    -0.1833638899     2.6598072282
   25      N      -0.5853778207    -3.0851868927     2.8291694058
   26      S      -2.2791892515    -5.0685479983     2.9523138792
   27      C       0.2057328402    -4.2173803024     3.1761838224
   28      C      -0.5412187136    -5.3790215569     3.2590932441
   29      C     -13.5797608604     3.1092015889    -0.9917762568
   30      H     -12.4835655154     1.1336700204    -2.4921624696
   31      H     -10.3865356556    -0.1312263177    -1.8420078566
   32      H     -10.4607806328     1.8736001543     1.8854664223
   33      H      -7.9746191507     2.0378641840     0.7219925663
   34      H      -1.9935601986     2.0832570664     3.0876407434
   35      H      -0.7988194188    -0.4541948372     2.9997697816
   36      H       1.2812700218    -4.1054849057     3.2147738620
   37      H      -0.3352267236    -6.3532539517     3.6836348096
   38      H     -14.0956205160     2.5515039979    -1.7832749698
   39      C     -13.0843326968     4.5077107837    -1.5316086076
   40      H     -14.3024890217     3.3755122940    -0.2097592408
   41      H     -12.7936493711     4.4464298283    -2.5873646630
   42      H     -12.1499629556     4.8110693077    -1.0417884441
   43      C     -14.1073087090     5.6659436476    -1.4354487856
   44      H     -14.8169609231     5.3691660502    -2.2169875196
   45      C     -13.5254018193     6.9973476258    -1.6325066919
   46      H     -14.7491034940     5.6563723741    -0.5465630536
   47      H     -14.3795700937     7.6124588058    -1.9426740584
   48      H     -12.7934836449     6.8752644765    -2.4401158119
   49      C     -12.9094935325     7.7234404821    -0.4036587980
   50      H     -13.6879187727     7.8079049618     0.3643658742
   51      C     -12.5510692377     9.2133606256    -0.7085784449
   52      H     -12.0901397401     7.1321971314     0.0248440179
   53      H     -11.8594542369     9.1368952620    -1.5572566754
   54      H     -11.9116959634     9.5282575061     0.1249464621
   55      H     -13.4183637769     9.8837770331    -0.7486661325
   56      C      12.3466992922     2.3548989143    -0.6688142932
   57      C      12.0193219560     1.9143117797    -1.9404333622
   58      N      11.4293903605     2.3930512984     0.3662918460
   59      C      10.7907065718     1.2726646686    -2.1402288138
   60      C      10.2378172680     1.8229539619     0.1404675955
   61      C       9.8607986802     1.2177570237    -1.0627895052
   62      C       8.5005307428     0.6174392023    -1.2340631222
   63      C       8.0264626245     0.3784297910    -2.5214693986
   64      C       7.6745751916     0.1313985926    -0.1586920452
   65      N       6.8317797548    -0.1933669827    -2.7727188570
   66      N       7.9953126723     0.1587641569     1.1497759882
   67      C       6.3864401457    -0.2389315773    -0.4580341052
   68      C       5.9765597565    -0.4404027269    -1.7853379296
   69      S       6.6031252410    -0.3051877868     1.9063814006
   70      N       5.6461780741    -0.4729490820     0.6591936571
   71      C       4.6216600828    -1.0625819787    -2.1252450534
   72      S       3.3435031389    -1.3313120951    -0.9570943990
   73      C       4.3236413503    -1.6823087632    -3.2842539177
   74      C       2.3901087319    -2.1604834597    -2.1796224981
   75      S       5.2775655964    -1.9156647287    -4.7274640639
   76      C       3.0249993500    -2.2064092456    -3.3407662124
   77      C       1.0372325020    -2.6152096182    -1.9694011212
   78      C       3.9303913312    -2.7039218115    -5.5360314827
   79      C       2.8475676236    -2.7296883080    -4.6943813738
   80      N       0.3266760955    -2.9009095329    -3.0240945135
   81      S       0.3734668675    -2.9829707283    -0.3603228296
   82      C      -0.8385505475    -3.5078886515    -2.6447026053
   83      C      -0.9736675801    -3.5730297273    -1.2890839171
   84      C      13.7765623054     2.9016112998    -0.4464624748
   85      H      12.7809320671     2.0451036048    -2.7031689239
   86      H      10.5389299169     0.8040318502    -3.0867940770
   87      H       9.6808878004     1.7559403774     1.0739432233
   88      H       8.5896836242     0.5721323755    -3.4325996934
   89      H       4.0427328166    -3.0217812191    -6.5635619142
   90      H       1.8581983233    -3.0535975470    -4.9947847570
   91      H      -1.5640153824    -3.7485421719    -3.4111069740
   92      H      -1.8480656456    -3.9641151223    -0.7847494677
   93      H      14.4992843101     2.2220136799    -0.9156649674
   94      C      14.1774453530     3.1586879460     1.0826285558
   95      H      13.7701406403     3.8573372332    -0.9843627466
   96      H      13.8082237603     2.4279806477     1.8120223176
   97      H      13.6994629295     4.1256789005     1.2803488047
   98      C      15.6634487894     3.4192943546     1.2206795861
   99      H      16.2739920752     2.5099087597     1.1706422419
  100      C      15.8656087619     4.0411367339     2.5934725060
  101      H      16.0270675906     4.0625889123     0.4086503506
  102      H      15.5476430257     3.3932911633     3.4199269253
  103      H      15.3052131343     4.9596448544     2.8054573476
  104      C      17.3860966808     4.3077637609     2.8137462376
  105      H      17.9790879247     3.4111121887     2.5980442608
  106      C      17.6864548966     4.7673196658     4.2155426966
  107      H      17.7017468297     5.0159454242     2.0363243989
  108      H      17.3598603749     4.1016507120     5.0237523614
  109      H      17.1598908380     5.6643859133     4.5663751921
  110      H      18.7603282139     4.9776816884     4.2869283933
 ----------------------------------------------------------------

   10   -5663.5007774457      3.62E-06 Convergence criterion met
 Total energy in the final basis set = -5663.5007774457

                    Orbital Energies (a.u.)
 --------------------------------------------------------------

 Alpha MOs
 -- Occupied --
-88.994 -88.991 -88.933 -88.927 -88.920 -88.916 -88.913 -88.896
-14.389 -14.386 -14.382 -14.381 -14.358 -14.356 -14.344 -14.332
-14.326 -14.323 -10.280 -10.274 -10.260 -10.258 -10.257 -10.254
-10.251 -10.250 -10.249 -10.249 -10.247 -10.244 -10.242 -10.237
-10.235 -10.233 -10.232 -10.228 -10.227 -10.226 -10.225 -10.222
-10.219 -10.218 -10.218 -10.218 -10.218 -10.217 -10.216 -10.214
-10.213 -10.210 -10.210 -10.207 -10.198 -10.197 -10.196 -10.190
-10.190 -10.186 -10.184 -10.179 -10.175 -10.175 -10.173 -10.173
-10.173 -10.173 -10.171 -10.167  -8.049  -8.047  -7.994  -7.986
 -7.980  -7.976  -7.972  -7.957  -6.014  -6.012  -6.008  -6.007
 -6.006  -6.005  -5.958  -5.955  -5.951  -5.951  -5.947  -5.944
 -5.942  -5.941  -5.941  -5.937  -5.937  -5.937  -5.933  -5.933
 -5.929  -5.921  -5.918  -5.913  -1.047  -1.027  -0.968  -0.963
 -0.959  -0.952  -0.933  -0.929  -0.913  -0.906  -0.904  -0.893
 -0.840  -0.840  -0.837  -0.828  -0.811  -0.811  -0.807  -0.805
 -0.804  -0.800  -0.798  -0.792  -0.787  -0.783  -0.770  -0.763
 -0.752  -0.746  -0.744  -0.733  -0.724  -0.723  -0.715  -0.705
 -0.697  -0.687  -0.677  -0.673  -0.657  -0.654  -0.646  -0.644
 -0.635  -0.630  -0.627  -0.620  -0.610  -0.607  -0.600  -0.597
 -0.592  -0.586  -0.585  -0.580  -0.579  -0.578  -0.573  -0.562
 -0.551  -0.545  -0.539  -0.538  -0.525  -0.518  -0.514  -0.508
 -0.506  -0.503  -0.501  -0.494  -0.493  -0.481  -0.478  -0.475
 -0.471  -0.471  -0.467  -0.466  -0.465  -0.459  -0.451  -0.449
 -0.449  -0.443  -0.442  -0.438  -0.436  -0.434  -0.430  -0.428
 -0.427  -0.425  -0.422  -0.419  -0.418  -0.415  -0.414  -0.412
 -0.409  -0.406  -0.405  -0.404  -0.404  -0.402  -0.399  -0.395
 -0.393  -0.392  -0.392  -0.390  -0.388  -0.384  -0.384  -0.382
 -0.379  -0.374  -0.373  -0.370  -0.363  -0.363  -0.357  -0.352
 -0.351  -0.347  -0.346  -0.345  -0.345  -0.343  -0.340  -0.339
 -0.338  -0.333  -0.332  -0.331  -0.331  -0.329  -0.322  -0.320
 -0.314  -0.312  -0.309  -0.308  -0.303  -0.302  -0.299  -0.297
 -0.296  -0.294  -0.288  -0.287  -0.286  -0.282  -0.281  -0.279
 -0.277  -0.270  -0.268  -0.267  -0.260  -0.250  -0.247  -0.243
 -0.242  -0.241  -0.235  -0.228  -0.199  -0.189

          Ground-State Mulliken Net Atomic Charges

     Atom                 Charge (a.u.)
  ----------------------------------------
      1 C                     0.282068
      2 C                    -0.111016
      3 N                    -0.486296
      4 C                    -0.052288
      5 C                     0.041383
      6 C                     0.053144
      7 C                     0.003576
      8 C                     0.079748
      9 C                     0.247421
     10 N                    -0.530322
     11 N                    -0.551075
     12 C                     0.203411
     13 C                     0.299561
     14 S                     0.612952
     15 N                    -0.564785
     16 C                    -0.227655
     17 S                     0.306624
     18 C                    -0.101781
     19 C                    -0.244441
     20 S                     0.300555
     21 C                     0.144163
     22 C                     0.050300
     23 C                    -0.316676
     24 C                    -0.061262
     25 N                    -0.414749
     26 S                     0.272918
     27 C                     0.118404
     28 C                    -0.310366
     29 C                    -0.225979
     30 H                     0.093288
     31 H                     0.089448
     32 H                     0.101375
     33 H                     0.121517
     34 H                     0.136837
     35 H                     0.132548
     36 H                     0.131512
     37 H                     0.145458
     38 H                     0.092931
     39 C                    -0.184825
     40 H                     0.120881
     41 H                     0.093264
     42 H                     0.104498
     43 C                    -0.174476
     44 H                     0.090209
     45 C                    -0.163625
     46 H                     0.088674
     47 H                     0.088491
     48 H                     0.084258
     49 C                    -0.183346
     50 H                     0.092207
     51 C                    -0.317833
     52 H                     0.098438
     53 H                     0.106564
     54 H                     0.101841
     55 H                     0.110402
     56 C                     0.266984
     57 C                    -0.113784
     58 N                    -0.490580
     59 C                    -0.077295
     60 C                     0.065723
     61 C                     0.043262
     62 C                     0.043717
     63 C                     0.046033
     64 C                     0.247143
     65 N                    -0.530122
     66 N                    -0.567316
     67 C                     0.185792
     68 C                     0.317393
     69 S                     0.608249
     70 N                    -0.539813
     71 C                    -0.219574
     72 S                     0.312634
     73 C                    -0.128938
     74 C                    -0.276737
     75 S                     0.262343
     76 C                     0.217553
     77 C                     0.069982
     78 C                    -0.304135
     79 C                    -0.065625
     80 N                    -0.437070
     81 S                     0.288654
     82 C                     0.123054
     83 C                    -0.313982
     84 C                    -0.259209
     85 H                     0.089198
     86 H                     0.099840
     87 H                     0.130736
     88 H                     0.111667
     89 H                     0.136003
     90 H                     0.114328
     91 H                     0.113278
     92 H                     0.129358
     93 H                     0.107420
     94 C                    -0.161859
     95 H                     0.119286
     96 H                     0.112767
     97 H                     0.106448
     98 C                    -0.174608
     99 H                     0.092092
    100 C                    -0.174217
    101 H                     0.088359
    102 H                     0.091443
    103 H                     0.092981
    104 C                    -0.171819
    105 H                     0.091010
    106 C                    -0.321361
    107 H                     0.090624
    108 H                     0.100706
    109 H                     0.097594
    110 H                     0.096316
  ----------------------------------------
  Sum of atomic charges =     0.000000

                    Cartesian Multipole Moments
 -----------------------------------------------------------------
    Charge (ESU x 10^10)
                 0.0000
    Dipole Moment (Debye)
         X      -0.4780      Y      -2.5669      Z      -0.3536
       Tot       2.6349
    Quadrupole Moments (Debye-Ang)
        XX    -426.7777     XY       4.1427     YY    -421.9765
        XZ      10.7351     YZ     -10.6978     ZZ    -432.4533

 Total job time:  87.54s(wall), 1024.48s(cpu)
        *  Thank you very much for using Q-Chem.  Have a nice day.  *
