 Q-Chem 4.4, Q-Chem, Inc., Pleasanton, CA (2016)
 Q-Chem 4.4.2 for Intel X86 Linux

User input:
--------------------------------------------------------------
$comment
SP
$end

$rem
MEM_STATIC 5000
MEM_TOTAL 20000
JOBTYPE SP
EXCHANGE B3LYP
BASIS 6-31g(d,p)
$end

$molecule
0 1
C         -26.751000     -1.295000     -4.803000
C         -25.966000     -2.361000     -4.299000
N         -26.258000     -0.297000     -5.490000
C         -24.606000     -2.454000     -4.618000
C         -24.910000     -0.309000     -5.667000
C         -24.008000     -1.339000     -5.321000
C         -22.583000     -1.208000     -5.452000
C         -21.950000      0.031000     -5.277000
C         -21.686000     -2.254000     -5.787000
N         -20.654000      0.251000     -5.435000
N         -22.069000     -3.505000     -5.992000
C         -20.328000     -2.052000     -5.904000
C         -19.803000     -0.732000     -5.713000
S         -20.678000     -4.365000     -6.328000
N         -19.589000     -3.162000     -6.164000
C         -18.382000     -0.353000     -5.833000
S         -17.032000     -1.432000     -6.158000
C         -17.955000      0.923000     -5.893000
C         -15.827000     -0.121000     -5.961000
S         -18.780000      2.394000     -6.003000
C         -16.571000      1.054000     -5.965000
C         -14.419000     -0.383000     -6.050000
C         -17.218000      3.309000     -5.958000
C         -16.131000      2.442000     -6.117000
N         -13.675000      0.725000     -6.182000
S         -13.665000     -1.943000     -6.336000
C         -12.337000      0.298000     -6.341000
C         -12.228000     -1.035000     -6.468000
C         -28.344000     -1.462000     -4.805000
H         -26.513000     -3.107000     -3.731000
H         -24.065000     -3.306000     -4.216000
H         -24.627000      0.627000     -6.146000
H         -22.452000      0.972000     -5.055000
H         -17.211000      4.371000     -5.752000
H         -15.098000      2.763000     -6.046000
H         -11.527000      1.009000     -6.436000
H         -11.306000     -1.600000     -6.511000
H         -28.792000     -0.713000     -5.470000
C         -29.060000     -1.237000     -3.481000
H         -28.636000     -2.477000     -5.101000
H         -28.650000     -0.339000     -3.003000
H         -28.881000     -2.012000     -2.725000
C         -30.617000     -1.030000     -3.679000
H         -31.110000     -0.555000     -2.821000
C         -31.346000     -2.349000     -3.905000
H         -30.772000     -0.355000     -4.531000
H         -30.942000     -2.808000     -4.816000
H         -32.394000     -2.065000     -4.064000
C         -31.266000     -3.272000     -2.674000
H         -30.292000     -3.718000     -2.437000
C         -32.122000     -4.529000     -2.839000
H         -31.452000     -2.653000     -1.788000
H         -32.470000     -5.036000     -1.931000
H         -31.690000     -5.288000     -3.504000
H         -33.051000     -4.278000     -3.364000
C         -20.806000     -0.023000    -13.332000
C         -19.998000     -0.711000    -14.222000
N         -20.402000      0.289000    -12.046000
C         -18.648000     -0.903000    -13.903000
C         -19.120000      0.048000    -11.739000
C         -18.183000     -0.508000    -12.616000
C         -16.772000     -0.758000    -12.184000
C         -15.988000     -1.642000    -12.921000
C         -16.097000     -0.048000    -11.128000
N         -14.697000     -1.900000    -12.631000
N         -16.636000      0.927000    -10.370000
C         -14.861000     -0.503000    -10.739000
C         -14.139000     -1.413000    -11.527000
S         -15.498000      1.194000     -9.204000
N         -14.423000      0.106000     -9.604000
C         -12.680000     -1.759000    -11.227000
S         -11.844000     -1.300000     -9.757000
C         -11.800000     -2.246000    -12.124000
C         -10.341000     -1.946000    -10.401000
S         -12.011000     -2.690000    -13.799000
C         -10.509000     -2.445000    -11.616000
C          -9.116000     -2.033000     -9.644000
C         -10.344000     -3.238000    -13.903000
C          -9.736000     -3.077000    -12.684000
N          -8.183000     -2.823000    -10.096000
S          -8.754000     -0.982000     -8.255000
C          -7.030000     -2.628000     -9.387000
C          -7.191000     -1.737000     -8.367000
C         -22.243000      0.322000    -13.789000
H         -20.462000     -1.010000    -15.157000
H         -17.948000     -1.328000    -14.616000
H         -18.883000      0.498000    -10.776000
H         -16.318000     -2.156000    -13.822000
H          -9.987000     -3.674000    -14.826000
H          -8.745000     -3.448000    -12.451000
H          -6.180000     -3.261000     -9.607000
H          -6.417000     -1.486000     -7.653000
H         -22.210000      0.723000    -14.810000
C         -23.040000      1.327000    -12.830000
H         -22.749000     -0.651000    -13.794000
H         -22.455000      2.139000    -12.382000
H         -23.378000      0.655000    -12.032000
C         -24.310000      1.821000    -13.492000
H         -24.138000      2.605000    -14.239000
C         -25.170000      2.412000    -12.386000
H         -24.815000      1.008000    -14.030000
H         -24.698000      3.255000    -11.866000
H         -25.420000      1.749000    -11.549000
C         -26.487000      2.970000    -13.007000
H         -26.274000      3.629000    -13.857000
C         -27.317000      3.722000    -12.001000
H         -27.008000      2.120000    -13.467000
H         -26.823000      4.561000    -11.496000
H         -27.608000      3.178000    -11.093000
H         -28.243000      4.046000    -12.491000
$end

--------------------------------------------------------------

             Standard Nuclear Orientation (Angstroms)
    I     Atom           X                Y                Z
 ----------------------------------------------------------------
    1      C       9.0296947976     1.5001559255    -0.3460601341
    2      C       8.3761900262     2.4126538220    -1.2102800729
    3      N       8.4000832811     0.7458004025     0.5173974984
    4      C       6.9781201978     2.4686697258    -1.2579557861
    5      C       7.0522718822     0.9139941720     0.5781617075
    6      C       6.2457991765     1.6982810845    -0.2754868232
    7      C       4.8389757015     1.8959615045    -0.0593452918
    8      C       4.3028562942     1.9325161222     1.2359055491
    9      C       3.8608728144     2.0414281017    -1.0757626330
   10      N       3.0157759957     2.0525761820     1.5222443122
   11      N       4.1475219273     2.0409701139    -2.3686458746
   12      C       2.5240852184     2.2194993048    -0.7930143883
   13      C       2.0983538147     2.2259329761     0.5756409298
   14      S       2.6965982480     2.2645412537    -3.1637643704
   15      N       1.7164080286     2.4113415685    -1.8685026974
   16      C       0.7042260071     2.3761026017     1.0351392864
   17      S      -0.7095486163     2.6501621553     0.0259323329
   18      C       0.3071743326     2.1321316473     2.2988374866
   19      C      -1.7906194034     2.8318442481     1.4429124211
   20      S       1.1109556525     1.4878916209     3.6387838953
   21      C      -1.0448011755     2.3752676274     2.5243327652
   22      C      -3.1796573366     3.1550270653     1.2843076079
   23      C      -0.3637310021     1.7052294678     4.6669655577
   24      C      -1.4754888273     2.0221791903     3.8782473497
   25      N      -3.9055071994     2.9598922901     2.3950228712
   26      S      -4.0194090997     3.4292980200    -0.2334224141
   27      C      -5.2490293875     3.2377597661     2.0550349364
   28      C      -5.4193160635     3.4507740382     0.7395402128
   29      C      10.5634987709     1.1441035395    -0.6396824597
   30      H       9.0332671596     2.9838488955    -1.8586124172
   31      H       6.5390410002     3.1759200483    -1.9559496539
   32      H       6.6777376553     0.3179825488     1.4088964773
   33      H       4.8677575215     1.8020453289     2.1582032102
   34      H      -0.2915839076     1.6573431385     5.7453118361
   35      H      -2.4469441897     2.2699127702     4.2906470979
   36      H      -6.0386358265     3.1847856845     2.7928434604
   37      H      -6.3344494197     3.7670333060     0.2561469817
   38      H      10.8422823846     0.2357390357    -0.0909715842
   39      C      11.6026902807     2.1628262131    -0.1941018045
   40      H      10.7444405795     1.0262451940    -1.7150774905
   41      H      11.3520269833     2.5079716626     0.8163587489
   42      H      11.6065790690     3.0965691564    -0.7705660212
   43      C      13.0600850240     1.5452976343    -0.1631015335
   44      H      13.7694793204     2.1228143213     0.4435880150
   45      C      13.6737933431     1.4554168417    -1.5550647307
   46      H      13.0057839129     0.5500068531     0.2973348358
   47      H      13.0370292462     0.8023959463    -2.1649115927
   48      H      14.6515916466     0.9823552577    -1.3989743227
   49      C      13.8925231264     2.8459953383    -2.1812745411
   50      H      13.0024411405     3.4114310262    -2.4842556315
   51      C      14.6461435851     2.7680443939    -3.5101800511
   52      H      14.3161655005     3.4924857451    -1.4032447905
   53      H      15.2047255642     3.6536071751    -3.8363421782
   54      H      14.0386986406     2.4223764695    -4.3566163012
   55      H      15.4135979939     1.9872294150    -3.4553284397
   56      C       1.1141788229    -5.3581741853    -0.4590421855
   57      C       0.0871730305    -5.8393601749    -1.2540435351
   58      N       1.0640667446    -4.1192501972     0.1548895136
   59      C      -1.1386758902    -5.1623328131    -1.2613493579
   60      C      -0.1004007154    -3.4590369155     0.0917392373
   61      C      -1.2454325519    -3.9264759520    -0.5614351962
   62      C      -2.5023734435    -3.1147108461    -0.5958155397
   63      C      -3.4713775525    -3.4127823460    -1.5505225197
   64      C      -2.8640444558    -2.1168858605     0.3780429597
   65      N      -4.6493421458    -2.7624603539    -1.6331404560
   66      N      -2.1240088311    -1.7595507929     1.4459235353
   67      C      -3.9680566144    -1.3417062801     0.1205633065
   68      C      -4.8910014577    -1.6971131358    -0.8755224243
   69      S      -2.9150544802    -0.4424638478     2.0504214758
   70      N      -4.0828712354    -0.3047159666     0.9937292086
   71      C      -6.2307425701    -0.9757994871    -1.0278292590
   72      S      -6.6469123976     0.5091030369    -0.1957570453
   73      C      -7.3242344724    -1.4919410995    -1.6228513557
   74      C      -8.2804595326     0.4211574176    -0.8398458015
   75      S      -7.5642651461    -3.0193371130    -2.4332393454
   76      C      -8.4444104868    -0.6498738428    -1.6010698972
   77      C      -9.2698161152     1.4557436447    -0.6608265537
   78      C      -9.2142030938    -2.5808687261    -2.8521178989
   79      C      -9.4822864285    -1.3201398614    -2.3828204929
   80      N     -10.3067523405     1.4411892543    -1.4504115298
   81      S      -9.2348925780     2.6118058286     0.6909376911
   82      C     -11.2321792981     2.3481558461    -1.0132484621
   83      C     -10.7914652761     3.0645974509     0.0603830286
   84      C       2.3920581837    -6.2216760656    -0.3397449021
   85      H       0.2862917190    -6.7655319732    -1.7845899968
   86      H      -2.0092721576    -5.5637804032    -1.7711492907
   87      H      -0.0694205720    -2.5970606394     0.7566265437
   88      H      -3.3980633895    -4.2246100007    -2.2719501963
   89      H      -9.8081266532    -3.2620443745    -3.4460274389
   90      H     -10.3880083061    -0.7714850160    -2.6122910595
   91      H     -12.1251879173     2.4956025742    -1.6068679264
   92      H     -11.3482483477     3.8700519148     0.5220200264
   93      H       2.1058946232    -7.2669391442    -0.1669255942
   94      C       3.4339363287    -5.7455164338     0.7794856086
   95      H       2.8559111320    -6.1278740178    -1.3291040978
   96      H       3.0044429521    -5.3657791353     1.7141556165
   97      H       3.9504363808    -4.9232247700     0.2698817274
   98      C       4.5011399036    -6.7950864158     1.0132790700
   99      H       4.1608360696    -7.6359416556     1.6292374827
  100      C       5.6318662007    -6.1010684185     1.7561882572
  101      H       4.8300839791    -7.2396322320     0.0647998596
  102      H       5.3308606595    -5.6884835526     2.7272713601
  103      H       6.0736857682    -5.2224361210     1.2709679407
  104      C       6.7566035326    -7.1382902210     2.0572378654
  105      H       6.3470569815    -8.0373622279     2.5327282954
  106      C       7.8363919003    -6.5679735393     2.9377127165
  107      H       7.1202721193    -7.5048432971     1.0882564407
  108      H       7.5101662067    -6.1631756070     3.9034753327
  109      H       8.3390357061    -5.6598808149     2.5802245231
  110      H       8.6117613005    -7.3318358125     3.0713866515
 ----------------------------------------------------------------

    9   -5663.5210675245      7.26E-06 Convergence criterion met
 Total energy in the final basis set = -5663.5210675245

                    Orbital Energies (a.u.)
 --------------------------------------------------------------

 Alpha MOs
 -- Occupied --
-88.987 -88.985 -88.933 -88.931 -88.920 -88.919 -88.907 -88.898
-14.390 -14.380 -14.379 -14.375 -14.350 -14.343 -14.343 -14.341
-14.328 -14.324 -10.272 -10.267 -10.262 -10.259 -10.254 -10.251
-10.249 -10.246 -10.243 -10.238 -10.235 -10.235 -10.233 -10.230
-10.230 -10.229 -10.229 -10.228 -10.228 -10.226 -10.226 -10.225
-10.223 -10.223 -10.221 -10.220 -10.219 -10.218 -10.215 -10.214
-10.212 -10.212 -10.211 -10.202 -10.199 -10.198 -10.195 -10.193
-10.188 -10.186 -10.181 -10.178 -10.178 -10.178 -10.172 -10.171
-10.171 -10.171 -10.168 -10.164  -8.043  -8.040  -7.995  -7.992
 -7.979  -7.978  -7.967  -7.959  -6.008  -6.005  -6.002  -6.001
 -5.999  -5.998  -5.958  -5.956  -5.955  -5.953  -5.951  -5.949
 -5.944  -5.942  -5.940  -5.939  -5.936  -5.935  -5.931  -5.928
 -5.923  -5.923  -5.919  -5.915  -1.041  -1.038  -0.977  -0.968
 -0.965  -0.957  -0.943  -0.927  -0.917  -0.915  -0.906  -0.900
 -0.843  -0.841  -0.835  -0.826  -0.818  -0.811  -0.808  -0.808
 -0.806  -0.802  -0.797  -0.793  -0.783  -0.781  -0.767  -0.763
 -0.750  -0.746  -0.739  -0.735  -0.726  -0.721  -0.711  -0.703
 -0.696  -0.688  -0.678  -0.671  -0.654  -0.652  -0.643  -0.641
 -0.632  -0.629  -0.625  -0.618  -0.614  -0.608  -0.603  -0.592
 -0.592  -0.591  -0.589  -0.583  -0.582  -0.576  -0.571  -0.555
 -0.554  -0.547  -0.542  -0.538  -0.525  -0.519  -0.514  -0.509
 -0.508  -0.502  -0.499  -0.497  -0.487  -0.477  -0.476  -0.473
 -0.472  -0.470  -0.468  -0.463  -0.458  -0.458  -0.452  -0.451
 -0.448  -0.442  -0.440  -0.439  -0.436  -0.434  -0.429  -0.426
 -0.424  -0.422  -0.421  -0.418  -0.416  -0.416  -0.415  -0.412
 -0.411  -0.407  -0.406  -0.403  -0.403  -0.401  -0.400  -0.396
 -0.395  -0.394  -0.393  -0.393  -0.390  -0.389  -0.387  -0.384
 -0.378  -0.376  -0.370  -0.369  -0.361  -0.360  -0.354  -0.352
 -0.350  -0.348  -0.347  -0.346  -0.343  -0.342  -0.342  -0.337
 -0.337  -0.336  -0.330  -0.330  -0.328  -0.326  -0.318  -0.317
 -0.311  -0.310  -0.309  -0.307  -0.305  -0.305  -0.302  -0.298
 -0.297  -0.293  -0.291  -0.290  -0.287  -0.286  -0.285  -0.282
 -0.272  -0.269  -0.268  -0.267  -0.254  -0.250  -0.248  -0.245
 -0.244  -0.242  -0.233  -0.227  -0.195  -0.192

          Ground-State Mulliken Net Atomic Charges

     Atom                 Charge (a.u.)
  ----------------------------------------
      1 C                     0.272453
      2 C                    -0.111926
      3 N                    -0.472787
      4 C                    -0.054662
      5 C                     0.051067
      6 C                     0.033979
      7 C                     0.050587
      8 C                     0.047689
      9 C                     0.264599
     10 N                    -0.530950
     11 N                    -0.576062
     12 C                     0.191597
     13 C                     0.326090
     14 S                     0.594174
     15 N                    -0.559436
     16 C                    -0.214973
     17 S                     0.289766
     18 C                    -0.076073
     19 C                    -0.238043
     20 S                     0.275945
     21 C                     0.129556
     22 C                     0.070481
     23 C                    -0.310287
     24 C                    -0.065464
     25 N                    -0.454997
     26 S                     0.303996
     27 C                     0.128254
     28 C                    -0.294050
     29 C                    -0.224267
     30 H                     0.089419
     31 H                     0.115035
     32 H                     0.103170
     33 H                     0.116336
     34 H                     0.134878
     35 H                     0.132003
     36 H                     0.119726
     37 H                     0.138898
     38 H                     0.117491
     39 C                    -0.186719
     40 H                     0.108146
     41 H                     0.096076
     42 H                     0.091712
     43 C                    -0.190224
     44 H                     0.088725
     45 C                    -0.167428
     46 H                     0.089799
     47 H                     0.093376
     48 H                     0.094225
     49 C                    -0.167142
     50 H                     0.096715
     51 C                    -0.329218
     52 H                     0.093632
     53 H                     0.100778
     54 H                     0.103715
     55 H                     0.097481
     56 C                     0.266486
     57 C                    -0.114163
     58 N                    -0.489323
     59 C                    -0.077312
     60 C                     0.064537
     61 C                     0.042319
     62 C                     0.045099
     63 C                     0.044295
     64 C                     0.243210
     65 N                    -0.531551
     66 N                    -0.570259
     67 C                     0.185105
     68 C                     0.316007
     69 S                     0.641727
     70 N                    -0.553150
     71 C                    -0.228464
     72 S                     0.332136
     73 C                    -0.129774
     74 C                    -0.290183
     75 S                     0.264655
     76 C                     0.221895
     77 C                     0.080416
     78 C                    -0.302467
     79 C                    -0.066696
     80 N                    -0.432376
     81 S                     0.245793
     82 C                     0.126092
     83 C                    -0.308145
     84 C                    -0.258969
     85 H                     0.088503
     86 H                     0.099205
     87 H                     0.135513
     88 H                     0.110007
     89 H                     0.136954
     90 H                     0.112563
     91 H                     0.117162
     92 H                     0.122684
     93 H                     0.107052
     94 C                    -0.161812
     95 H                     0.118869
     96 H                     0.113497
     97 H                     0.106857
     98 C                    -0.174706
     99 H                     0.091657
    100 C                    -0.175032
    101 H                     0.087871
    102 H                     0.091681
    103 H                     0.094939
    104 C                    -0.172041
    105 H                     0.090330
    106 C                    -0.321703
    107 H                     0.090307
    108 H                     0.100640
    109 H                     0.099825
    110 H                     0.095377
  ----------------------------------------
  Sum of atomic charges =     0.000000

                    Cartesian Multipole Moments
 -----------------------------------------------------------------
    Charge (ESU x 10^10)
                 0.0000
    Dipole Moment (Debye)
         X      -2.1525      Y       1.7879      Z      -1.2273
       Tot       3.0555
    Quadrupole Moments (Debye-Ang)
        XX    -406.1344     XY      -9.9219     YY    -423.2027
        XZ     -16.4210     YZ       5.7675     ZZ    -434.6020

 Total job time:  85.32s(wall), 1010.63s(cpu)
        *  Thank you very much for using Q-Chem.  Have a nice day.  *
