 Q-Chem 4.4, Q-Chem, Inc., Pleasanton, CA (2016)
 Q-Chem 4.4.2 for Intel X86 Linux

User input:
--------------------------------------------------------------
$comment
SP
$end

$rem
MEM_STATIC 5000
MEM_TOTAL 20000
JOBTYPE SP
EXCHANGE B3LYP
BASIS 6-31g(d,p)
$end

$molecule
0 1
C         -22.036000     -2.568000      8.228000
C         -22.747000     -3.378000      7.361000
N         -22.141000     -2.729000      9.532000
C         -23.515000     -4.418000      7.891000
C         -22.856000     -3.785000     10.022000
C         -23.649000     -4.649000      9.228000
C         -24.436000     -5.776000      9.769000
C         -25.128000     -5.532000     10.891000
C         -24.520000     -7.082000      9.258000
N         -25.898000     -6.434000     11.523000
N         -23.812000     -7.585000      8.263000
C         -25.265000     -8.025000      9.889000
C         -26.116000     -7.623000     10.954000
S         -24.323000     -9.121000      8.029000
N         -25.333000     -9.223000      9.350000
C         -27.231000     -8.384000     11.546000
S         -27.914000     -7.905000     13.114000
C         -28.035000     -9.338000     10.921000
C         -29.314000     -8.926000     12.838000
S         -27.935000    -10.203000      9.414000
C         -29.164000     -9.604000     11.637000
C         -30.414000     -9.167000     13.780000
C         -29.612000    -10.848000      9.689000
C         -30.090000    -10.414000     10.918000
N         -30.556000     -8.361000     14.842000
S         -31.495000    -10.600000     13.837000
C         -31.395000     -8.925000     15.794000
C         -31.927000    -10.138000     15.481000
C         -21.193000     -1.405000      7.709000
H         -22.698000     -3.166000      6.297000
H         -24.007000     -5.064000      7.169000
H         -22.801000     -3.907000     11.103000
H         -25.023000     -4.598000     11.441000
H         -30.043000    -11.494000      8.936000
H         -31.072000    -10.695000     11.281000
H         -31.659000     -8.237000     16.587000
H         -32.718000    -10.715000     15.941000
H         -21.448000     -1.184000      6.665000
C         -19.724000     -1.918000      7.742000
H         -21.409000     -0.491000      8.275000
H         -19.653000     -2.868000      7.196000
H         -19.467000     -2.009000      8.804000
C         -18.768000     -0.967000      7.054000
H         -19.129000      0.059000      7.192000
C         -18.578000     -1.204000      5.480000
H         -17.774000     -0.956000      7.518000
H         -19.331000     -0.690000      4.869000
H         -18.609000     -2.277000      5.253000
C         -17.256000     -0.592000      5.030000
H         -17.137000      0.426000      5.419000
C         -16.849000     -0.713000      3.558000
H         -16.402000     -0.959000      5.612000
H         -15.876000     -0.226000      3.414000
H         -17.552000     -0.333000      2.807000
H         -16.525000     -1.713000      3.244000
C         -21.589000     -3.196000      2.155000
C         -22.912000     -3.369000      1.640000
N         -21.049000     -4.060000      3.029000
C         -23.615000     -4.526000      1.981000
C         -21.855000     -5.076000      3.456000
C         -23.148000     -5.431000      3.010000
C         -23.877000     -6.591000      3.553000
C         -25.312000     -6.539000      3.884000
C         -23.225000     -7.820000      4.059000
N         -26.033000     -7.626000      4.302000
N         -21.896000     -8.085000      4.031000
C         -23.952000     -8.797000      4.620000
C         -25.373000     -8.754000      4.594000
S         -21.594000     -9.549000      4.834000
N         -23.191000     -9.875000      5.099000
C         -26.325000     -9.875000      4.905000
S         -27.951000     -9.741000      5.687000
C         -26.082000    -11.128000      4.488000
C         -28.192000    -11.405000      5.498000
S         -25.051000    -11.761000      3.208000
C         -27.144000    -11.989000      4.786000
C         -29.507000    -11.981000      5.661000
C         -25.978000    -13.228000      3.173000
C         -27.014000    -13.244000      4.070000
N         -29.531000    -13.277000      5.849000
S         -31.006000    -11.080000      5.753000
C         -30.810000    -13.590000      6.066000
C         -31.730000    -12.572000      6.119000
C         -20.800000     -2.054000      1.696000
H         -23.262000     -2.555000      1.011000
H         -24.563000     -4.813000      1.535000
H         -21.274000     -5.770000      4.062000
H         -25.907000     -5.627000      3.880000
H         -25.736000    -13.973000      2.426000
H         -27.735000    -14.046000      4.179000
H         -31.099000    -14.601000      6.320000
H         -32.794000    -12.582000      6.316000
H         -19.769000     -2.264000      2.007000
C         -21.286000     -0.585000      2.162000
H         -20.739000     -2.101000      0.602000
H         -21.103000     -0.523000      3.242000
H         -22.344000     -0.467000      1.899000
C         -20.538000      0.549000      1.407000
H         -20.576000      1.392000      2.108000
C         -21.041000      0.885000     -0.049000
H         -19.493000      0.215000      1.372000
H         -22.057000      1.289000      0.041000
H         -21.076000      0.004000     -0.702000
C         -20.180000      1.997000     -0.749000
H         -20.286000      2.957000     -0.229000
C         -20.566000      2.250000     -2.202000
H         -19.115000      1.748000     -0.660000
H         -19.781000      2.902000     -2.605000
H         -21.544000      2.747000     -2.221000
H         -20.538000      1.316000     -2.776000
$end

--------------------------------------------------------------

             Standard Nuclear Orientation (Angstroms)
    I     Atom           X                Y                Z
 ----------------------------------------------------------------
    1      C      -3.9198727495    -4.0438733786     0.1713033735
    2      C      -3.4272707579    -2.7907082530    -0.1452885500
    3      N      -3.1012468822    -5.0156274528     0.5218853306
    4      C      -2.0568449660    -2.5540163188    -0.0102549352
    5      C      -1.7738202782    -4.7439969396     0.6968609724
    6      C      -1.1612748427    -3.5105677190     0.3663742899
    7      C       0.2791978877    -3.2324572296     0.5392090910
    8      C       1.1211603348    -4.2020510715     0.1541493300
    9      C       0.8667063662    -2.0797187450     1.0867862763
   10      N       2.4603535178    -4.1253045775     0.2353872169
   11      N       0.2361026104    -1.0738345167     1.6654345481
   12      C       2.2149238419    -1.9827439208     1.2106431356
   13      C       3.0300024641    -2.9720699282     0.5967124467
   14      S       1.3651989816     0.0328301360     2.0844903094
   15      N       2.7129214616    -0.8686251121     1.7016488899
   16      C       4.4755384739    -2.8956549788     0.3185103620
   17      S       5.3937402591    -4.3635366794    -0.0774477100
   18      C       5.2345565266    -1.7503391868     0.0749937668
   19      C       6.7355001757    -3.3917613489    -0.6553318100
   20      S       4.9398626512    -0.0443359020     0.2538297587
   21      C       6.4505249456    -2.0475162661    -0.4645982898
   22      C       8.0322060568    -3.8926551572    -1.1276709369
   23      C       6.5009124155     0.3017547332    -0.6106492204
   24      C       7.1497917519    -0.8885031573    -0.9098527645
   25      N       8.1645769726    -5.1940893564    -1.4215943380
   26      S       9.5956376631    -3.0089547260    -1.1350303012
   27      C       9.5019994515    -5.5586220207    -1.5036799613
   28      C      10.4081062002    -4.5624724830    -1.3061485499
   29      C      -5.4055606134    -4.3672115422     0.0272096438
   30      H      -4.1216456335    -2.0375793455    -0.5059565147
   31      H      -1.7254861070    -1.5391113445    -0.2123271986
   32      H      -1.1894770589    -5.5742428790     1.0914552985
   33      H       0.7662640904    -5.1842745288    -0.1543417327
   34      H       6.7791678095     1.3343188486    -0.7733491999
   35      H       8.1068309471    -0.9055943391    -1.4186138777
   36      H       9.6456378851    -6.5575690272    -1.8952944127
   37      H      11.4762879534    -4.5207349724    -1.4718462335
   38      H      -5.9084442195    -3.5962673866    -0.5699127787
   39      C      -5.9805354857    -4.3009140317     1.4719336785
   40      H      -5.5429177213    -5.3101205298    -0.5154354207
   41      H      -5.7221098446    -3.3358819889     1.9275501230
   42      H      -5.5487632309    -5.1587076835     2.0010241915
   43      C      -7.4920159015    -4.3825991410     1.4928022040
   44      H      -7.8236565529    -5.0160380767     0.6616520412
   45      C      -8.2571077271    -2.9796988456     1.3653256981
   46      H      -7.8762444684    -4.8992645151     2.3809904158
   47      H      -8.4138260850    -2.6628767604     0.3262929158
   48      H      -7.7007306893    -2.1963763622     1.8951081806
   49      C      -9.6679531909    -3.1175686855     1.9267836080
   50      H     -10.1634964844    -4.0153441012     1.5391727887
   51      C     -10.5855531503    -1.8907510775     1.9284781373
   52      H      -9.6771869078    -3.5046926777     2.9528336813
   53      H     -11.5519272907    -2.1666197028     2.3696714308
   54      H     -10.7621024378    -1.3910873289     0.9683862212
   55      H     -10.3355358412    -1.1219039062     2.6700557612
   56      C      -6.8698968754     1.2478007148    -0.7067996647
   57      C      -6.2107042312     1.9383937223    -1.7717078090
   58      N      -6.2373289698     0.9350445611     0.4351344110
   59      C      -4.9043159484     2.3869702646    -1.5685631800
   60      C      -4.9099560335     1.2482430487     0.5000096413
   61      C      -4.1239606905     1.9785908307    -0.4195519054
   62      C      -2.6980991179     2.2657804969    -0.1822106503
   63      C      -1.6808856214     2.1497257741    -1.2420681898
   64      C      -2.0979587763     2.4431959025     1.1594064129
   65      N      -0.3671838600     2.4985550621    -1.0728351852
   66      N      -2.7681630020     2.4409202552     2.3375707127
   67      C      -0.7753923127     2.6142786713     1.2984302798
   68      C       0.0589998230     2.7954684718     0.1614491805
   69      S      -1.6606698295     2.5486028132     3.6186532001
   70      N      -0.3475445665     2.7165034071     2.6315253287
   71      C       1.4815062494     3.2810410772     0.1424567615
   72      S       2.7933376092     2.7728678680    -0.9951787130
   73      C       1.8831115264     4.2848591785     0.9387038469
   74      C       3.8568213624     3.8782544524    -0.2811613424
   75      S       0.9894362668     5.5555675202     1.7685802477
   76      C       3.2088172046     4.6518193452     0.6821620550
   77      C       5.0970543503     4.2317680315    -0.9326368103
   78      C       2.4325353221     6.5139355904     1.8764633271
   79      C       3.5306180020     5.9176402681     1.3136069362
   80      N       5.9934140706     4.7954257747    -0.1616859686
   81      S       5.5177760261     3.8521878081    -2.5897964663
   82      C       7.0789894481     4.9546239998    -0.9213444610
   83      C       7.0530827490     4.4678110279    -2.2050402868
   84      C      -8.2794367827     0.8936027827    -0.8652517853
   85      H      -6.8064069445     2.0523919227    -2.6733062161
   86      H      -4.3717089235     3.0352266826    -2.2585504071
   87      H      -4.5407102815     1.0571167623     1.5067674658
   88      H      -1.8709136989     1.7264114831    -2.2271972883
   89      H       2.3601865787     7.5092959914     2.2955353154
   90      H       4.5157350463     6.3636855368     1.2393504404
   91      H       7.9984179491     5.3408079945    -0.5022130331
   92      H       7.8124223633     4.4484552848    -2.9757761076
   93      H      -8.6292172758     0.6201931527     0.1380840413
   94      C      -8.6381548072    -0.2384363276    -1.9612088245
   95      H      -8.8390127026     1.8128698112    -1.0764126723
   96      H      -8.2447378542    -1.1859613850    -1.5724256373
   97      H      -8.1917507356     0.0497057952    -2.9204556759
   98      C     -10.1666093388    -0.3390887114    -2.2242313378
   99      H     -10.3023354529    -1.3769992113    -2.5525820895
  100      C     -10.7942239377     0.7397906696    -3.1875382446
  101      H     -10.6238421608    -0.2608321974    -1.2294348437
  102      H     -10.3696445687     0.5738401242    -4.1854183856
  103      H     -10.5663857834     1.7685647101    -2.8817462419
  104      C     -12.3511065300     0.5913828620    -3.3357162331
  105      H     -12.6071735168    -0.3532316172    -3.8310637718
  106      C     -12.9987384281     1.6984996708    -4.1597789106
  107      H     -12.8098404618     0.5179874008    -2.3415717335
  108      H     -14.0800862482     1.5691803928    -4.0267322409
  109      H     -12.7088539372     1.5660937485    -5.2096787409
  110      H     -12.7376860192     2.6833177755    -3.7540684962
 ----------------------------------------------------------------

   10   -5663.4907903576      4.37E-06 Convergence criterion met
 Total energy in the final basis set = -5663.4907903576

                    Orbital Energies (a.u.)
 --------------------------------------------------------------

 Alpha MOs
 -- Occupied --
-89.001 -88.980 -88.935 -88.931 -88.923 -88.922 -88.913 -88.906
-14.394 -14.384 -14.381 -14.374 -14.359 -14.348 -14.339 -14.335
-14.331 -14.320 -10.271 -10.271 -10.271 -10.264 -10.262 -10.255
-10.254 -10.248 -10.246 -10.244 -10.244 -10.240 -10.238 -10.238
-10.230 -10.230 -10.229 -10.229 -10.229 -10.229 -10.228 -10.227
-10.226 -10.223 -10.223 -10.223 -10.223 -10.220 -10.216 -10.213
-10.208 -10.204 -10.204 -10.204 -10.203 -10.201 -10.195 -10.195
-10.189 -10.187 -10.186 -10.185 -10.182 -10.180 -10.176 -10.176
-10.174 -10.174 -10.173 -10.170  -8.055  -8.035  -7.997  -7.990
 -7.983  -7.981  -7.974  -7.965  -6.020  -6.015  -6.013  -6.000
 -5.995  -5.992  -5.961  -5.957  -5.955  -5.954  -5.951  -5.947
 -5.947  -5.945  -5.944  -5.941  -5.940  -5.939  -5.937  -5.935
 -5.930  -5.930  -5.926  -5.921  -1.042  -1.026  -0.993  -0.960
 -0.958  -0.954  -0.936  -0.935  -0.921  -0.914  -0.905  -0.887
 -0.855  -0.841  -0.832  -0.831  -0.828  -0.816  -0.805  -0.804
 -0.798  -0.798  -0.796  -0.792  -0.785  -0.777  -0.767  -0.767
 -0.752  -0.744  -0.743  -0.738  -0.737  -0.725  -0.715  -0.706
 -0.693  -0.690  -0.679  -0.671  -0.664  -0.654  -0.643  -0.643
 -0.639  -0.638  -0.629  -0.620  -0.612  -0.606  -0.597  -0.595
 -0.594  -0.591  -0.588  -0.582  -0.581  -0.576  -0.572  -0.566
 -0.556  -0.548  -0.544  -0.537  -0.531  -0.519  -0.518  -0.513
 -0.507  -0.506  -0.504  -0.500  -0.487  -0.486  -0.479  -0.475
 -0.474  -0.471  -0.469  -0.464  -0.462  -0.453  -0.451  -0.449
 -0.448  -0.444  -0.442  -0.442  -0.439  -0.437  -0.435  -0.431
 -0.427  -0.423  -0.422  -0.420  -0.418  -0.416  -0.414  -0.414
 -0.410  -0.410  -0.407  -0.406  -0.405  -0.403  -0.397  -0.394
 -0.391  -0.390  -0.389  -0.388  -0.387  -0.387  -0.382  -0.381
 -0.379  -0.377  -0.372  -0.370  -0.366  -0.365  -0.361  -0.360
 -0.357  -0.353  -0.353  -0.350  -0.347  -0.345  -0.344  -0.341
 -0.337  -0.333  -0.332  -0.332  -0.329  -0.325  -0.324  -0.322
 -0.312  -0.311  -0.310  -0.307  -0.306  -0.304  -0.302  -0.301
 -0.299  -0.298  -0.293  -0.292  -0.291  -0.286  -0.285  -0.283
 -0.277  -0.270  -0.267  -0.257  -0.257  -0.254  -0.252  -0.248
 -0.244  -0.243  -0.232  -0.231  -0.198  -0.191

          Ground-State Mulliken Net Atomic Charges

     Atom                 Charge (a.u.)
  ----------------------------------------
      1 C                     0.279018
      2 C                    -0.122753
      3 N                    -0.484979
      4 C                    -0.082403
      5 C                     0.049022
      6 C                     0.059213
      7 C                     0.068423
      8 C                     0.037091
      9 C                     0.251455
     10 N                    -0.513252
     11 N                    -0.566481
     12 C                     0.224071
     13 C                     0.287678
     14 S                     0.606262
     15 N                    -0.574891
     16 C                    -0.249628
     17 S                     0.365411
     18 C                    -0.112490
     19 C                    -0.196917
     20 S                     0.302572
     21 C                     0.127842
     22 C                     0.042941
     23 C                    -0.332165
     24 C                    -0.067133
     25 N                    -0.426342
     26 S                     0.255851
     27 C                     0.120668
     28 C                    -0.312136
     29 C                    -0.222688
     30 H                     0.093050
     31 H                     0.096631
     32 H                     0.099715
     33 H                     0.113941
     34 H                     0.142987
     35 H                     0.108783
     36 H                     0.116968
     37 H                     0.138874
     38 H                     0.095895
     39 C                    -0.177548
     40 H                     0.113921
     41 H                     0.103961
     42 H                     0.115790
     43 C                    -0.189248
     44 H                     0.091430
     45 C                    -0.175814
     46 H                     0.090764
     47 H                     0.096984
     48 H                     0.107479
     49 C                    -0.179510
     50 H                     0.091028
     51 C                    -0.334778
     52 H                     0.089717
     53 H                     0.097367
     54 H                     0.104882
     55 H                     0.106122
     56 C                     0.283880
     57 C                    -0.103720
     58 N                    -0.485293
     59 C                    -0.092642
     60 C                     0.054752
     61 C                     0.052385
     62 C                     0.014508
     63 C                     0.047147
     64 C                     0.294594
     65 N                    -0.482824
     66 N                    -0.587554
     67 C                     0.200431
     68 C                     0.245195
     69 S                     0.629030
     70 N                    -0.556319
     71 C                    -0.215047
     72 S                     0.326106
     73 C                    -0.097325
     74 C                    -0.205121
     75 S                     0.260901
     76 C                     0.117673
     77 C                     0.026674
     78 C                    -0.305625
     79 C                    -0.043924
     80 N                    -0.407394
     81 S                     0.289522
     82 C                     0.121896
     83 C                    -0.315209
     84 C                    -0.260626
     85 H                     0.094041
     86 H                     0.095952
     87 H                     0.123893
     88 H                     0.125221
     89 H                     0.138359
     90 H                     0.120731
     91 H                     0.106529
     92 H                     0.137596
     93 H                     0.123372
     94 C                    -0.189461
     95 H                     0.109725
     96 H                     0.111461
     97 H                     0.094472
     98 C                    -0.186531
     99 H                     0.095442
    100 C                    -0.174224
    101 H                     0.103529
    102 H                     0.092618
    103 H                     0.093453
    104 C                    -0.181125
    105 H                     0.094831
    106 C                    -0.313746
    107 H                     0.093725
    108 H                     0.103506
    109 H                     0.105818
    110 H                     0.102093
  ----------------------------------------
  Sum of atomic charges =     0.000000

                    Cartesian Multipole Moments
 -----------------------------------------------------------------
    Charge (ESU x 10^10)
                 0.0000
    Dipole Moment (Debye)
         X       0.8466      Y       5.5358      Z      -2.6375
       Tot       6.1901
    Quadrupole Moments (Debye-Ang)
        XX    -382.1860     XY       8.6653     YY    -448.5211
        XZ      -4.9912     YZ       0.3235     ZZ    -434.7735

 Total job time:  96.48s(wall), 1150.60s(cpu)
        *  Thank you very much for using Q-Chem.  Have a nice day.  *
