 Q-Chem 4.4, Q-Chem, Inc., Pleasanton, CA (2016)
 Q-Chem 4.4.2 for Intel X86 Linux

User input:
--------------------------------------------------------------
$comment
SP
$end

$rem
MEM_STATIC 5000
MEM_TOTAL 20000
JOBTYPE SP
EXCHANGE B3LYP
BASIS 6-31g(d,p)
$end

$molecule
0 1
C          -2.822000    -12.674000    -12.821000
C          -3.128000    -11.312000    -12.782000
N          -1.764000    -13.162000    -12.128000
C          -2.371000    -10.386000    -12.073000
C          -0.917000    -12.263000    -11.546000
C          -1.157000    -10.901000    -11.433000
C          -0.198000     -9.978000    -10.762000
C          -0.722000     -8.901000     -9.954000
C           1.170000    -10.150000    -10.763000
N           0.080000     -8.142000     -9.160000
N           1.826000    -11.113000    -11.447000
C           2.000000     -9.400000     -9.956000
C           1.373000     -8.449000     -9.092000
S           3.399000    -11.087000    -10.982000
N           3.292000     -9.791000     -9.982000
C           2.064000     -7.686000     -7.967000
S           1.128000     -6.425000     -7.105000
C           3.112000     -8.026000     -7.170000
C           2.108000     -6.701000     -5.590000
S           4.320000     -9.293000     -7.418000
C           3.205000     -7.484000     -5.908000
C           1.624000     -6.448000     -4.285000
C           4.786000     -9.106000     -5.696000
C           4.163000     -8.060000     -5.012000
N           2.475000     -6.078000     -3.408000
S          -0.049000     -6.744000     -3.745000
C           1.986000     -6.210000     -2.122000
C           0.634000     -6.486000     -2.132000
C          -3.709000    -13.756000    -13.521000
H          -3.911000    -10.842000    -13.370000
H          -2.642000     -9.334000    -12.076000
H          -0.053000    -12.674000    -11.026000
H          -1.784000     -8.665000     -9.907000
H           5.477000     -9.849000     -5.322000
H           4.289000     -7.779000     -3.972000
H           2.653000     -6.061000     -1.283000
H          -0.016000     -6.620000     -1.278000
H          -3.011000    -14.339000    -14.134000
C          -4.750000    -13.201000    -14.582000
H          -4.195000    -14.374000    -12.755000
H          -4.220000    -12.932000    -15.504000
H          -5.333000    -12.423000    -14.074000
C          -5.755000    -14.335000    -14.963000
H          -5.150000    -15.115000    -15.443000
C          -6.862000    -13.990000    -15.927000
H          -6.181000    -14.779000    -14.055000
H          -7.272000    -13.010000    -15.652000
H          -7.693000    -14.703000    -15.868000
C          -6.300000    -14.020000    -17.423000
H          -5.394000    -13.429000    -17.607000
C          -7.459000    -13.532000    -18.315000
H          -6.178000    -15.054000    -17.766000
H          -8.218000    -14.315000    -18.194000
H          -7.249000    -13.379000    -19.380000
H          -7.896000    -12.604000    -17.927000
C          -2.805000     -9.362000      1.099000
C          -2.341000     -9.176000     -0.232000
N          -3.453000     -8.390000      1.729000
C          -2.760000     -8.054000     -0.884000
C          -3.875000     -7.281000      1.016000
C          -3.561000     -7.028000     -0.318000
C          -4.309000     -5.957000     -0.983000
C          -5.679000     -5.904000     -1.097000
C          -3.567000     -4.980000     -1.598000
N          -6.349000     -4.983000     -1.840000
N          -2.221000     -4.845000     -1.477000
C          -4.206000     -3.960000     -2.275000
C          -5.612000     -3.985000     -2.480000
S          -1.772000     -3.540000     -2.372000
N          -3.308000     -3.118000     -2.899000
C          -6.414000     -2.983000     -3.216000
S          -5.734000     -1.577000     -4.146000
C          -7.766000     -2.903000     -3.258000
C          -7.332000     -0.862000     -4.404000
S          -8.993000     -3.836000     -2.376000
C          -8.309000     -1.725000     -3.919000
C          -7.568000      0.553000     -4.803000
C         -10.204000     -2.646000     -2.900000
C          -9.715000     -1.600000     -3.745000
N          -8.706000      0.836000     -5.463000
S          -6.209000      1.541000     -5.170000
C          -8.605000      2.096000     -6.119000
C          -7.321000      2.610000     -6.082000
C          -2.606000    -10.656000      1.786000
H          -1.758000     -9.966000     -0.696000
H          -2.575000     -7.919000     -1.946000
H          -4.671000     -6.756000      1.543000
H          -6.307000     -6.682000     -0.666000
H         -11.159000     -2.847000     -2.433000
H         -10.325000     -0.820000     -4.185000
H          -9.460000      2.462000     -6.672000
H          -6.921000      3.596000     -6.281000
H          -1.692000    -11.022000      1.302000
C          -3.764000    -11.722000      1.662000
H          -2.436000    -10.584000      2.868000
H          -3.698000    -12.273000      0.716000
H          -4.744000    -11.233000      1.588000
C          -3.814000    -12.793000      2.779000
H          -2.935000    -13.394000      2.517000
C          -5.066000    -13.555000      2.823000
H          -3.544000    -12.442000      3.782000
H          -4.789000    -14.483000      3.339000
H          -5.332000    -13.733000      1.774000
C          -6.260000    -12.968000      3.627000
H          -5.927000    -12.810000      4.660000
C          -7.432000    -13.989000      3.786000
H          -6.554000    -11.990000      3.225000
H          -7.690000    -14.239000      2.749000
H          -8.284000    -13.392000      4.133000
H          -7.242000    -14.778000      4.524000
$end

--------------------------------------------------------------

             Standard Nuclear Orientation (Angstroms)
    I     Atom           X                Y                Z
 ----------------------------------------------------------------
    1      C       8.4278395511     1.7273327034    -2.4221301592
    2      C       7.5636973355     2.5882706924    -1.7422441317
    3      N       8.4979003892     0.4158112918    -2.0863325029
    4      C       6.7610854835     2.1754407346    -0.6846092037
    5      C       7.8378344382     0.0123262131    -0.9612339599
    6      C       6.9377618288     0.7883281440    -0.2449216669
    7      C       6.2321933866     0.2753635862     0.9637517944
    8      C       4.8533091335     0.6520223183     1.1739312793
    9      C       6.7720672107    -0.6371605410     1.8451398878
   10      N       4.0893704963     0.0743435913     2.1395430269
   11      N       8.0362924839    -1.1104368506     1.7876508152
   12      C       6.0120200994    -1.2442777693     2.8230898148
   13      C       4.6239394163    -0.9044728373     2.8654055958
   14      S       8.1744670626    -2.3290550327     2.8771954504
   15      N       6.6645306965    -2.2083292335     3.5069433774
   16      C       3.5645735140    -1.6151232757     3.7008664504
   17      S       1.9101499851    -0.9284332088     3.7253723533
   18      C       3.4708467607    -2.9079743417     4.1117976086
   19      C       1.2021536880    -2.5854410053     4.0166924619
   20      S       4.7404381437    -4.1363298219     4.1848560411
   21      C       2.2290500628    -3.4553285227     4.3428849551
   22      C      -0.1055757533    -2.9597704703     3.6280909180
   23      C       3.4544430841    -5.3717162860     4.3783657072
   24      C       2.1562564061    -4.8756604498     4.5152633193
   25      N      -0.7083436636    -3.8176283409     4.3567751570
   26      S      -0.9113449788    -2.4328408971     2.1276822469
   27      C      -1.7954673884    -4.3752956070     3.7106248438
   28      C      -2.0801438728    -3.6960408716     2.5436834126
   29      C       9.2651113911     2.1328366169    -3.6799200629
   30      H       7.5115329740     3.6606920996    -1.9063300993
   31      H       6.1080446245     2.8815197833    -0.1794913824
   32      H       7.9374425462    -1.0371047852    -0.6881226191
   33      H       4.3430752807     1.3849137511     0.5508096513
   34      H       3.7898994226    -6.3984730536     4.3269304543
   35      H       1.2382872342    -5.4416560122     4.6311020983
   36      H      -2.3096674815    -5.2126696664     4.1638510002
   37      H      -2.8832415652    -3.8941116476     1.8468519666
   38      H      10.2831167967     1.7862963865    -3.4644279218
   39      C       9.4502746338     3.6930757358    -3.9008170200
   40      H       8.8447043123     1.6407433551    -4.5664741278
   41      H      10.1942685074     4.0743849251    -3.1905907052
   42      H       8.4462491215     4.1346063921    -3.8859694520
   43      C      10.0293332432     3.9483573054    -5.3293352897
   44      H      11.0198711642     3.4754526642    -5.3338989892
   45      C      10.2308026213     5.3812349677    -5.7536484932
   46      H       9.4244587971     3.4229183672    -6.0784126066
   47      H       9.3553141937     5.9644830859    -5.4414520075
   48      H      10.2980593861     5.4796269633    -6.8436973650
   49      C      11.5921350207     5.9397253942    -5.1294509749
   50      H      11.7121731002     5.8096575119    -4.0465630742
   51      C      11.6436567760     7.4335458735    -5.5075182763
   52      H      12.4555529756     5.5438223506    -5.6766796430
   53      H      11.7239841298     7.4147161313    -6.6015950364
   54      H      12.4567947030     8.0353726127    -5.0852088073
   55      H      10.6996269990     7.9373937931    -5.2674306798
   56      C      -4.1615870234    -5.0727499226    -2.3868058734
   57      C      -3.0767762519    -4.4447930201    -1.7157554144
   58      N      -5.3861162916    -4.5667234764    -2.3090028710
   59      C      -3.3118314552    -3.2175435786    -1.1697179984
   60      C      -5.5677727639    -3.3071328735    -1.7642401344
   61      C      -4.5656873139    -2.5524703865    -1.1572226045
   62      C      -4.8705210735    -1.1451722982    -0.8827076331
   63      C      -5.2576092014    -0.2224630558    -1.8268874016
   64      C      -4.6773114087    -0.7149587515     0.4060531398
   65      N      -5.3955791296     1.1082797026    -1.5834166440
   66      N      -4.4048070000    -1.5308118732     1.4571035815
   67      C      -4.9097727442     0.6077285285     0.7277829748
   68      C      -5.1959035963     1.5675570954    -0.2803560323
   69      S      -4.2665284118    -0.5844949996     2.7953914454
   70      N      -4.5859146044     0.8799790918     2.0414570348
   71      C      -5.4260357844     3.0152510073    -0.0800424938
   72      S      -5.2396274351     3.8955908499     1.4993212036
   73      C      -5.8777151244     3.8970631089    -1.0044131939
   74      C      -5.9460492453     5.3839665821     0.8534892549
   75      S      -6.4602502601     3.6189570103    -2.6588774013
   76      C      -6.1764237819     5.2333490604    -0.5098760428
   77      C      -6.4757666088     6.4971805137     1.6885199474
   78      C      -7.0897991439     5.2805336074    -2.6642079733
   79      C      -6.8377182430     6.0390687433    -1.4774722542
   80      N      -6.4870827897     7.7313978504     1.1525045465
   81      S      -6.2797399314     6.4097835359     3.3948755111
   82      C      -6.6237161784     8.7185558467     2.1698478550
   83      C      -6.5104589051     8.1861876509     3.4418454549
   84      C      -3.9328091322    -6.2771576802    -3.2132855344
   85      H      -2.1004535832    -4.9193379995    -1.7455230003
   86      H      -2.4994807902    -2.6117303734    -0.7780922109
   87      H      -6.5197138778    -2.8788641884    -2.0762722623
   88      H      -5.3779705918    -0.5068284354    -2.8709556305
   89      H      -7.6557776401     5.4679961953    -3.5670042515
   90      H      -7.1154278852     7.0762846194    -1.3320054848
   91      H      -6.6705088920     9.7595583325     1.8784473291
   92      H      -6.7567605657     8.5734001324     4.4222530161
   93      H      -3.0614430887    -6.7210491521    -2.7160033415
   94      C      -3.6399062875    -6.0514752337    -4.7482029123
   95      H      -4.7564037573    -7.0027585251    -3.2114669234
   96      H      -2.5867761269    -5.7973951557    -4.9191800413
   97      H      -4.1657604259    -5.1641174145    -5.1237964770
   98      C      -3.9464920494    -7.2534647527    -5.6747321168
   99      H      -3.1323044770    -7.9325227919    -5.3946164684
  100      C      -3.9785598122    -6.9173131982    -7.1016370859
  101      H      -4.8264616530    -7.8477073302    -5.4015302577
  102      H      -3.7887755016    -7.8762400207    -7.6002454135
  103      H      -3.1547941837    -6.2084708872    -7.2492642093
  104      C      -5.3089030074    -6.3862317497    -7.7055911222
  105      H      -6.0876016034    -7.1359862934    -7.5200146667
  106      C      -5.2645938547    -6.3016328800    -9.2651377647
  107      H      -5.6197113672    -5.4609014311    -7.2039079903
  108      H      -4.4087348604    -5.6419527640    -9.4568681130
  109      H      -6.1338250443    -5.6927673767    -9.5416191166
  110      H      -5.3505106834    -7.2720894242    -9.7692185066
 ----------------------------------------------------------------

    9   -5663.4705207746      8.59E-06 Convergence criterion met
 Total energy in the final basis set = -5663.4705207746

                    Orbital Energies (a.u.)
 --------------------------------------------------------------

 Alpha MOs
 -- Occupied --
-88.994 -88.992 -88.928 -88.925 -88.924 -88.911 -88.911 -88.905
-14.388 -14.387 -14.380 -14.377 -14.356 -14.351 -14.351 -14.337
-14.329 -14.325 -10.275 -10.272 -10.269 -10.261 -10.257 -10.256
-10.251 -10.250 -10.246 -10.246 -10.245 -10.243 -10.242 -10.240
-10.238 -10.234 -10.233 -10.233 -10.230 -10.230 -10.229 -10.228
-10.228 -10.227 -10.225 -10.224 -10.221 -10.217 -10.216 -10.216
-10.215 -10.212 -10.211 -10.207 -10.205 -10.202 -10.201 -10.197
-10.192 -10.188 -10.187 -10.185 -10.184 -10.182 -10.180 -10.176
-10.175 -10.174 -10.174 -10.170  -8.048  -8.046  -7.990  -7.985
 -7.982  -7.970  -7.970  -7.965  -6.014  -6.011  -6.008  -6.006
 -6.006  -6.004  -5.954  -5.950  -5.949  -5.947  -5.947  -5.946
 -5.943  -5.942  -5.939  -5.935  -5.934  -5.931  -5.930  -5.929
 -5.926  -5.926  -5.926  -5.921  -1.037  -1.025  -0.976  -0.960
 -0.958  -0.950  -0.935  -0.930  -0.909  -0.903  -0.899  -0.891
 -0.839  -0.836  -0.834  -0.829  -0.811  -0.808  -0.806  -0.804
 -0.801  -0.800  -0.798  -0.792  -0.788  -0.781  -0.768  -0.764
 -0.751  -0.747  -0.743  -0.740  -0.721  -0.716  -0.715  -0.709
 -0.696  -0.692  -0.675  -0.675  -0.658  -0.654  -0.646  -0.646
 -0.633  -0.630  -0.628  -0.623  -0.610  -0.607  -0.599  -0.596
 -0.594  -0.590  -0.585  -0.584  -0.579  -0.576  -0.566  -0.563
 -0.549  -0.548  -0.542  -0.536  -0.525  -0.523  -0.511  -0.509
 -0.509  -0.504  -0.501  -0.498  -0.495  -0.480  -0.479  -0.475
 -0.471  -0.471  -0.469  -0.467  -0.466  -0.465  -0.460  -0.451
 -0.451  -0.449  -0.438  -0.435  -0.435  -0.432  -0.430  -0.428
 -0.426  -0.422  -0.422  -0.421  -0.418  -0.417  -0.417  -0.414
 -0.409  -0.406  -0.406  -0.405  -0.403  -0.402  -0.399  -0.398
 -0.397  -0.393  -0.392  -0.390  -0.390  -0.387  -0.383  -0.383
 -0.382  -0.381  -0.374  -0.373  -0.364  -0.359  -0.357  -0.355
 -0.351  -0.351  -0.346  -0.345  -0.343  -0.340  -0.340  -0.337
 -0.335  -0.333  -0.333  -0.332  -0.328  -0.324  -0.322  -0.320
 -0.315  -0.314  -0.309  -0.304  -0.302  -0.302  -0.299  -0.299
 -0.295  -0.293  -0.291  -0.287  -0.283  -0.283  -0.282  -0.279
 -0.278  -0.275  -0.268  -0.266  -0.258  -0.252  -0.249  -0.249
 -0.244  -0.240  -0.234  -0.232  -0.197  -0.192

          Ground-State Mulliken Net Atomic Charges

     Atom                 Charge (a.u.)
  ----------------------------------------
      1 C                     0.250355
      2 C                    -0.110685
      3 N                    -0.487579
      4 C                    -0.083059
      5 C                     0.091772
      6 C                     0.034641
      7 C                     0.022049
      8 C                     0.059154
      9 C                     0.238732
     10 N                    -0.505602
     11 N                    -0.571210
     12 C                     0.262426
     13 C                     0.293518
     14 S                     0.616490
     15 N                    -0.581431
     16 C                    -0.233620
     17 S                     0.273006
     18 C                    -0.111467
     19 C                    -0.227240
     20 S                     0.281525
     21 C                     0.158075
     22 C                     0.050157
     23 C                    -0.323692
     24 C                    -0.036519
     25 N                    -0.408590
     26 S                     0.255396
     27 C                     0.105551
     28 C                    -0.312153
     29 C                    -0.216061
     30 H                     0.089753
     31 H                     0.104841
     32 H                     0.108569
     33 H                     0.117791
     34 H                     0.126296
     35 H                     0.126244
     36 H                     0.119575
     37 H                     0.152334
     38 H                     0.124135
     39 C                    -0.189702
     40 H                     0.124235
     41 H                     0.105358
     42 H                     0.096923
     43 C                    -0.181499
     44 H                     0.091667
     45 C                    -0.169926
     46 H                     0.083737
     47 H                     0.090994
     48 H                     0.094594
     49 C                    -0.188226
     50 H                     0.097650
     51 C                    -0.314429
     52 H                     0.102938
     53 H                     0.099339
     54 H                     0.094429
     55 H                     0.099264
     56 C                     0.281533
     57 C                    -0.114192
     58 N                    -0.484657
     59 C                    -0.069359
     60 C                     0.040960
     61 C                     0.051183
     62 C                     0.004718
     63 C                     0.080063
     64 C                     0.252964
     65 N                    -0.532266
     66 N                    -0.569551
     67 C                     0.198963
     68 C                     0.301642
     69 S                     0.626804
     70 N                    -0.560459
     71 C                    -0.231193
     72 S                     0.315493
     73 C                    -0.102167
     74 C                    -0.233021
     75 S                     0.296217
     76 C                     0.140865
     77 C                     0.051338
     78 C                    -0.318717
     79 C                    -0.062044
     80 N                    -0.418357
     81 S                     0.277134
     82 C                     0.119408
     83 C                    -0.312550
     84 C                    -0.225684
     85 H                     0.097122
     86 H                     0.097387
     87 H                     0.102919
     88 H                     0.120249
     89 H                     0.134645
     90 H                     0.131141
     91 H                     0.127279
     92 H                     0.143254
     93 H                     0.093016
     94 C                    -0.185178
     95 H                     0.120908
     96 H                     0.094188
     97 H                     0.104778
     98 C                    -0.174804
     99 H                     0.090609
    100 C                    -0.163976
    101 H                     0.088726
    102 H                     0.088809
    103 H                     0.084671
    104 C                    -0.183636
    105 H                     0.092293
    106 C                    -0.317874
    107 H                     0.098413
    108 H                     0.106681
    109 H                     0.101922
    110 H                     0.110574
  ----------------------------------------
  Sum of atomic charges =     0.000000

                    Cartesian Multipole Moments
 -----------------------------------------------------------------
    Charge (ESU x 10^10)
                 0.0000
    Dipole Moment (Debye)
         X      -0.1465      Y       1.3316      Z      -0.4474
       Tot       1.4124
    Quadrupole Moments (Debye-Ang)
        XX    -440.8546     XY     -13.2801     YY    -397.3754
        XZ      -9.5101     YZ       7.9978     ZZ    -442.0596

 Total job time:  80.24s(wall), 936.35s(cpu)
        *  Thank you very much for using Q-Chem.  Have a nice day.  *
