 Q-Chem 4.4, Q-Chem, Inc., Pleasanton, CA (2016)
 Q-Chem 4.4.2 for Intel X86 Linux

User input:
--------------------------------------------------------------
$comment
SP
$end

$rem
MEM_STATIC 5000
MEM_TOTAL 20000
JOBTYPE SP
EXCHANGE B3LYP
BASIS 6-31g(d,p)
$end

$molecule
0 1
O          27.999000    -30.568000     -7.445000
C          29.022000    -30.992000     -8.352000
H          29.915000    -31.334000     -7.814000
H          29.341000    -30.189000     -9.028000
H          28.615000    -31.669000     -9.113000
O          29.456000    -29.235000     -6.439000
C          28.333000    -29.620000     -6.564000
C          27.187000    -29.212000     -5.662000
H          27.645000    -28.902000     -4.715000
H          26.676000    -30.151000     -5.415000
C          26.175000    -28.224000     -6.217000
H          26.586000    -27.286000     -6.610000
H          25.636000    -28.553000     -7.114000
C          25.161000    -27.804000     -5.117000
H          24.574000    -28.669000     -4.786000
H          25.712000    -27.413000     -4.252000
C          24.130000    -26.789000     -5.571000
C          23.148000    -27.464000     -6.513000
C          21.912000    -27.958000     -6.046000
H          21.714000    -28.010000     -4.980000
C          21.161000    -28.743000     -6.976000
H          20.277000    -29.252000     -6.605000
C          21.385000    -28.683000     -8.331000
H          20.674000    -29.173000     -8.990000
C          22.513000    -27.925000     -8.768000
H          22.658000    -27.848000     -9.841000
C          23.394000    -27.327000     -7.854000
H          24.372000    -27.011000     -8.204000
C          23.194000    -21.851000     -7.556000
C          21.169000    -22.342000     -6.270000
C          22.045000    -19.415000     -2.893000
C          27.317000    -22.452000     -4.829000
C          23.431000    -21.869000     -0.786000
C          22.226000    -22.715000     -7.071000
C          26.684000    -21.791000     -2.217000
C          22.307000    -19.212000     -5.228000
C          22.097000    -24.716000     -3.196000
C          27.088000    -23.471000     -3.912000
C          23.658000    -25.680000     -4.625000
C          23.249000    -25.004000     -2.423000
C          25.836000    -24.029000     -2.083000
C          25.751000    -21.333000     -1.261000
C          21.830000    -24.360000     -5.585000
C          23.978000    -19.697000     -1.594000
C          24.522000    -25.359000     -5.845000
C          25.839000    -24.695000     -5.601000
C          22.962000    -20.607000     -1.130000
C          25.894000    -19.195000     -5.213000
C          24.193000    -18.654000     -3.762000
C          23.623000    -18.818000     -5.051000
C          22.050000    -20.047000     -6.266000
C          26.111000    -23.702000     -6.517000
C          22.337000    -25.120000     -4.541000
C          21.042000    -20.926000     -5.890000
C          26.726000    -23.134000     -2.625000
C          20.968000    -23.313000     -5.302000
C          23.543000    -24.045000     -1.415000
C          26.535000    -21.272000     -6.512000
C          21.467000    -19.532000     -4.187000
C          24.250000    -25.493000     -3.251000
C          24.411000    -20.131000     -6.927000
C          24.842000    -23.564000     -1.247000
C          21.191000    -23.661000     -2.947000
C          26.129000    -19.638000     -2.844000
C          26.954000    -20.740000     -3.101000
C          21.448000    -22.827000     -1.889000
C          26.874000    -22.584000     -6.123000
C          26.354000    -24.591000     -4.256000
C          26.749000    -20.332000     -5.445000
C          23.977000    -24.437000     -6.810000
C          20.491000    -21.625000     -3.577000
C          25.569000    -24.999000     -3.128000
C          22.673000    -22.983000     -1.163000
C          25.307000    -21.130000     -7.214000
C          21.856000    -20.418000     -1.946000
C          23.127000    -20.522000     -7.091000
C          23.365000    -19.050000     -2.705000
C          20.576000    -22.977000     -3.996000
C          21.089000    -21.559000     -2.283000
C          22.644000    -23.990000     -6.646000
C          24.943000    -23.488000     -7.256000
C          25.505000    -18.995000     -3.902000
C          20.717000    -20.601000     -4.559000
C          24.754000    -22.210000     -0.855000
C          27.253000    -21.111000     -4.447000
C          25.410000    -20.033000     -1.661000
C          24.538000    -22.237000     -7.618000
C          24.695000    -19.167000     -5.924000
O          25.146000    -31.658000    -14.279000
C          24.055000    -31.238000    -15.152000
H          23.498000    -30.403000    -14.710000
H          23.341000    -32.001000    -15.487000
H          24.510000    -30.815000    -16.056000
O          25.967000    -32.984000    -16.028000
C          26.005000    -32.572000    -14.836000
C          27.098000    -32.869000    -13.886000
H          26.753000    -33.735000    -13.308000
H          27.026000    -32.175000    -13.040000
C          28.536000    -33.004000    -14.486000
H          29.231000    -33.392000    -13.732000
H          28.522000    -33.729000    -15.309000
C          29.044000    -31.660000    -15.067000
H          29.784000    -31.865000    -15.850000
H          28.154000    -31.266000    -15.572000
C          29.589000    -30.689000    -13.923000
C          30.766000    -31.204000    -13.181000
C          32.041000    -31.189000    -13.791000
H          32.148000    -30.752000    -14.780000
C          33.172000    -31.794000    -13.092000
H          34.107000    -31.951000    -13.623000
C          33.011000    -32.234000    -11.830000
H          33.857000    -32.718000    -11.350000
C          31.743000    -32.311000    -11.228000
H          31.565000    -32.847000    -10.300000
C          30.621000    -31.837000    -11.903000
H          29.591000    -31.863000    -11.558000
C          28.369000    -27.251000     -9.763000
C          30.282000    -26.288000    -10.750000
C          28.082000    -22.776000    -12.623000
C          24.754000    -28.121000    -13.164000
C          27.823000    -24.085000    -15.751000
C          29.608000    -27.470000    -10.384000
C          24.932000    -26.109000    -15.083000
C          27.870000    -23.893000    -10.410000
C          30.520000    -26.998000    -14.602000
C          25.400000    -28.355000    -14.401000
C          29.571000    -29.196000    -14.255000
C          29.456000    -27.221000    -15.493000
C          26.694000    -27.404000    -15.927000
C          25.611000    -24.932000    -15.404000
C          30.652000    -27.854000    -12.360000
C          26.466000    -23.062000    -14.101000
C          28.614000    -29.773000    -13.151000
C          27.114000    -29.683000    -13.300000
C          27.696000    -23.122000    -14.739000
C          24.712000    -25.230000    -11.136000
C          25.917000    -23.430000    -11.841000
C          26.488000    -23.906000    -10.628000
C          28.547000    -24.935000     -9.777000
C          26.520000    -29.317000    -12.088000
C          30.507000    -28.117000    -13.764000
C          29.775000    -24.990000    -10.424000
C          25.543000    -27.337000    -15.333000
C          30.954000    -26.543000    -11.951000
C          28.742000    -26.165000    -16.026000
C          25.146000    -27.644000    -11.011000
C          28.668000    -23.243000    -11.411000
C          28.863000    -28.499000    -15.334000
C          26.444000    -26.109000     -9.529000
C          27.387000    -26.229000    -16.336000
C          30.828000    -25.703000    -14.270000
C          24.602000    -24.545000    -13.462000
C          24.256000    -25.862000    -13.818000
C          30.089000    -24.639000    -14.829000
C          25.361000    -28.589000    -12.027000
C          26.566000    -29.074000    -14.435000
C          24.392000    -26.561000    -11.525000
C          28.736000    -29.324000    -11.724000
C          30.494000    -24.193000    -12.564000
C          27.423000    -28.486000    -15.397000
C          29.034000    -24.838000    -15.721000
C          26.161000    -27.435000    -10.005000
C          28.739000    -22.962000    -13.809000
C          27.815000    -26.015000     -9.384000
C          26.690000    -22.734000    -12.768000
C          31.038000    -25.469000    -12.930000
C          29.954000    -23.682000    -13.795000
C          29.763000    -28.444000    -11.361000
C          27.508000    -29.174000    -11.114000
C          24.832000    -24.275000    -12.114000
C          29.844000    -23.944000    -11.356000
C          26.816000    -24.940000    -16.117000
C          24.139000    -26.896000    -12.848000
C          25.367000    -23.973000    -14.421000
C          27.343000    -28.125000    -10.141000
C          25.730000    -25.016000    -10.204000
$end

--------------------------------------------------------------

             Standard Nuclear Orientation (Angstroms)
    I     Atom           X                Y                Z
 ----------------------------------------------------------------
    1      O      -2.2538061407    -4.9466750766    -1.4950028120
    2      C      -3.5462362070    -4.7407415084    -2.0748044067
    3      H      -3.6434829584    -5.2709631991    -3.0304534155
    4      H      -3.7525745694    -3.6814025500    -2.2717090823
    5      H      -4.3386999671    -4.9077182020    -1.3350619023
    6      O      -1.3094110775    -4.3088097374    -3.3957973231
    7      C      -1.1989211796    -4.6245354059    -2.2498966797
    8      C       0.1261599835    -4.8480660524    -1.5516288505
    9      H       0.8470229408    -5.0861687890    -2.3430432069
   10      H       0.0026370153    -5.7949672761    -1.0112853034
   11      C       0.5972914372    -3.7776830166    -0.5817689070
   12      H       0.6452960321    -2.7568145005    -0.9801870689
   13      H      -0.0658493437    -3.5876040753     0.2711585816
   14      C       2.0317676908    -4.0928747333    -0.0742966815
   15      H       2.0395477610    -5.0288715978     0.4968463306
   16      H       2.6990248669    -4.2130221449    -0.9374533651
   17      C       2.6013674341    -3.0568140370     0.8751433460
   18      C       1.8819243770    -3.1552090355     2.2093221615
   19      C       2.4281201657    -3.8946142113     3.2792619479
   20      H       3.2873667478    -4.5371467740     3.1146071054
   21      C       1.5749123115    -4.0779478775     4.4122011009
   22      H       1.9110749055    -4.7567435177     5.1896386798
   23      C       0.4895981059    -3.2678787753     4.6481717028
   24      H      -0.0143784971    -3.3528899406     5.6066510637
   25      C       0.1461356429    -2.3315017949     3.6268251959
   26      H      -0.6857916317    -1.6673370868     3.8391109709
   27      C       0.8401894384    -2.2875233797     2.4080076427
   28      H       0.3831174295    -1.7755429775     1.5666983974
   29      C       4.0516024775     2.0937594251     1.6291833516
   30      C       5.5136586829     0.8599945407     3.1574889043
   31      C       9.3293206542     1.4834542456     0.7510692158
   32      C       4.3081466476     0.3255719633    -3.0188869134
   33      C       9.1280462560    -1.6414853810    -0.8541728054
   34      C       4.3168938656     1.0518540894     2.5025668589
   35      C       6.8866592963    -0.6011627360    -3.4095137398
   36      C       7.5573419214     2.9551969297     1.2571747803
   37      C       6.2612200491    -2.7579077626     1.6414180196
   38      C       4.5509060283    -1.0412872542    -2.9521429064
   39      C       4.0862091994    -2.6826702407     0.8218296358
   40      C       6.2775239868    -3.3579763438     0.3579738722
   41      C       6.1095819308    -2.5860465604    -2.3131146466
   42      C       8.2016907791    -0.8006755840    -2.9350921733
   43      C       4.7227364133    -1.1593334389     2.6328685902
   44      C       9.4651308735     0.6429750679    -1.4349235418
   45      C       3.0087492345    -1.6932259889     0.3768385159
   46      C       3.0665385019    -1.1998471252    -1.0331822986
   47      C       9.7074787011    -0.4283762380    -0.5026543157
   48      C       6.2662309272     3.1663653323    -2.0828137386
   49      C       8.2844107550     2.7189643860    -1.0737222780
   50      C       7.4207951068     3.2607789156    -0.0868473985
   51      C       6.4144059120     2.8180914407     1.9752397936
   52      C       2.7950005076     0.1472845815    -1.1361011134
   53      C       4.9310715707    -2.3385753369     1.9324615598
   54      C       6.6030684613     1.8215302213     2.9246360115
   55      C       5.8457374637    -1.4913704573    -3.0998543282
   56      C       5.8106595129    -0.4934447516     3.1735696032
   57      C       7.4499172266    -3.0990156453    -0.4040067364
   58      C       3.9353714666     2.1910205061    -1.9154588918
   59      C       8.4897913104     2.0666815714     1.7396264308
   60      C       5.0189502484    -3.2509649213    -0.2175664829
   61      C       5.0014026197     3.2478724630     0.0164115805
   62      C       7.3589521085    -2.7170421705    -1.7429643951
   63      C       7.3435061854    -2.0691279047     2.2331113747
   64      C       7.7548923278     1.5045893605    -3.0241016084
   65      C       6.6711305092     0.7764728232    -3.5304459858
   66      C       8.5011918335    -1.9438851233     1.5085099767
   67      C       3.4112809888     0.9040428341    -2.1533740933
   68      C       3.9611613821    -1.8256264290    -1.9782305329
   69      C       5.1719977475     2.3970509101    -2.6198678029
   70      C       2.9607754875    -0.4249143502     1.0605183435
   71      C       8.2002795398    -0.0673864636     2.7727099496
   72      C       4.8931991440    -2.8322096330    -1.5620949015
   73      C       8.5250525506    -2.4040046394     0.1521332971
   74      C       3.9235038531     2.6260810154    -0.5621172820
   75      C       9.5888798226     0.1156536403     0.7680851531
   76      C       5.1377757518     2.9394486677     1.3258809888
   77      C       9.1843018299     1.7590648077    -0.5957705515
   78      C       7.1304462058    -0.9565561204     3.0475261768
   79      C       9.0053883473    -0.6919109316     1.7736278725
   80      C       3.8110888212    -0.2196660116     2.1733679983
   81      C       2.7711926977     0.6661033448     0.1625140255
   82      C       7.5164544922     2.5874899048    -2.1918379424
   83      C       7.9116109575     1.3393111918     2.7297197651
   84      C       8.4103158847    -1.8114886318    -2.0062721973
   85      C       5.3361843700     1.2271958493    -3.2990900712
   86      C       8.7117297163     0.4822681005    -2.6897418421
   87      C       3.3076234270     1.8836487372     0.4623394584
   88      C       6.1762897192     3.5131794230    -0.7353952566
   89      O      -7.0115157752    -2.2479224714     3.6150068172
   90      C      -7.0563701282    -1.4793607524     4.8544062569
   91      H      -6.0711686966    -1.0601333917     5.0920289815
   92      H      -7.4567994417    -1.9704264168     5.7503420124
   93      H      -7.6886197219    -0.6027232621     4.6674914048
   94      O      -9.3528492956    -2.3398025133     3.6471534210
   95      C      -8.2370018587    -2.6521832420     3.1477990599
   96      C      -8.0686696488    -3.3607383497     1.8613419380
   97      H      -7.9611875359    -4.4199439379     2.1251526982
   98      H      -7.0270759964    -3.2539085884     1.5354492171
   99      C      -9.1246724477    -3.0598680645     0.7476076069
  100      H      -9.0089326694    -3.7588322536    -0.0891351051
  101      H     -10.1337234218    -3.2101028945     1.1505910153
  102      C      -9.0399830346    -1.5918911209     0.2578807480
  103      H     -10.0177868688    -1.2882935552    -0.1351105749
  104      H      -8.8909804057    -1.0364240923     1.1914843024
  105      C      -7.8490793408    -1.3835861922    -0.7846927259
  106      C      -7.9862571816    -2.1540342655    -2.0451331277
  107      C      -8.9105709476    -1.7321488497    -3.0277860460
  108      H      -9.4730759564    -0.8168979901    -2.8651730729
  109      C      -9.1116197255    -2.5564113137    -4.2168856126
  110      H      -9.9426710186    -2.3406926281    -4.8829593299
  111      C      -8.3223760636    -3.6278158579    -4.4202368970
  112      H      -8.5222279003    -4.2469102757    -5.2903824855
  113      C      -7.4396884682    -4.0964843494    -3.4316169225
  114      H      -6.9504497024    -5.0645426845    -3.4922179935
  115      C      -7.2932220646    -3.3939605765    -2.2382213714
  116      H      -6.6668160156    -3.6648237405    -1.3927335784
  117      C      -2.3971396408    -0.8866809298    -1.5867417692
  118      C      -3.3389125928     0.5685623545    -3.1856281598
  119      C      -2.0988587134     4.3983167188    -1.0696128279
  120      C      -4.1362749766     0.0581545572     3.0473298947
  121      C      -5.0898838248     5.0193265765     0.4247303522
  122      C      -3.4410696455    -0.6555220669    -2.4953113731
  123      C      -4.5981744738     2.8010905068     3.2065160473
  124      C      -0.9241852928     2.2360982223    -1.4369757656
  125      C      -6.7464672649     2.1158046525    -2.0052636278
  126      C      -5.4420034372     0.5826313725     2.8982049217
  127      C      -7.3026083463     0.0409530101    -0.8926487980
  128      C      -7.1567134488     2.3607395882    -0.6833669050
  129      C      -6.5756407846     2.2897336480     2.0566699041
  130      C      -4.4661206880     3.9964814715     2.4972817847
  131      C      -5.5366955914     0.1744821317    -2.7431276863
  132      C      -2.7892504318     4.8829766820     0.9715143105
  133      C      -6.4158417036    -1.1028780836    -0.2820021320
  134      C      -5.9333658692    -1.0316526392     1.1471392204
  135      C      -3.7583671530     5.2553149351     0.0518834031
  136      C      -1.0347895696     1.3431239183     1.9509399043
  137      C      -1.0573332688     3.2988609205     0.7831922605
  138      C      -0.5923231988     2.2664166265    -0.0780919056
  139      C      -1.2419274856     1.0585848162    -2.1132035950
  140      C      -4.5955925832    -1.4295158451     1.2354766693
  141      C      -6.6962019260     0.7216590424    -2.0969446715
  142      C      -2.2145318256     1.4399332962    -3.0287537764
  143      C      -5.6653087971     1.9520092646     2.9165326335
  144      C      -4.6378039026     1.0571962598    -3.3676398958
  145      C      -6.7415949523     3.4926334929    -0.0084492637
  146      C      -2.3810614730    -0.7098895484     1.8871851587
  147      C      -1.6353138775     3.3747721716    -1.9459185650
  148      C      -7.4976743294     1.1755664156     0.0161502349
  149      C      -0.9074689558    -0.1755476855    -0.0571288249
  150      C      -6.5170063068     3.5327957560     1.3642007036
  151      C      -5.9171062529     3.0280145883    -2.6070495904
  152      C      -2.4076761106     3.1897288734     2.7234900226
  153      C      -3.2531729831     2.2702724835     3.3720854170
  154      C      -5.5084597189     4.1794748803    -1.9014681238
  155      C      -3.7382447700    -0.9236558601     2.1767770480
  156      C      -6.2764976179     0.0697705502     1.9399428285
  157      C      -1.9224486560     0.4317052420     2.5886383777
  158      C      -5.1314896035    -1.5092687072    -0.9438936215
  159      C      -3.6889023226     3.3246059581    -3.1062818053
  160      C      -7.0123557611     1.1387158174     1.3729280062
  161      C      -5.9100044314     4.4454490478    -0.5913881315
  162      C      -1.8724727517    -1.0327050451     0.5745276757
  163      C      -3.3441295746     4.9352405018    -1.2536082996
  164      C      -1.2480320982    -0.0988267069    -1.3941526233
  165      C      -1.6783303480     4.4335719799     0.2654399652
  166      C      -4.8456812748     2.4957218874    -3.2876147945
  167      C      -4.1603976357     4.3978786568    -2.2732992821
  168      C      -4.7619293560    -0.9183654229    -2.1584538432
  169      C      -4.1366611924    -1.7911524821    -0.0309631916
  170      C      -1.3183171392     2.6841275384     2.0159814916
  171      C      -2.3958961455     2.8283773410    -2.9461031993
  172      C      -5.4557614133     4.4520273283     1.6177664595
  173      C      -3.0188447667     0.8681095906     3.3194118124
  174      C      -3.1161060267     4.2384390726     2.2434650525
  175      C      -2.7753373036    -1.4642609420    -0.3690374301
  176      C      -0.5811805057     1.0654539881     0.6594747569
 ----------------------------------------------------------------

    9   -5804.1962099213      9.16E-06 Convergence criterion met
 Total energy in the final basis set = -5804.1962099213

                    Orbital Energies (a.u.)
 --------------------------------------------------------------

 Alpha MOs
 -- Occupied --
-19.208 -19.192 -19.143 -19.128 -10.327 -10.309 -10.251 -10.249
-10.248 -10.247 -10.242 -10.234 -10.233 -10.232 -10.231 -10.231
-10.230 -10.227 -10.227 -10.227 -10.227 -10.227 -10.226 -10.226
-10.224 -10.224 -10.224 -10.224 -10.224 -10.223 -10.223 -10.223
-10.223 -10.222 -10.222 -10.222 -10.222 -10.221 -10.221 -10.221
-10.221 -10.220 -10.220 -10.220 -10.219 -10.219 -10.219 -10.219
-10.218 -10.218 -10.218 -10.218 -10.218 -10.218 -10.218 -10.218
-10.218 -10.218 -10.217 -10.217 -10.217 -10.217 -10.217 -10.217
-10.217 -10.217 -10.216 -10.216 -10.216 -10.216 -10.216 -10.216
-10.215 -10.215 -10.215 -10.215 -10.215 -10.215 -10.214 -10.214
-10.214 -10.214 -10.213 -10.213 -10.213 -10.213 -10.213 -10.213
-10.213 -10.213 -10.212 -10.212 -10.212 -10.212 -10.212 -10.212
-10.211 -10.211 -10.211 -10.211 -10.211 -10.211 -10.211 -10.211
-10.210 -10.210 -10.210 -10.210 -10.210 -10.210 -10.209 -10.209
-10.209 -10.209 -10.208 -10.208 -10.208 -10.208 -10.208 -10.208
-10.207 -10.207 -10.207 -10.206 -10.205 -10.205 -10.205 -10.205
-10.205 -10.204 -10.204 -10.204 -10.204 -10.203 -10.203 -10.203
-10.203 -10.202 -10.201 -10.201 -10.200 -10.200 -10.199 -10.198
-10.198 -10.196 -10.196 -10.191  -1.108  -1.093  -1.016  -1.001
 -0.990  -0.984  -0.971  -0.969  -0.967  -0.966  -0.964  -0.963
 -0.939  -0.934  -0.933  -0.932  -0.931  -0.929  -0.926  -0.926
 -0.925  -0.921  -0.904  -0.898  -0.895  -0.894  -0.892  -0.888
 -0.879  -0.875  -0.858  -0.852  -0.849  -0.844  -0.840  -0.839
 -0.838  -0.833  -0.826  -0.821  -0.810  -0.807  -0.806  -0.802
 -0.800  -0.798  -0.796  -0.795  -0.793  -0.791  -0.790  -0.782
 -0.777  -0.774  -0.772  -0.770  -0.769  -0.769  -0.765  -0.763
 -0.755  -0.750  -0.747  -0.742  -0.739  -0.732  -0.722  -0.721
 -0.718  -0.717  -0.716  -0.714  -0.713  -0.712  -0.711  -0.711
 -0.710  -0.708  -0.707  -0.705  -0.704  -0.702  -0.681  -0.672
 -0.664  -0.661  -0.657  -0.656  -0.653  -0.646  -0.639  -0.635
 -0.632  -0.628  -0.626  -0.626  -0.625  -0.624  -0.623  -0.620
 -0.618  -0.617  -0.617  -0.614  -0.614  -0.613  -0.612  -0.610
 -0.609  -0.606  -0.602  -0.601  -0.572  -0.570  -0.569  -0.564
 -0.564  -0.563  -0.561  -0.560  -0.558  -0.558  -0.556  -0.554
 -0.543  -0.540  -0.535  -0.534  -0.531  -0.529  -0.528  -0.526
 -0.525  -0.523  -0.521  -0.520  -0.519  -0.517  -0.516  -0.515
 -0.514  -0.507  -0.507  -0.501  -0.499  -0.493  -0.492  -0.489
 -0.486  -0.485  -0.484  -0.483  -0.482  -0.479  -0.479  -0.477
 -0.477  -0.476  -0.473  -0.472  -0.471  -0.470  -0.470  -0.469
 -0.467  -0.467  -0.467  -0.465  -0.464  -0.463  -0.462  -0.462
 -0.460  -0.458  -0.456  -0.453  -0.451  -0.448  -0.448  -0.446
 -0.445  -0.442  -0.441  -0.441  -0.439  -0.439  -0.438  -0.435
 -0.435  -0.434  -0.431  -0.430  -0.430  -0.428  -0.427  -0.426
 -0.425  -0.425  -0.423  -0.423  -0.422  -0.421  -0.419  -0.418
 -0.418  -0.418  -0.417  -0.417  -0.416  -0.415  -0.414  -0.413
 -0.411  -0.411  -0.409  -0.408  -0.406  -0.403  -0.397  -0.397
 -0.396  -0.394  -0.391  -0.390  -0.390  -0.389  -0.385  -0.385
 -0.382  -0.379  -0.378  -0.374  -0.373  -0.371  -0.371  -0.368
 -0.367  -0.366  -0.365  -0.364  -0.363  -0.363  -0.362  -0.361
 -0.361  -0.360  -0.359  -0.357  -0.357  -0.355  -0.355  -0.354
 -0.353  -0.351  -0.350  -0.349  -0.348  -0.348  -0.346  -0.345
 -0.344  -0.344  -0.343  -0.340  -0.339  -0.338  -0.336  -0.335
 -0.334  -0.332  -0.331  -0.330  -0.329  -0.328  -0.326  -0.321
 -0.319  -0.309  -0.307  -0.300  -0.289  -0.284  -0.277  -0.275
 -0.272  -0.270  -0.270  -0.269  -0.266  -0.266  -0.265  -0.265
 -0.264  -0.263  -0.262  -0.260  -0.259  -0.257  -0.256  -0.255
 -0.252  -0.251  -0.247  -0.242  -0.225  -0.218  -0.216  -0.215
 -0.211  -0.209  -0.206  -0.203  -0.200  -0.198

          Ground-State Mulliken Net Atomic Charges

     Atom                 Charge (a.u.)
  ----------------------------------------
      1 O                    -0.449571
      2 C                    -0.092960
      3 H                     0.131332
      4 H                     0.126950
      5 H                     0.110569
      6 O                    -0.463277
      7 C                     0.576361
      8 C                    -0.242601
      9 H                     0.131526
     10 H                     0.125085
     11 C                    -0.197907
     12 H                     0.113450
     13 H                     0.121302
     14 C                    -0.175795
     15 H                     0.109195
     16 H                     0.106442
     17 C                     0.008334
     18 C                     0.067844
     19 C                    -0.104258
     20 H                     0.092553
     21 C                    -0.098864
     22 H                     0.083853
     23 C                    -0.072284
     24 H                     0.093617
     25 C                    -0.108070
     26 H                     0.082338
     27 C                    -0.078799
     28 H                     0.092160
     29 C                    -0.029013
     30 C                    -0.017513
     31 C                     0.019477
     32 C                     0.017055
     33 C                     0.024060
     34 C                     0.005289
     35 C                     0.013918
     36 C                     0.019065
     37 C                     0.005258
     38 C                    -0.013230
     39 C                    -0.108242
     40 C                    -0.007282
     41 C                    -0.017669
     42 C                    -0.012656
     43 C                     0.002542
     44 C                    -0.021794
     45 C                    -0.061251
     46 C                     0.031977
     47 C                    -0.028874
     48 C                    -0.028477
     49 C                    -0.015924
     50 C                    -0.006290
     51 C                     0.004551
     52 C                     0.017597
     53 C                     0.030221
     54 C                    -0.034049
     55 C                     0.027939
     56 C                     0.017972
     57 C                    -0.017157
     58 C                    -0.037777
     59 C                    -0.007009
     60 C                     0.036920
     61 C                     0.008953
     62 C                    -0.000823
     63 C                     0.007761
     64 C                    -0.002797
     65 C                    -0.028211
     66 C                    -0.008678
     67 C                    -0.004248
     68 C                    -0.012259
     69 C                     0.004335
     70 C                     0.032333
     71 C                    -0.023505
     72 C                    -0.019130
     73 C                    -0.006154
     74 C                     0.005287
     75 C                     0.008757
     76 C                     0.010676
     77 C                     0.010206
     78 C                    -0.006082
     79 C                     0.005566
     80 C                     0.006820
     81 C                    -0.000460
     82 C                     0.045792
     83 C                     0.011986
     84 C                     0.024978
     85 C                     0.011929
     86 C                    -0.026441
     87 C                     0.005711
     88 C                    -0.005456
     89 O                    -0.463262
     90 C                    -0.092015
     91 H                     0.123783
     92 H                     0.131037
     93 H                     0.131547
     94 O                    -0.504647
     95 C                     0.627699
     96 C                    -0.273887
     97 H                     0.136303
     98 H                     0.128395
     99 C                    -0.182794
    100 H                     0.108687
    101 H                     0.126535
    102 C                    -0.188904
    103 H                     0.116350
    104 H                     0.122532
    105 C                     0.007111
    106 C                     0.096621
    107 C                    -0.120989
    108 H                     0.094532
    109 C                    -0.085837
    110 H                     0.098294
    111 C                    -0.074075
    112 H                     0.092892
    113 C                    -0.101099
    114 H                     0.095766
    115 C                    -0.100326
    116 H                     0.087619
    117 C                     0.003850
    118 C                    -0.000629
    119 C                     0.014401
    120 C                    -0.010481
    121 C                    -0.008654
    122 C                    -0.001466
    123 C                    -0.014246
    124 C                    -0.019445
    125 C                     0.029286
    126 C                    -0.014983
    127 C                    -0.076626
    128 C                     0.013210
    129 C                     0.008017
    130 C                     0.004031
    131 C                    -0.023352
    132 C                    -0.006248
    133 C                    -0.080232
    134 C                     0.030273
    135 C                    -0.004520
    136 C                     0.003894
    137 C                     0.018993
    138 C                    -0.000010
    139 C                     0.018515
    140 C                     0.013618
    141 C                     0.020468
    142 C                     0.012729
    143 C                     0.023169
    144 C                    -0.007170
    145 C                     0.023315
    146 C                    -0.007836
    147 C                     0.010591
    148 C                     0.009516
    149 C                    -0.024438
    150 C                    -0.044309
    151 C                    -0.001389
    152 C                     0.011779
    153 C                    -0.019102
    154 C                    -0.006087
    155 C                     0.037501
    156 C                    -0.003523
    157 C                     0.000969
    158 C                     0.013394
    159 C                     0.001481
    160 C                    -0.007305
    161 C                     0.009464
    162 C                    -0.029767
    163 C                     0.027932
    164 C                     0.010701
    165 C                    -0.033940
    166 C                    -0.008254
    167 C                    -0.030676
    168 C                     0.023546
    169 C                    -0.007743
    170 C                     0.014988
    171 C                    -0.005530
    172 C                    -0.001310
    173 C                    -0.017084
    174 C                     0.018954
    175 C                     0.000322
    176 C                    -0.005426
  ----------------------------------------
  Sum of atomic charges =     0.000000

                    Cartesian Multipole Moments
 -----------------------------------------------------------------
    Charge (ESU x 10^10)
                 0.0000
    Dipole Moment (Debye)
         X      -4.2144      Y      -2.8763      Z       1.1715
       Tot       5.2351
    Quadrupole Moments (Debye-Ang)
        XX    -812.4514     XY       5.3325     YY    -795.1638
        XZ      19.1978     YZ      -2.4546     ZZ    -808.1297

 Total job time:  876.56s(wall), 7461.40s(cpu)
        *  Thank you very much for using Q-Chem.  Have a nice day.  *
