 Q-Chem 4.4, Q-Chem, Inc., Pleasanton, CA (2016)
 Q-Chem 4.4.2 for Intel X86 Linux

User input:
--------------------------------------------------------------
$comment
SP
$end

$rem
MEM_STATIC 5000
MEM_TOTAL 20000
JOBTYPE SP
EXCHANGE B3LYP
BASIS 6-31g(d,p)
$end

$molecule
0 1
O         -22.393000     28.688000     -0.303000
C         -21.582000     27.706000      0.443000
H         -21.722000     26.680000      0.079000
H         -21.824000     27.694000      1.512000
H         -20.526000     27.972000      0.304000
O         -24.272000     27.467000      0.008000
C         -23.756000     28.480000     -0.384000
C         -24.564000     29.689000     -0.929000
H         -24.346000     30.595000     -0.351000
H         -25.656000     29.581000     -0.912000
C         -24.315000     30.025000     -2.436000
H         -24.853000     30.942000     -2.706000
H         -23.253000     30.108000     -2.695000
C         -24.860000     28.843000     -3.336000
H         -24.818000     27.877000     -2.817000
H         -25.952000     28.836000     -3.441000
C         -24.140000     28.799000     -4.667000
C         -24.609000     29.996000     -5.432000
C         -23.749000     31.095000     -5.737000
H         -22.717000     31.037000     -5.404000
C         -24.203000     32.106000     -6.576000
H         -23.464000     32.885000     -6.735000
C         -25.576000     32.173000     -7.002000
H         -25.890000     32.965000     -7.675000
C         -26.443000     31.115000     -6.707000
H         -27.456000     31.119000     -7.098000
C         -25.971000     30.022000     -5.926000
H         -26.699000     29.225000     -5.802000
C         -22.045000     25.945000     -8.969000
C         -20.312000     27.638000     -8.530000
C         -17.274000     24.762000     -6.736000
C         -23.184000     23.347000     -4.697000
C         -18.219000     25.585000     -3.443000
C         -21.703000     27.256000     -8.594000
C         -20.837000     23.174000     -3.158000
C         -18.743000     24.541000     -8.632000
C         -20.352000     28.637000     -4.657000
C         -23.006000     24.280000     -3.625000
C         -22.704000     28.300000     -4.614000
C         -20.664000     27.941000     -3.456000
C         -21.483000     25.411000     -2.397000
C         -19.497000     23.536000     -3.069000
C         -21.412000     28.595000     -6.762000
C         -17.755000     23.589000     -4.852000
C         -23.742000     27.484000     -5.387000
C         -24.025000     26.060000     -4.943000
C         -17.514000     24.917000     -4.507000
C         -20.855000     22.163000     -7.074000
C         -18.668000     22.765000     -6.986000
C         -19.166000     23.266000     -8.195000
C         -19.682000     25.388000     -9.184000
C         -24.061000     25.190000     -6.048000
C         -21.501000     28.848000     -5.368000
C         -19.329000     26.702000     -8.848000
C         -21.808000     24.131000     -2.836000
C         -20.146000     28.529000     -7.457000
C         -19.715000     27.050000     -2.869000
C         -23.030000     23.139000     -6.998000
C         -17.778000     25.262000     -7.949000
C         -22.024000     27.654000     -3.444000
C         -21.507000     23.690000     -8.792000
C         -20.156000     25.803000     -2.345000
C         -19.079000     28.528000     -5.244000
C         -19.734000     22.070000     -4.852000
C         -21.001000     22.321000     -4.288000
C         -18.157000     27.663000     -4.675000
C         -23.679000     23.832000     -5.946000
C         -23.329000     25.610000     -3.783000
C         -22.117000     22.270000     -6.420000
C         -23.500000     27.260000     -6.883000
C         -17.992000     27.551000     -6.990000
C         -22.440000     26.343000     -3.054000
C         -18.497000     26.917000     -3.504000
C         -22.752000     23.901000     -8.148000
C         -17.192000     25.636000     -5.648000
C         -21.043000     25.002000     -9.313000
C         -17.675000     23.515000     -6.252000
C         -18.959000     28.460000     -6.641000
C         -17.539000     27.014000     -5.744000
C         -22.377000     27.848000     -7.517000
C         -23.749000     25.904000     -7.203000
C         -19.665000     22.058000     -6.277000
C         -18.176000     26.647000     -8.057000
C         -19.169000     24.894000     -2.707000
C         -22.152000     22.421000     -5.021000
C         -18.797000     22.913000     -4.161000
C         -23.092000     25.262000     -8.272000
C         -20.511000     22.898000     -8.190000
O         -12.028000      8.808000     -5.644000
C         -11.163000      7.819000     -6.294000
H         -11.736000      6.950000     -6.639000
H         -10.457000      7.481000     -5.526000
H         -10.534000      8.236000     -7.091000
O         -10.217000     10.160000     -5.351000
C         -11.394000      9.900000     -5.152000
C         -12.298000     10.724000     -4.183000
H         -12.060000     10.506000     -3.135000
H         -13.292000     10.324000     -4.418000
C         -12.290000     12.230000     -4.506000
H         -13.050000     12.817000     -3.977000
H         -11.325000     12.613000     -4.153000
C         -12.438000     12.610000     -6.045000
H         -11.808000     11.933000     -6.636000
H         -13.481000     12.463000     -6.351000
C         -12.049000     14.061000     -6.435000
C         -10.641000     14.450000     -6.064000
C          -9.598000     13.857000     -6.819000
H          -9.863000     13.158000     -7.606000
C          -8.255000     14.108000     -6.500000
H          -7.485000     13.575000     -7.051000
C          -7.915000     14.899000     -5.438000
H          -6.870000     15.019000     -5.168000
C          -9.001000     15.484000     -4.685000
H          -8.766000     16.069000     -3.801000
C         -10.345000     15.227000     -5.014000
H         -11.107000     15.708000     -4.408000
C         -13.657000     19.407000     -6.374000
C         -12.416000     19.221000     -8.477000
C         -15.962000     19.449000    -11.308000
C         -17.307000     15.934000     -6.329000
C         -16.180000     16.107000    -11.817000
C         -12.634000     18.844000     -7.178000
C         -18.161000     15.443000     -8.887000
C         -15.428000     20.651000     -9.231000
C         -12.548000     15.445000     -9.949000
C         -16.848000     14.794000     -6.978000
C         -12.701000     14.728000     -7.649000
C         -13.640000     14.558000     -9.813000
C         -16.243000     14.022000     -8.959000
C         -17.966000     15.787000    -10.225000
C         -11.826000     17.013000     -8.226000
C         -17.628000     17.952000    -11.222000
C         -13.148000     15.193000     -6.307000
C         -14.601000     15.048000     -6.015000
C         -16.535000     17.431000    -11.985000
C         -18.029000     19.168000     -7.335000
C         -17.669000     19.694000     -9.553000
C         -16.782000     20.444000     -8.741000
C         -14.370000     20.586000     -8.357000
C         -15.062000     16.239000     -5.420000
C         -12.043000     15.681000     -8.621000
C         -13.279000     20.114000     -9.080000
C         -17.284000     14.529000     -8.234000
C         -11.966000     18.092000     -9.164000
C         -14.718000     14.664000    -10.719000
C         -16.743000     18.020000     -5.619000
C         -15.057000     20.157000    -10.482000
C         -13.785000     14.113000     -8.507000
C         -15.807000     20.029000     -6.572000
C         -15.983000     14.364000    -10.290000
C         -12.677000     16.568000    -10.883000
C         -18.769000     17.646000     -9.081000
C         -18.593000     16.576000     -8.186000
C         -13.766000     16.611000    -11.741000
C         -16.377000     16.655000     -5.541000
C         -15.540000     14.389000     -6.839000
C         -17.878000     18.093000     -6.468000
C         -12.975000     16.643000     -6.163000
C         -13.249000     18.732000    -11.085000
C         -15.123000     13.829000     -8.084000
C         -14.860000     15.680000    -11.700000
C         -15.726000     18.987000     -5.633000
C         -15.522000     18.313000    -12.064000
C         -14.496000     20.325000     -7.028000
C         -17.320000     19.215000    -10.813000
C         -12.321000     17.863000    -10.497000
C         -14.142000     17.936000    -11.946000
C         -12.218000     17.489000     -6.987000
C         -14.051000     17.200000     -5.484000
C         -18.408000     18.934000     -8.677000
C         -13.730000     19.856000    -10.385000
C         -16.891000     15.231000    -10.949000
C         -18.201000     16.840000     -6.873000
C         -18.353000     17.134000    -10.348000
C         -14.395000     18.571000     -5.573000
C         -16.979000     20.105000     -7.394000
$end

--------------------------------------------------------------

             Standard Nuclear Orientation (Angstroms)
    I     Atom           X                Y                Z
 ----------------------------------------------------------------
    1      O       9.6134961713     4.8156915035     0.2459176515
    2      C       8.4861019310     5.7682805884     0.2567464115
    3      H       7.6838744722     5.4801284991    -0.4347530301
    4      H       8.7951103886     6.7807326880    -0.0277241833
    5      H       8.0686364788     5.7786391415     1.2720435584
    6      O       9.7682666538     4.9270276393    -2.0083789933
    7      C      10.2169760850     4.5342480162    -0.9641218343
    8      C      11.5581708624     3.7592699858    -0.8537786352
    9      H      12.2553890393     4.2811301039    -0.1874507648
   10      H      12.1023744968     3.6089943102    -1.7948825751
   11      C      11.4310526876     2.2883989786    -0.3377113434
   12      H      12.4293566985     1.8535994949    -0.2051537673
   13      H      10.8434464358     2.1982487112     0.5833781323
   14      C      10.6467603873     1.4219982617    -1.4046623195
   15      H       9.9361944945     2.0256453052    -1.9834432443
   16      H      11.2513596956     1.1427531928    -2.2764535032
   17      C       9.9740977455     0.2344475765    -0.7495704631
   18      C      11.0738411316    -0.7007997402    -0.3573053217
   19      C      11.4082458453    -0.9601516671     1.0070025854
   20      H      10.8243726002    -0.4607123015     1.7744199123
   21      C      12.3379949111    -1.9489767461     1.3069186367
   22      H      12.5102295066    -2.0556695782     2.3733120368
   23      C      13.1095151413    -2.5957927950     0.2785803980
   24      H      13.8112719806    -3.3791511836     0.5481652151
   25      C      12.8102881697    -2.3510855540    -1.0662837534
   26      H      13.3302571733    -2.8995953331    -1.8459216550
   27      C      11.7947878524    -1.4089762094    -1.3958032342
   28      H      11.5959383967    -1.3332810813    -2.4613069375
   29      C       5.7618667422    -3.3977447802    -0.4242496074
   30      C       6.1949306106    -2.8380832742     1.9340323275
   31      C       2.4464177952    -0.3250452540     2.5277895017
   32      C       5.0535446779     0.8496440715    -3.2090075495
   33      C       4.2016675091     2.6841883184     2.0007081525
   34      C       6.6780266907    -3.0917128228     0.5971736104
   35      C       3.8240201614     2.7573520708    -1.5489537393
   36      C       2.7956970596    -2.4061118834     1.3664180367
   37      C       7.6681785386     0.8717424794     2.1918373321
   38      C       5.8783229946     1.8480701509    -2.5972534386
   39      C       8.7577918842     0.5637275944     0.1025332404
   40      C       7.4918590489     2.0640617566     1.4358960786
   41      C       6.1145547876     3.1996301655    -0.8016604817
   42      C       3.3584277612     3.0290952266    -0.2667897973
   43      C       7.8905572403    -1.3646233158     1.4807784434
   44      C       2.0999631988     1.5539985845     1.3006344725
   45      C       8.5713547053    -0.2905300921    -1.1529801937
   46      C       7.6682928332     0.2279894235    -2.2577959101
   47      C       3.0827684464     1.8126789608     2.2534557087
   48      C       2.3672897283    -1.0030367846    -1.8570334404
   49      C       1.6067437319    -0.6167994379     0.2466555811
   50      C       2.0912682509    -1.9305150553     0.2380959592
   51      C       3.9211498650    -3.1766305887     1.1578732994
   52      C       6.8067818611    -0.7855526044    -2.7157832491
   53      C       8.3783743805    -0.0318474764     1.4506288204
   54      C       4.8268398252    -2.9074145846     2.1929334132
   55      C       5.2026997240     2.8306685384    -1.7861063465
   56      C       6.9931431757    -1.8368413809     2.5112128642
   57      C       6.3312987697     2.8745482287     1.6236792431
   58      C       4.4121086609    -1.3679878064    -3.0294255610
   59      C       2.9329195777    -1.6435727004     2.5141370680
   60      C       8.0459666870     1.8815968966     0.1742367346
   61      C       3.6764993850    -2.9340865710    -1.3418889977
   62      C       5.6742479102     3.4302129438     0.4907243047
   63      C       6.7504391242     0.5106556054     3.1940097906
   64      C       2.0213778966     1.3703104768    -1.1861073777
   65      C       3.0455173453     1.6970034032    -2.0975875594
   66      C       5.6232004398     1.2967476797     3.3769365496
   67      C       5.5168159335    -0.5014570290    -3.2215199489
   68      C       7.1025432737     1.5210049749    -2.0564151273
   69      C       3.2883523753    -0.5741479595    -2.8567868981
   70      C       8.0016689902    -1.7013941426    -0.9750003718
   71      C       5.0499647771    -0.9414904152     3.6232800202
   72      C       7.3007938954     2.3153738847    -0.9661281347
   73      C       5.4179031367     2.4595485427     2.5712665363
   74      C       4.6693906102    -2.5216212545    -2.2656429572
   75      C       3.2818304231     0.6788739195     3.0263635024
   76      C       4.3728812807    -3.4889234939    -0.1522297001
   77      C       1.7596534498     0.1977826826     1.4300319316
   78      C       6.3924401875    -0.8366792747     3.3588080985
   79      C       4.5686965285     0.4045402782     3.5715475816
   80      C       7.7204257168    -2.1955817502     0.3232714909
   81      C       7.0052387486    -1.9342844076    -1.9527661404
   82      C       1.7328436470    -0.0178255124    -1.0268702521
   83      C       4.2526983192    -1.9385800558     3.0234971898
   84      C       4.3180910397     3.3158624681     0.7722496346
   85      C       3.6642823061     0.7814460103    -2.9044175190
   86      C       2.2737375411     2.1252162947     0.0107764161
   87      C       5.9339176804    -2.8208106303    -1.7227304356
   88      C       2.5707130153    -2.1101521093    -1.0589534796
   89      O     -13.1620777280     3.0307586056    -2.7972967847
   90      C     -14.5605091755     2.6208342296    -2.6385596039
   91      H     -14.9848746618     2.2671830846    -3.5858503732
   92      H     -15.1081361729     3.5201748541    -2.3322997259
   93      H     -14.7220336384     1.9019009909    -1.8250586228
   94      O     -13.0714395046     3.4902104486    -0.5670136824
   95      C     -12.5695278047     3.5186978619    -1.6804781465
   96      C     -11.2272437396     4.2506295249    -1.9930521842
   97      H     -11.3626936224     5.3386237986    -2.0128963186
   98      H     -11.0155232707     3.8948078619    -3.0088407386
   99      C     -10.0800935942     3.7991539760    -1.0696641983
  100      H      -9.0842615405     4.1432877428    -1.3728151037
  101      H     -10.2689422302     4.2677724256    -0.0963934543
  102      C      -9.9490989789     2.2286457832    -0.8434575953
  103      H     -10.9526690854     1.8106376122    -0.6930374824
  104      H      -9.5185288663     1.7723843242    -1.7431958123
  105      C      -9.0762930706     1.7779177183     0.3581563435
  106      C      -9.5120130881     2.3353644453     1.6888806624
  107      C     -10.7133025975     1.8154648715     2.2330598130
  108      H     -11.2528269318     1.0620071457     1.6678961659
  109      C     -11.2308903938     2.3236955483     3.4339825633
  110      H     -12.1929232583     1.9547067082     3.7788448598
  111      C     -10.6146425826     3.3512685767     4.0923573096
  112      H     -11.0740280519     3.7749022559     4.9805152327
  113      C      -9.3953727370     3.8629641917     3.5091089566
  114      H      -8.9136035183     4.7171375509     3.9751478952
  115      C      -8.8836936801     3.3452837385     2.3046101019
  116      H      -7.9586667304     3.7742901750     1.9310868498
  117      C      -3.8605576571     1.0972170268     2.2294798499
  118      C      -5.0760920534    -0.7519337636     3.2784810347
  119      C      -3.3300954827    -4.1282629331     0.7899958903
  120      C      -4.5355952687     0.8629938251    -2.7580764370
  121      C      -5.9664383379    -4.3633813313    -1.3242379399
  122      C      -5.0345518372     0.5232317937     2.7792003400
  123      C      -4.8672636909    -1.7448601337    -3.5345136768
  124      C      -2.3258477507    -2.1087757314     1.7682836470
  125      C      -8.2711052735    -1.8804929684     1.0512341592
  126      C      -5.8213517135     0.4019313638    -3.0144624186
  127      C      -8.3711372122     0.4194517580     0.3247729649
  128      C      -8.3307324978    -1.8438126116    -0.3604414925
  129      C      -7.1200003980    -1.3775673949    -2.8320733786
  130      C      -4.9285541700    -3.0591074543    -3.0701835598
  131      C      -7.1412950069    -0.2113644879     2.4246153433
  132      C      -3.5565804428    -4.1787699874    -1.4393794931
  133      C      -7.5164561800     1.6241473812     0.1370849560
  134      C      -6.7481565296     1.6890348891    -1.1368864952
  135      C      -4.7303036707    -4.7049121627    -0.8118389002
  136      C      -1.6996586462    -0.5330995769    -1.3436992999
  137      C      -1.8578213318    -2.7018019725    -0.5707086891
  138      C      -1.6308720077    -1.8277186053     0.5215757387
  139      C      -2.8394423375    -1.0728477745     2.5102667119
  140      C      -5.4294766939     2.0921231654    -0.8476974007
  141      C      -8.1494968180    -0.5149382060     1.4925691504
  142      C      -3.9660613724    -1.5644085175     3.1621037974
  143      C      -5.9937651108    -0.8790966827    -3.4232383530
  144      C      -6.3542455258    -1.2527845017     3.0243506758
  145      C      -7.7781797004    -2.9181085716    -1.0916935670
  146      C      -3.0702186992     1.4645052025    -1.1257628727
  147      C      -3.1447774299    -3.2337342896     1.8707552184
  148      C      -8.3844408952    -0.5438449592    -0.8419864134
  149      C      -2.1595936482     0.4988607570     0.8888534236
  150      C      -7.2190882358    -2.6742387473    -2.3173404342
  151      C      -7.4544740455    -2.9201567373     1.6855358895
  152      C      -2.7861455838    -2.2318773292    -2.7024856270
  153      C      -3.5939054299    -1.2276983391    -3.2646685037
  154      C      -6.9379872166    -3.9433997854     0.9044155275
  155      C      -4.3606206219     1.7230557296    -1.6466078619
  156      C      -6.8743524294     0.7865665602    -2.2160544665
  157      C      -2.5017500535     0.4399675051    -1.9267128746
  158      C      -6.4306068105     1.6633333916     1.1232698288
  159      C      -5.4266275168    -3.4057057179     2.5239657575
  160      C      -7.7715736829    -0.3191210422    -2.1162398973
  161      C      -7.0476493212    -3.9964471530    -0.5275195966
  162      C      -2.8829247910     1.5283917919     0.2636303386
  163      C      -4.6196899775    -4.6979103946     0.5290748129
  164      C      -2.7528687037     0.2362598531     2.1511285417
  165      C      -2.6536016592    -3.8405127999    -0.4762982965
  166      C      -6.5573289210    -2.5996116128     2.7078560197
  167      C      -5.6951902434    -4.3247790588     1.4034461210
  168      C      -6.3267204773     0.9000212910     2.2955766431
  169      C      -5.2519327292     2.1064420853     0.5372253802
  170      C      -1.8944584886    -1.8922050755    -1.6817026509
  171      C      -4.1324721684    -2.8966461009     2.7492594338
  172      C      -6.1134079176    -3.5466903152    -2.4808436319
  173      C      -3.3874253139     0.1023154240    -2.8962145018
  174      C      -3.6480480160    -3.3636605868    -2.5733351131
  175      C      -3.9712216472     1.8401020262     1.0801250922
  176      C      -1.5629166519    -0.5053997635     0.0579013377
 ----------------------------------------------------------------

    9   -5804.3019747902      8.96E-06 Convergence criterion met
 Total energy in the final basis set = -5804.3019747902

                    Orbital Energies (a.u.)
 --------------------------------------------------------------

 Alpha MOs
 -- Occupied --
-19.203 -19.189 -19.139 -19.136 -10.322 -10.319 -10.251 -10.245
-10.244 -10.243 -10.241 -10.239 -10.237 -10.236 -10.229 -10.227
-10.226 -10.226 -10.226 -10.224 -10.224 -10.224 -10.224 -10.222
-10.222 -10.221 -10.221 -10.221 -10.221 -10.221 -10.220 -10.220
-10.220 -10.220 -10.220 -10.219 -10.219 -10.219 -10.218 -10.218
-10.218 -10.218 -10.217 -10.217 -10.216 -10.216 -10.216 -10.216
-10.216 -10.216 -10.216 -10.215 -10.215 -10.215 -10.215 -10.215
-10.215 -10.215 -10.215 -10.215 -10.215 -10.214 -10.214 -10.214
-10.214 -10.214 -10.214 -10.214 -10.214 -10.214 -10.214 -10.213
-10.213 -10.213 -10.213 -10.213 -10.213 -10.213 -10.213 -10.213
-10.212 -10.212 -10.212 -10.212 -10.212 -10.212 -10.212 -10.212
-10.212 -10.212 -10.212 -10.211 -10.211 -10.211 -10.211 -10.211
-10.211 -10.211 -10.211 -10.211 -10.211 -10.210 -10.210 -10.210
-10.210 -10.210 -10.210 -10.210 -10.209 -10.209 -10.209 -10.208
-10.208 -10.208 -10.208 -10.208 -10.208 -10.207 -10.207 -10.207
-10.207 -10.207 -10.207 -10.207 -10.206 -10.206 -10.205 -10.205
-10.205 -10.204 -10.204 -10.204 -10.203 -10.203 -10.203 -10.202
-10.202 -10.201 -10.200 -10.200 -10.200 -10.199 -10.198 -10.197
-10.196 -10.194 -10.191 -10.191  -1.099  -1.086  -1.012  -1.007
 -0.981  -0.978  -0.964  -0.962  -0.960  -0.958  -0.958  -0.955
 -0.933  -0.927  -0.925  -0.923  -0.923  -0.920  -0.920  -0.920
 -0.918  -0.915  -0.896  -0.891  -0.887  -0.885  -0.884  -0.882
 -0.872  -0.870  -0.852  -0.845  -0.838  -0.838  -0.837  -0.836
 -0.834  -0.833  -0.820  -0.815  -0.801  -0.799  -0.797  -0.795
 -0.794  -0.793  -0.791  -0.790  -0.788  -0.787  -0.782  -0.781
 -0.768  -0.768  -0.766  -0.765  -0.764  -0.763  -0.762  -0.759
 -0.749  -0.749  -0.737  -0.732  -0.731  -0.725  -0.714  -0.714
 -0.712  -0.712  -0.710  -0.710  -0.709  -0.708  -0.707  -0.706
 -0.706  -0.705  -0.704  -0.702  -0.700  -0.698  -0.670  -0.668
 -0.658  -0.656  -0.654  -0.652  -0.646  -0.642  -0.630  -0.627
 -0.626  -0.625  -0.625  -0.622  -0.620  -0.619  -0.617  -0.617
 -0.613  -0.611  -0.611  -0.610  -0.609  -0.608  -0.607  -0.607
 -0.604  -0.601  -0.600  -0.598  -0.567  -0.562  -0.562  -0.562
 -0.560  -0.558  -0.556  -0.555  -0.555  -0.553  -0.551  -0.550
 -0.536  -0.533  -0.531  -0.531  -0.527  -0.525  -0.524  -0.521
 -0.519  -0.518  -0.517  -0.517  -0.516  -0.513  -0.513  -0.510
 -0.505  -0.503  -0.499  -0.498  -0.491  -0.490  -0.485  -0.482
 -0.482  -0.481  -0.479  -0.479  -0.477  -0.477  -0.474  -0.472
 -0.472  -0.471  -0.470  -0.466  -0.466  -0.464  -0.464  -0.463
 -0.463  -0.461  -0.461  -0.460  -0.459  -0.457  -0.457  -0.454
 -0.452  -0.451  -0.450  -0.447  -0.446  -0.444  -0.444  -0.443
 -0.440  -0.437  -0.437  -0.437  -0.436  -0.436  -0.433  -0.432
 -0.430  -0.428  -0.426  -0.426  -0.424  -0.424  -0.423  -0.421
 -0.421  -0.420  -0.419  -0.418  -0.417  -0.417  -0.416  -0.416
 -0.415  -0.415  -0.414  -0.413  -0.412  -0.411  -0.411  -0.410
 -0.410  -0.409  -0.408  -0.404  -0.403  -0.402  -0.396  -0.395
 -0.393  -0.391  -0.388  -0.387  -0.386  -0.384  -0.384  -0.382
 -0.377  -0.375  -0.374  -0.371  -0.369  -0.365  -0.364  -0.363
 -0.362  -0.362  -0.361  -0.359  -0.359  -0.357  -0.357  -0.355
 -0.355  -0.354  -0.353  -0.353  -0.352  -0.352  -0.351  -0.350
 -0.349  -0.349  -0.348  -0.346  -0.345  -0.345  -0.345  -0.344
 -0.342  -0.341  -0.340  -0.338  -0.337  -0.334  -0.333  -0.332
 -0.331  -0.330  -0.329  -0.328  -0.325  -0.325  -0.323  -0.322
 -0.307  -0.307  -0.304  -0.298  -0.289  -0.283  -0.271  -0.268
 -0.268  -0.267  -0.267  -0.265  -0.265  -0.264  -0.263  -0.262
 -0.260  -0.260  -0.259  -0.258  -0.257  -0.254  -0.253  -0.252
 -0.246  -0.244  -0.241  -0.239  -0.220  -0.219  -0.213  -0.210
 -0.208  -0.204  -0.203  -0.202  -0.197  -0.195

          Ground-State Mulliken Net Atomic Charges

     Atom                 Charge (a.u.)
  ----------------------------------------
      1 O                    -0.486081
      2 C                    -0.090198
      3 H                     0.137049
      4 H                     0.125101
      5 H                     0.126046
      6 O                    -0.462252
      7 C                     0.611739
      8 C                    -0.246403
      9 H                     0.124869
     10 H                     0.130487
     11 C                    -0.192690
     12 H                     0.120083
     13 H                     0.119740
     14 C                    -0.202196
     15 H                     0.115425
     16 H                     0.105876
     17 C                     0.004206
     18 C                     0.092039
     19 C                    -0.101487
     20 H                     0.095932
     21 C                    -0.095235
     22 H                     0.090618
     23 C                    -0.089468
     24 H                     0.091589
     25 C                    -0.087036
     26 H                     0.094250
     27 C                    -0.110394
     28 H                     0.092232
     29 C                    -0.001601
     30 C                    -0.002625
     31 C                    -0.006877
     32 C                    -0.030063
     33 C                     0.016479
     34 C                    -0.006435
     35 C                     0.012633
     36 C                     0.012131
     37 C                     0.019786
     38 C                    -0.030410
     39 C                    -0.090959
     40 C                     0.012035
     41 C                    -0.027576
     42 C                    -0.011924
     43 C                     0.013456
     44 C                    -0.010598
     45 C                    -0.082618
     46 C                    -0.003109
     47 C                     0.001826
     48 C                     0.000115
     49 C                    -0.003173
     50 C                     0.006533
     51 C                     0.016818
     52 C                     0.031089
     53 C                    -0.011020
     54 C                     0.006109
     55 C                     0.009537
     56 C                    -0.014165
     57 C                    -0.020343
     58 C                     0.005202
     59 C                    -0.003599
     60 C                     0.037484
     61 C                    -0.046609
     62 C                    -0.003486
     63 C                     0.010211
     64 C                    -0.024096
     65 C                     0.014364
     66 C                    -0.009580
     67 C                    -0.016440
     68 C                     0.066442
     69 C                    -0.015741
     70 C                     0.014295
     71 C                     0.001524
     72 C                    -0.017825
     73 C                     0.003329
     74 C                     0.014358
     75 C                     0.010334
     76 C                    -0.025630
     77 C                     0.003413
     78 C                    -0.015153
     79 C                    -0.005765
     80 C                     0.025133
     81 C                     0.005332
     82 C                    -0.003171
     83 C                    -0.006542
     84 C                    -0.008329
     85 C                     0.030485
     86 C                    -0.000934
     87 C                     0.011501
     88 C                     0.030786
     89 O                    -0.457110
     90 C                    -0.093185
     91 H                     0.128355
     92 H                     0.130184
     93 H                     0.139162
     94 O                    -0.472512
     95 C                     0.591708
     96 C                    -0.259913
     97 H                     0.138672
     98 H                     0.124445
     99 C                    -0.186718
    100 H                     0.107061
    101 H                     0.129655
    102 C                    -0.188124
    103 H                     0.120801
    104 H                     0.107841
    105 C                     0.005047
    106 C                     0.105131
    107 C                    -0.089415
    108 H                     0.090923
    109 C                    -0.084068
    110 H                     0.090005
    111 C                    -0.075698
    112 H                     0.093534
    113 C                    -0.112211
    114 H                     0.087437
    115 C                    -0.104981
    116 H                     0.092664
    117 C                    -0.013719
    118 C                     0.032291
    119 C                    -0.031051
    120 C                    -0.024642
    121 C                     0.016165
    122 C                    -0.009196
    123 C                    -0.002507
    124 C                    -0.010983
    125 C                    -0.032006
    126 C                     0.029293
    127 C                    -0.090087
    128 C                     0.023493
    129 C                     0.000820
    130 C                     0.012066
    131 C                     0.015481
    132 C                     0.002052
    133 C                    -0.095786
    134 C                     0.031173
    135 C                     0.018421
    136 C                    -0.008192
    137 C                     0.029809
    138 C                    -0.034613
    139 C                     0.042079
    140 C                    -0.017662
    141 C                     0.021022
    142 C                    -0.034486
    143 C                    -0.002485
    144 C                    -0.004597
    145 C                     0.017478
    146 C                    -0.004956
    147 C                     0.028124
    148 C                     0.068593
    149 C                    -0.005531
    150 C                    -0.003914
    151 C                     0.006223
    152 C                    -0.020397
    153 C                     0.000623
    154 C                    -0.001791
    155 C                    -0.002144
    156 C                    -0.003136
    157 C                     0.010544
    158 C                     0.047502
    159 C                    -0.016482
    160 C                    -0.064034
    161 C                    -0.019571
    162 C                    -0.013393
    163 C                     0.006956
    164 C                    -0.016151
    165 C                     0.001123
    166 C                    -0.006109
    167 C                    -0.010598
    168 C                    -0.022048
    169 C                     0.012526
    170 C                     0.003525
    171 C                    -0.001052
    172 C                    -0.031322
    173 C                     0.012750
    174 C                    -0.011231
    175 C                     0.010969
    176 C                     0.005909
  ----------------------------------------
  Sum of atomic charges =     0.000000

                    Cartesian Multipole Moments
 -----------------------------------------------------------------
    Charge (ESU x 10^10)
                 0.0000
    Dipole Moment (Debye)
         X      -0.6924      Y       1.5301      Z      -0.0328
       Tot       1.6798
    Quadrupole Moments (Debye-Ang)
        XX    -703.5107     XY     -25.3416     YY    -803.2581
        XZ      21.8774     YZ       7.7694     ZZ    -807.6117

 Total job time:  828.91s(wall), 6964.05s(cpu)
        *  Thank you very much for using Q-Chem.  Have a nice day.  *
