 Q-Chem 4.4, Q-Chem, Inc., Pleasanton, CA (2016)
 Q-Chem 4.4.2 for Intel X86 Linux

User input:
--------------------------------------------------------------
$comment
SP
$end

$rem
MEM_STATIC 5000
MEM_TOTAL 20000
JOBTYPE SP
EXCHANGE B3LYP
BASIS 6-31g(d,p)
$end

$molecule
0 1
O         -10.161000     18.519000      8.346000
C         -10.922000     18.692000      7.169000
H         -10.404000     18.197000      6.339000
H         -11.103000     19.763000      7.018000
H         -11.955000     18.338000      7.275000
O          -8.173000     19.070000      7.388000
C          -8.799000     18.546000      8.253000
C          -8.145000     17.647000      9.329000
H          -8.652000     17.935000     10.258000
H          -7.075000     17.889000      9.370000
C          -8.370000     16.111000      9.186000
H          -7.635000     15.717000      9.900000
H          -9.347000     15.790000      9.569000
C          -8.095000     15.517000      7.792000
H          -8.694000     16.027000      7.027000
H          -7.050000     15.733000      7.538000
C          -8.393000     13.987000      7.835000
C          -9.857000     13.721000      8.258000
C         -10.863000     14.159000      7.405000
H         -10.685000     14.674000      6.465000
C         -12.231000     13.918000      7.680000
H         -13.002000     14.127000      6.944000
C         -12.586000     13.212000      8.813000
H         -13.627000     12.950000      8.980000
C         -11.572000     12.899000      9.726000
H         -11.827000     12.308000     10.601000
C         -10.200000     13.069000      9.437000
H          -9.397000     12.817000     10.123000
C          -6.285000      9.009000      8.850000
C          -7.811000      8.616000      6.989000
C          -4.645000      7.882000      3.904000
C          -3.023000     12.695000      7.646000
C          -4.858000     11.069000      2.487000
C          -7.445000      9.310000      8.130000
C          -2.514000     12.641000      4.834000
C          -4.755000      7.067000      6.180000
C          -8.177000     11.804000      4.681000
C          -3.739000     13.537000      6.779000
C          -7.828000     13.156000      6.633000
C          -7.217000     12.814000      4.346000
C          -4.679000     13.751000      4.747000
C          -2.823000     11.909000      3.674000
C          -8.486000     10.726000      6.790000
C          -3.216000      9.529000      3.322000
C          -7.253000     13.019000      8.009000
C          -5.770000     13.287000      8.115000
C          -4.440000      9.772000      2.649000
C          -2.187000      9.340000      7.201000
C          -2.740000      8.259000      5.307000
C          -3.433000      7.629000      6.337000
C          -5.743000      7.345000      7.157000
C          -5.068000     12.369000      8.941000
C          -8.473000     11.914000      6.039000
C          -6.955000      7.622000      6.497000
C          -3.454000     13.524000      5.370000
C          -8.446000      9.492000      6.169000
C          -6.296000     12.563000      3.397000
C          -3.273000     10.793000      8.908000
C          -5.351000      7.241000      4.917000
C          -6.987000     13.589000      5.541000
C          -4.129000      8.523000      8.477000
C          -4.969000     13.041000      3.577000
C          -8.088000     10.534000      4.069000
C          -1.776000     10.486000      5.006000
C          -1.893000     11.731000      5.705000
C          -7.122000     10.352000      3.024000
C          -3.733000     12.116000      8.733000
C          -5.109000     13.889000      7.018000
C          -2.275000     10.618000      7.867000
C          -7.268000     11.658000      8.673000
C          -7.403000      8.397000      4.238000
C          -5.688000     14.014000      5.725000
C          -6.217000     11.335000      2.672000
C          -4.191000      9.765000      9.193000
C          -5.323000      8.743000      2.995000
C          -5.406000      8.004000      8.360000
C          -3.312000      8.334000      4.034000
C          -8.177000      9.412000      4.769000
C          -6.695000      9.022000      3.181000
C          -7.904000     10.614000      8.067000
C          -5.983000     11.352000      9.228000
C          -2.042000      9.350000      5.792000
C          -6.728000      7.515000      5.118000
C          -4.065000     12.165000      3.009000
C          -2.141000     11.793000      7.127000
C          -2.421000     10.587000      3.788000
C          -5.527000     10.043000      9.411000
C          -3.076000      8.298000      7.519000
O         -11.161000      8.214000     10.139000
C         -10.864000      9.194000      9.123000
H         -11.675000      9.931000      9.180000
H         -10.805000      8.737000      8.128000
H          -9.997000      9.791000      9.432000
O          -9.058000      7.548000     10.310000
C         -10.186000      7.407000     10.650000
C         -10.686000      6.295000     11.645000
H         -10.001000      6.426000     12.492000
H         -10.408000      5.331000     11.201000
C         -12.150000      6.323000     12.074000
H         -12.222000      5.528000     12.827000
H         -12.418000      7.273000     12.552000
C         -13.192000      6.017000     10.933000
H         -14.188000      6.106000     11.385000
H         -13.156000      6.729000     10.099000
C         -13.095000      4.594000     10.370000
C         -13.293000      3.562000     11.419000
C         -14.543000      3.534000     12.004000
H         -15.316000      4.170000     11.583000
C         -14.834000      2.532000     12.915000
H         -15.812000      2.538000     13.387000
C         -13.829000      1.874000     13.667000
H         -14.063000      1.303000     14.561000
C         -12.553000      1.898000     13.047000
H         -11.763000      1.435000     13.632000
C         -12.291000      2.770000     11.923000
H         -11.292000      2.896000     11.518000
C         -10.425000      1.217000      7.155000
C         -12.685000      0.465000      6.924000
C         -13.311000      1.939000      2.644000
C         -10.008000      6.209000      6.133000
C         -15.035000      4.937000      3.655000
C         -11.664000      1.020000      7.681000
C         -12.008000      6.931000      4.189000
C         -11.312000      0.862000      3.674000
C         -15.308000      3.547000      7.426000
C         -11.289000      6.697000      6.483000
C         -13.709000      4.409000      8.995000
C         -15.150000      4.905000      7.108000
C         -13.514000      6.950000      6.080000
C         -13.021000      6.374000      3.328000
C         -13.596000      1.997000      8.315000
C         -13.152000      4.176000      2.326000
C         -12.180000      4.340000      9.153000
C         -11.357000      5.285000      8.499000
C         -14.413000      3.956000      2.834000
C          -9.384000      3.829000      3.673000
C         -11.096000      2.922000      2.436000
C         -10.530000      1.849000      3.118000
C         -11.209000      0.502000      5.004000
C         -10.127000      4.686000      8.048000
C         -14.379000      3.198000      8.465000
C         -12.477000      0.191000      5.559000
C         -12.218000      7.096000      5.508000
C         -13.911000      1.091000      7.248000
C         -15.326000      5.438000      5.810000
C          -8.924000      4.237000      6.036000
C         -12.763000      0.953000      3.448000
C         -14.194000      5.486000      8.036000
C          -9.332000      1.940000      5.240000
C         -14.562000      6.433000      5.300000
C         -15.512000      2.670000      6.375000
C         -11.087000      5.343000      2.799000
C         -10.802000      6.223000      3.827000
C         -15.797000      3.136000      5.075000
C          -9.447000      5.178000      6.939000
C         -11.965000      6.300000      7.641000
C          -9.099000      4.708000      4.732000
C         -11.520000      3.092000      8.902000
C         -14.609000      1.127000      4.955000
C         -13.304000      6.376000      7.411000
C         -15.692000      4.518000      4.799000
C          -9.046000      2.868000      6.262000
C         -14.489000      2.567000      3.070000
C         -10.204000      0.986000      5.813000
C         -12.456000      2.974000      2.195000
C         -14.872000      1.418000      6.311000
C         -15.173000      2.192000      4.210000
C         -12.218000      1.977000      8.577000
C         -10.233000      3.284000      8.372000
C         -10.355000      4.120000      2.710000
C         -13.403000      0.516000      4.555000
C         -14.315000      6.085000      3.957000
C          -9.784000      5.899000      4.812000
C         -12.442000      5.398000      2.552000
C          -9.659000      2.401000      7.430000
C          -9.523000      2.415000      3.912000
$end

--------------------------------------------------------------

             Standard Nuclear Orientation (Angstroms)
    I     Atom           X                Y                Z
 ----------------------------------------------------------------
    1      O      -8.1087626961    -6.4944281172    -2.9809692977
    2      C      -7.8229520104    -6.3050798849    -4.3509468519
    3      H      -7.7336186844    -5.2299003574    -4.5465422009
    4      H      -8.5904733999    -6.8134259300    -4.9468480308
    5      H      -6.9323981827    -6.8553272007    -4.6792497172
    6      O      -9.7272655510    -4.8991139873    -2.8864688446
    7      C      -8.9247666984    -5.5970091499    -2.3539137456
    8      C      -8.5594495401    -5.4567176412    -0.8570655012
    9      H      -8.4855018531    -6.4927674179    -0.5046926876
   10      H      -9.3784219737    -4.9249685727    -0.3553962065
   11      C      -7.1816707273    -4.8031232025    -0.5331675968
   12      H      -7.2791480548    -4.6147498372     0.5439910014
   13      H      -6.3466647552    -5.5086199805    -0.6295954091
   14      C      -6.8783031599    -3.4778531719    -1.2565792812
   15      H      -6.9550101538    -3.6021593701    -2.3441407765
   16      H      -7.6657144175    -2.7633131658    -0.9871111176
   17      C      -5.4603096722    -2.9902080570    -0.8287361900
   18      C      -4.3860029273    -4.0504769868    -1.1673743661
   19      C      -4.1685093366    -4.3404593539    -2.5090508416
   20      H      -4.7039827570    -3.8709419685    -3.3296181094
   21      C      -3.1724765642    -5.2586355382    -2.9213628726
   22      H      -2.9039422195    -5.3708294845    -3.9678426021
   23      C      -2.3759898406    -5.8732456427    -1.9747830722
   24      H      -1.5547249208    -6.5092086233    -2.2930424298
   25      C      -2.6989292184    -5.6734698561    -0.6273656189
   26      H      -2.0577572632    -6.1151828742     0.1300768763
   27      C      -3.6397607625    -4.7114124682    -0.1983124894
   28      H      -3.8926600476    -4.5279126141     0.8415330545
   29      C      -2.6257819636    -0.0339350506     2.8428132896
   30      C      -1.4441005292     0.3691876498     0.7481612717
   31      C      -2.7332790829     4.6339855734     0.2695650666
   32      C      -7.5381177846     1.0764999646     2.2835755416
   33      C      -5.2202729266     3.9364875892    -2.0838548244
   34      C      -2.2054057743    -0.4414495694     1.5732398271
   35      C      -7.8298344420     3.1970129741     0.3894617730
   36      C      -1.9747758851     3.4997944921     2.2682607638
   37      C      -3.8553246567     0.1389235766    -2.3754809395
   38      C      -7.8180797849     0.7914572132     0.9368458329
   39      C      -5.1303600433    -1.4965342538    -1.1673536912
   40      C      -5.2399439921     0.4877631456    -2.4982215241
   41      C      -7.4733835836     1.3907076581    -1.2033652392
   42      C      -7.0710766382     4.0726873614    -0.4070217250
   43      C      -2.7695033498    -0.8935254324    -0.5152424781
   44      C      -4.9122386656     5.1401512329    -0.0292751285
   45      C      -5.3343935916    -1.9443998428     0.2470566896
   46      C      -6.4139812810    -1.2076086325     1.0046701354
   47      C      -4.4067975900     4.6895101240    -1.2749098703
   48      C      -5.3032118548     3.4173846173     3.5791065245
   49      C      -4.1289587829     4.7645447718     2.2123968841
   50      C      -3.1989717293     3.9690421114     2.8759845554
   51      C      -1.6120605762     2.1374459215     2.4110927518
   52      C      -6.0646539078    -0.8705710379     2.3396532987
   53      C      -3.7534648991    -0.9549465706    -1.5170214524
   54      C      -1.1410652697     1.6705056851     1.1695601357
   55      C      -7.9931150581     1.8662525160    -0.0016917051
   56      C      -1.7981937901     0.0894631449    -0.5322188140
   57      C      -5.5852220378     1.7781766749    -2.6639290815
   58      C      -5.8285527073     0.9939316612     3.8143654428
   59      C      -1.7870199650     3.8461477511     0.9171693034
   60      C      -5.9871905075    -0.4791003974    -1.7311833671
   61      C      -3.4907655310     1.7716502642     3.8504472008
   62      C      -6.7437114047     2.2744953938    -2.0056106814
   63      C      -2.8831403180     1.1633328983    -2.3470529068
   64      C      -6.5048920920     4.5367769876     1.6809001794
   65      C      -7.4392355505     3.4513263013     1.7142784538
   66      C      -3.3120535098     2.5109392330    -2.5884978086
   67      C      -6.6389028156     0.2109727226     2.9641525268
   68      C      -7.3035155911    -0.3769135241     0.2825840269
   69      C      -6.2817267087     2.3557959262     3.5901578417
   70      C      -4.2098308450    -1.7499609877     1.2425435858
   71      C      -1.5420259727     2.4636310667    -1.0919863803
   72      C      -7.0862357529     0.0214785965    -1.0652988278
   73      C      -4.6429461975     2.8485324559    -2.7433314926
   74      C      -4.4544446351     0.7111914919     3.9266953263
   75      C      -3.0513944168     4.3905325171    -1.0967508718
   76      C      -2.3271624660     1.2855293332     3.2816824449
   77      C      -3.8748216896     5.1775759022     0.9016117670
   78      C      -1.9093170778     1.1792700887    -1.4480427273
   79      C      -2.4770564914     3.2878662017    -1.7668881296
   80      C      -2.9993227097    -1.2858843565     0.8171367985
   81      C      -4.7012073568    -1.1577412054     2.4511423005
   82      C      -5.4154600666     4.3941678058     2.5594492578
   83      C      -1.2054966840     2.7331653261     0.2578463208
   84      C      -6.5656161482     3.5997856176    -1.6604963493
   85      C      -7.3253927671     2.3689794167     2.6645400188
   86      C      -6.2286345089     4.8575130344     0.3653926210
   87      C      -3.8997995506    -0.3887537028     3.3004418641
   88      C      -3.9341388514     3.1383160911     3.7371219322
   89      O       0.8766907084    -3.5311699393     1.5894357266
   90      C      -0.1071707701    -3.1523090312     0.6048820188
   91      H      -0.2335370358    -4.0327505985    -0.0377634617
   92      H       0.2161182867    -2.2770171194     0.0289451691
   93      H      -1.0928631474    -3.0794820180     1.0809973026
   94      O       0.1965157332    -2.0201420862     3.0555744753
   95      C       0.9724632174    -2.8752745433     2.7825928227
   96      C       2.1815070857    -3.3072158684     3.6926524999
   97      H       1.6881511696    -3.4747129484     4.6582298755
   98      H       2.7972473631    -2.4111309296     3.8396616604
   99      C       3.0168659876    -4.5059845521     3.2530502387
  100      H       3.7156742798    -4.6627587272     4.0844988714
  101      H       2.4071635647    -5.4109014964     3.1426134721
  102      C       3.8561792495    -4.2954970555     1.9367944648
  103      H       4.3698661981    -5.2443430476     1.7366495125
  104      H       3.2446727848    -4.0719787038     1.0536776039
  105      C       4.9487871281    -3.2269645393     2.0623065578
  106      C       5.9177653923    -3.5410058289     3.1426251182
  107      C       6.6762791499    -4.6790290029     2.9553575689
  108      H       6.6032211669    -5.1872602287     1.9984722298
  109      C       7.6730654578    -4.9776801474     3.8695952569
  110      H       8.2440372271    -5.8898940600     3.7241269912
  111      C       7.6336076373    -4.5236697536     5.2115381181
  112      H       8.2465618298    -4.9734371709     5.9874436718
  113      C       6.8627228740    -3.3454417608     5.3866594434
  114      H       6.7875266440    -3.0095353085     6.4172934145
  115      C       5.9855291089    -2.8706878741     4.3390221753
  116      H       5.2959516586    -2.0481906566     4.4999049501
  117      C       6.0953325385     2.0210963299     2.1743098370
  118      C       8.0189307614     1.0996118687     1.0893668595
  119      C       7.1249778448     2.7389211470    -3.0815401490
  120      C       1.7796512095     0.6404873975    -0.1936535584
  121      C       5.7051060730    -0.3510494826    -4.2724837497
  122      C       6.9840206223     1.0046791550     2.0077697035
  123      C       2.3295298274     0.2890441529    -2.9998148423
  124      C       6.8515155048     3.8302245350    -0.8564322271
  125      C       7.0469019171    -2.2687645653    -0.9939135165
  126      C       2.1333941092    -0.6047621975    -0.7644638659
  127      C       5.4373313316    -2.6565631006     0.7440452938
  128      C       5.8463880187    -2.5912211237    -1.6458645482
  129      C       3.2171146875    -1.8561166469    -2.3254586609
  130      C       3.3599540265     0.4556403464    -3.9939027047
  131      C       7.3230788981    -1.0509208406     1.1425199455
  132      C       5.2092255352     2.0143442629    -4.0487295963
  133      C       4.6056894637    -1.7694962396     1.6869398731
  134      C       3.3491931593    -1.2748028166     1.2691295642
  135      C       6.1291665270     1.0060990326    -4.2324008438
  136      C       3.3170413427     3.6760598854    -0.9196750791
  137      C       5.0336167196     3.8039831114    -2.4430813360
  138      C       5.5861074361     4.2181014080    -1.2347481681
  139      C       7.1028716011     3.2187036247     0.3568160118
  140      C       3.1139678279     0.0532919161     1.7750301715
  141      C       6.8044694238    -2.1852601793     0.4198108215
  142      C       8.1015308008     2.2180662803     0.2386013438
  143      C       2.3360706963    -0.7516365422    -2.1465699139
  144      C       8.2280984641    -0.1580654627     0.4774644145
  145      C       5.4973145866    -2.1248080233    -2.9344589602
  146      C       2.7506545593     2.2826500988     1.0037198824
  147      C       7.6189190834     3.0248024904    -1.8193159572
  148      C       4.8305655515    -2.8467853961    -0.6381579352
  149      C       4.8445271284     3.5834083277     0.9998865540
  150      C       4.2365229592    -1.7809243853    -3.2893808048
  151      C       7.8639600403    -1.3299574761    -1.5992260577
  152      C       3.0651050698     2.4708511893    -3.0268725338
  153      C       2.1981399797     1.5958199676    -2.3983020179
  154      C       7.6327751711    -0.8996861814    -2.9220265601
  155      C       2.3026403096     0.9538452678     1.0930504659
  156      C       2.8658410782    -1.5773216354    -0.0765695590
  157      C       2.4513231716     2.7818887080    -0.2667302470
  158      C       5.2326898809    -0.6266221905     2.2842792949
  159      C       8.5730057683     0.8389505144    -1.6750566872
  160      C       3.5801947089    -2.3033630272    -0.9788775927
  161      C       6.4441849017    -1.2928066133    -3.5776442059
  162      C       3.9378704082     2.6908021992     1.6070865960
  163      C       7.3060087630     1.4458342702    -3.5901639154
  164      C       6.1357274225     3.1134307758     1.3326806362
  165      C       5.7795522170     3.0827712762    -3.3562180851
  166      C       8.5084708772    -0.3159679944    -0.8659927305
  167      C       8.0249734538     0.4695758097    -2.9282800949
  168      C       6.5409433763    -0.3464004675     2.0697971798
  169      C       4.3200726372     0.4246057376     2.4744965645
  170      C       3.6321395420     3.5448410542    -2.2755459222
  171      C       8.3622198204     2.1253058544    -1.1378265470
  172      C       4.3568954869    -0.6181048838    -4.0762246658
  173      C       1.8828235087     1.7576167847    -0.9890744588
  174      C       3.8056072452     1.7551820519    -3.9431329848
  175      C       4.6907006053     1.7833570025     2.3606593592
  176      C       4.5509204761     4.0859899382    -0.2989193817
 ----------------------------------------------------------------

    9   -5804.3015959646      8.22E-06 Convergence criterion met
 Total energy in the final basis set = -5804.3015959646

                    Orbital Energies (a.u.)
 --------------------------------------------------------------

 Alpha MOs
 -- Occupied --
-19.189 -19.183 -19.140 -19.132 -10.316 -10.314 -10.247 -10.246
-10.244 -10.243 -10.239 -10.237 -10.234 -10.234 -10.230 -10.230
-10.229 -10.227 -10.227 -10.225 -10.223 -10.222 -10.221 -10.221
-10.221 -10.220 -10.220 -10.219 -10.219 -10.219 -10.219 -10.219
-10.219 -10.218 -10.217 -10.217 -10.217 -10.217 -10.217 -10.217
-10.216 -10.216 -10.216 -10.216 -10.216 -10.216 -10.216 -10.216
-10.215 -10.215 -10.215 -10.215 -10.215 -10.215 -10.215 -10.215
-10.215 -10.215 -10.215 -10.214 -10.214 -10.214 -10.214 -10.214
-10.214 -10.214 -10.214 -10.214 -10.214 -10.214 -10.214 -10.214
-10.213 -10.213 -10.213 -10.213 -10.213 -10.213 -10.213 -10.213
-10.213 -10.213 -10.212 -10.212 -10.212 -10.212 -10.212 -10.211
-10.211 -10.211 -10.211 -10.211 -10.211 -10.211 -10.211 -10.211
-10.211 -10.211 -10.211 -10.210 -10.210 -10.210 -10.210 -10.210
-10.210 -10.210 -10.210 -10.210 -10.210 -10.209 -10.209 -10.209
-10.209 -10.209 -10.209 -10.209 -10.209 -10.208 -10.208 -10.208
-10.208 -10.208 -10.208 -10.207 -10.207 -10.207 -10.207 -10.207
-10.207 -10.207 -10.206 -10.206 -10.206 -10.206 -10.206 -10.205
-10.205 -10.204 -10.204 -10.203 -10.203 -10.202 -10.202 -10.201
-10.201 -10.201 -10.201 -10.199  -1.103  -1.097  -1.026  -1.013
 -0.983  -0.980  -0.967  -0.964  -0.963  -0.961  -0.959  -0.957
 -0.936  -0.931  -0.926  -0.926  -0.925  -0.923  -0.921  -0.920
 -0.919  -0.915  -0.895  -0.895  -0.891  -0.886  -0.886  -0.880
 -0.876  -0.874  -0.860  -0.857  -0.842  -0.841  -0.839  -0.838
 -0.836  -0.834  -0.822  -0.819  -0.803  -0.803  -0.798  -0.796
 -0.794  -0.794  -0.793  -0.793  -0.791  -0.787  -0.786  -0.783
 -0.772  -0.771  -0.770  -0.768  -0.767  -0.767  -0.765  -0.762
 -0.756  -0.751  -0.745  -0.742  -0.734  -0.729  -0.718  -0.716
 -0.715  -0.713  -0.712  -0.711  -0.711  -0.709  -0.708  -0.707
 -0.707  -0.706  -0.705  -0.704  -0.703  -0.700  -0.674  -0.670
 -0.662  -0.658  -0.657  -0.656  -0.650  -0.643  -0.630  -0.630
 -0.628  -0.626  -0.625  -0.625  -0.621  -0.620  -0.620  -0.618
 -0.617  -0.615  -0.614  -0.613  -0.613  -0.612  -0.610  -0.610
 -0.610  -0.606  -0.603  -0.600  -0.568  -0.566  -0.564  -0.562
 -0.561  -0.557  -0.557  -0.557  -0.555  -0.555  -0.553  -0.550
 -0.538  -0.538  -0.533  -0.532  -0.529  -0.526  -0.525  -0.523
 -0.521  -0.519  -0.519  -0.518  -0.517  -0.516  -0.513  -0.511
 -0.508  -0.507  -0.496  -0.496  -0.494  -0.494  -0.490  -0.487
 -0.485  -0.483  -0.482  -0.480  -0.480  -0.479  -0.478  -0.474
 -0.473  -0.473  -0.470  -0.469  -0.468  -0.467  -0.465  -0.464
 -0.464  -0.463  -0.462  -0.462  -0.462  -0.460  -0.459  -0.458
 -0.457  -0.455  -0.454  -0.452  -0.451  -0.445  -0.444  -0.444
 -0.442  -0.441  -0.440  -0.439  -0.436  -0.436  -0.434  -0.432
 -0.432  -0.430  -0.429  -0.428  -0.427  -0.426  -0.425  -0.423
 -0.423  -0.421  -0.421  -0.420  -0.419  -0.418  -0.418  -0.417
 -0.417  -0.416  -0.416  -0.414  -0.413  -0.413  -0.413  -0.412
 -0.411  -0.411  -0.410  -0.407  -0.405  -0.400  -0.399  -0.398
 -0.396  -0.395  -0.393  -0.391  -0.391  -0.386  -0.386  -0.383
 -0.382  -0.381  -0.380  -0.378  -0.372  -0.370  -0.369  -0.366
 -0.365  -0.364  -0.364  -0.362  -0.361  -0.360  -0.359  -0.358
 -0.357  -0.356  -0.355  -0.354  -0.353  -0.351  -0.350  -0.349
 -0.349  -0.347  -0.347  -0.346  -0.345  -0.345  -0.344  -0.343
 -0.342  -0.341  -0.340  -0.339  -0.337  -0.335  -0.334  -0.333
 -0.332  -0.331  -0.331  -0.330  -0.329  -0.326  -0.325  -0.324
 -0.314  -0.312  -0.298  -0.298  -0.286  -0.284  -0.271  -0.270
 -0.270  -0.269  -0.269  -0.267  -0.266  -0.265  -0.264  -0.264
 -0.263  -0.261  -0.261  -0.260  -0.259  -0.255  -0.255  -0.254
 -0.253  -0.251  -0.242  -0.242  -0.221  -0.219  -0.214  -0.212
 -0.209  -0.208  -0.203  -0.202  -0.200  -0.199

          Ground-State Mulliken Net Atomic Charges

     Atom                 Charge (a.u.)
  ----------------------------------------
      1 O                    -0.458140
      2 C                    -0.079998
      3 H                     0.120368
      4 H                     0.121939
      5 H                     0.119972
      6 O                    -0.439656
      7 C                     0.572364
      8 C                    -0.247668
      9 H                     0.122080
     10 H                     0.125202
     11 C                    -0.192314
     12 H                     0.109268
     13 H                     0.123552
     14 C                    -0.181668
     15 H                     0.110616
     16 H                     0.119330
     17 C                     0.013112
     18 C                     0.088937
     19 C                    -0.103101
     20 H                     0.092469
     21 C                    -0.091785
     22 H                     0.093013
     23 C                    -0.072997
     24 H                     0.096029
     25 C                    -0.111174
     26 H                     0.089969
     27 C                    -0.108632
     28 H                     0.102661
     29 C                    -0.009048
     30 C                     0.016880
     31 C                     0.020869
     32 C                     0.003076
     33 C                    -0.010104
     34 C                     0.060669
     35 C                     0.000916
     36 C                    -0.018914
     37 C                    -0.023443
     38 C                    -0.026107
     39 C                    -0.084649
     40 C                     0.011254
     41 C                     0.005730
     42 C                    -0.010356
     43 C                     0.007784
     44 C                     0.014252
     45 C                    -0.070304
     46 C                     0.011870
     47 C                     0.002458
     48 C                    -0.015911
     49 C                     0.007980
     50 C                     0.004349
     51 C                    -0.005438
     52 C                     0.037156
     53 C                     0.018775
     54 C                     0.021949
     55 C                     0.010478
     56 C                    -0.019459
     57 C                    -0.001775
     58 C                    -0.016180
     59 C                     0.000679
     60 C                     0.056062
     61 C                     0.016713
     62 C                    -0.000449
     63 C                     0.003285
     64 C                    -0.029347
     65 C                    -0.012504
     66 C                    -0.006634
     67 C                    -0.016155
     68 C                    -0.014474
     69 C                    -0.029744
     70 C                    -0.013924
     71 C                    -0.008479
     72 C                    -0.028504
     73 C                     0.006698
     74 C                     0.015408
     75 C                    -0.000586
     76 C                    -0.015465
     77 C                    -0.032428
     78 C                     0.032110
     79 C                    -0.025992
     80 C                    -0.002451
     81 C                     0.002754
     82 C                     0.028275
     83 C                    -0.014033
     84 C                    -0.011748
     85 C                     0.032071
     86 C                     0.025994
     87 C                    -0.004592
     88 C                    -0.014982
     89 O                    -0.480179
     90 C                    -0.090670
     91 H                     0.117198
     92 H                     0.127865
     93 H                     0.128692
     94 O                    -0.453060
     95 C                     0.593222
     96 C                    -0.268278
     97 H                     0.134880
     98 H                     0.137098
     99 C                    -0.184616
    100 H                     0.113103
    101 H                     0.107241
    102 C                    -0.174953
    103 H                     0.102014
    104 H                     0.125774
    105 C                    -0.002845
    106 C                     0.127214
    107 C                    -0.096445
    108 H                     0.096696
    109 C                    -0.101168
    110 H                     0.080613
    111 C                    -0.084159
    112 H                     0.103387
    113 C                    -0.102960
    114 H                     0.091262
    115 C                    -0.118900
    116 H                     0.094422
    117 C                    -0.005775
    118 C                    -0.003805
    119 C                    -0.016379
    120 C                    -0.020543
    121 C                    -0.002878
    122 C                     0.017224
    123 C                    -0.031872
    124 C                    -0.011910
    125 C                     0.003797
    126 C                    -0.022029
    127 C                    -0.077777
    128 C                    -0.007953
    129 C                    -0.043563
    130 C                    -0.025811
    131 C                    -0.013924
    132 C                     0.010726
    133 C                    -0.077918
    134 C                     0.003032
    135 C                     0.004793
    136 C                     0.007641
    137 C                     0.013531
    138 C                     0.005436
    139 C                     0.017724
    140 C                     0.013712
    141 C                     0.018470
    142 C                    -0.017696
    143 C                     0.045980
    144 C                    -0.009299
    145 C                     0.038058
    146 C                     0.000882
    147 C                     0.002323
    148 C                     0.003936
    149 C                    -0.015811
    150 C                    -0.006546
    151 C                     0.003400
    152 C                     0.004840
    153 C                    -0.005892
    154 C                     0.004700
    155 C                    -0.000398
    156 C                     0.023028
    157 C                     0.008679
    158 C                     0.047992
    159 C                    -0.018206
    160 C                     0.003523
    161 C                    -0.025970
    162 C                     0.033592
    163 C                    -0.003263
    164 C                     0.003938
    165 C                    -0.005414
    166 C                     0.010425
    167 C                    -0.007434
    168 C                     0.009184
    169 C                    -0.022290
    170 C                    -0.015039
    171 C                     0.026851
    172 C                     0.006281
    173 C                     0.018356
    174 C                     0.017284
    175 C                    -0.033790
    176 C                    -0.018659
  ----------------------------------------
  Sum of atomic charges =     0.000000

                    Cartesian Multipole Moments
 -----------------------------------------------------------------
    Charge (ESU x 10^10)
                 0.0000
    Dipole Moment (Debye)
         X       3.3073      Y      -6.3049      Z       0.6179
       Tot       7.1465
    Quadrupole Moments (Debye-Ang)
        XX    -839.4773     XY      -6.9230     YY    -778.8808
        XZ      13.7080     YZ      -4.4011     ZZ    -794.1943

 Total job time:  866.53s(wall), 7343.20s(cpu)
        *  Thank you very much for using Q-Chem.  Have a nice day.  *
