 Q-Chem 4.4, Q-Chem, Inc., Pleasanton, CA (2016)
 Q-Chem 4.4.2 for Intel X86 Linux

User input:
--------------------------------------------------------------
$comment
SP
$end

$rem
MEM_STATIC 5000
MEM_TOTAL 20000
JOBTYPE SP
EXCHANGE B3LYP
BASIS 6-31g(d,p)
$end

$molecule
0 1
O         -19.172000      0.141000      9.770000
C         -20.246000      0.117000      8.852000
H         -21.182000      0.502000      9.276000
H         -20.335000     -0.881000      8.406000
H         -20.035000      0.786000      8.009000
O         -17.559000      0.202000      8.078000
C         -17.859000      0.169000      9.248000
C         -16.889000      0.352000     10.364000
H         -17.366000      0.846000     11.220000
H         -16.092000      1.014000     10.003000
C         -16.439000     -1.093000     10.806000
H         -17.268000     -1.746000     11.108000
H         -16.014000     -1.582000      9.920000
C         -15.346000     -0.933000     11.859000
H         -14.482000     -0.437000     11.400000
H         -15.728000     -0.200000     12.581000
C         -14.915000     -2.156000     12.568000
C         -15.824000     -2.493000     13.679000
C         -16.901000     -3.372000     13.669000
H         -17.009000     -3.978000     12.774000
C         -17.991000     -3.237000     14.631000
H         -18.892000     -3.840000     14.566000
C         -17.869000     -2.397000     15.713000
H         -18.683000     -2.222000     16.411000
C         -16.703000     -1.635000     15.893000
H         -16.684000     -0.903000     16.695000
C         -15.710000     -1.715000     14.849000
H         -14.877000     -1.023000     14.938000
C         -10.425000     -4.833000     14.612000
C         -11.882000     -6.660000     13.819000
C          -9.383000     -7.780000     10.134000
C          -9.708000     -1.431000     10.862000
C         -11.485000     -6.000000      7.960000
C         -11.720000     -5.371000     14.402000
C          -9.787000     -2.769000      8.326000
C          -8.724000     -7.136000     12.365000
C         -14.220000     -5.467000     10.810000
C         -10.910000     -1.487000     10.118000
C         -14.316000     -3.286000     11.756000
C         -13.986000     -4.536000      9.784000
C         -12.186000     -2.703000      8.664000
C          -9.951000     -4.100000      7.711000
C         -13.596000     -5.353000     13.111000
C          -9.153000     -6.254000      8.530000
C         -13.437000     -2.462000     12.735000
C         -12.310000     -1.691000     12.129000
C         -10.425000     -6.786000      8.390000
C          -7.427000     -4.036000     11.382000
C          -7.648000     -6.085000     10.452000
C          -7.725000     -6.263000     11.866000
C          -9.458000     -6.767000     13.511000
C         -11.109000     -1.813000     12.908000
C         -14.295000     -4.769000     12.009000
C         -10.722000     -7.332000     13.412000
C         -10.936000     -2.134000      8.805000
C         -13.044000     -6.660000     13.039000
C         -13.290000     -4.888000      8.601000
C          -8.745000     -2.448000     12.710000
C          -9.541000     -7.951000     11.541000
C         -13.983000     -3.215000     10.292000
C          -8.452000     -4.643000     13.521000
C         -12.387000     -3.966000      8.051000
C         -13.650000     -6.769000     10.729000
C          -8.084000     -4.144000      9.118000
C          -8.658000     -2.850000      9.162000
C         -12.950000     -7.118000      9.568000
C          -9.835000     -1.666000     12.275000
C         -12.190000     -1.615000     10.717000
C          -8.020000     -2.728000     11.537000
C         -12.685000     -3.187000     13.834000
C         -11.957000     -8.034000     11.376000
C         -12.966000     -2.341000      9.788000
C         -12.759000     -6.149000      8.537000
C          -9.006000     -3.389000     13.747000
C         -10.606000     -7.769000      9.371000
C          -9.281000     -5.546000     14.161000
C          -8.442000     -6.877000      9.580000
C         -13.102000     -7.409000     11.824000
C         -11.890000     -7.885000      9.975000
C         -12.808000     -4.570000     13.942000
C         -11.354000     -2.709000     13.940000
C          -7.524000     -4.731000     10.223000
C         -10.756000     -8.064000     12.180000
C         -11.263000     -4.656000      7.593000
C          -8.620000     -2.135000     10.401000
C          -8.901000     -4.901000      8.211000
C         -10.241000     -3.454000     14.424000
C          -7.610000     -4.961000     12.441000
O         -11.161000      8.214000     10.139000
C         -10.864000      9.194000      9.123000
H         -11.675000      9.931000      9.180000
H         -10.805000      8.737000      8.128000
H          -9.997000      9.791000      9.432000
O          -9.058000      7.548000     10.310000
C         -10.186000      7.407000     10.650000
C         -10.686000      6.295000     11.645000
H         -10.001000      6.426000     12.492000
H         -10.408000      5.331000     11.201000
C         -12.150000      6.323000     12.074000
H         -12.222000      5.528000     12.827000
H         -12.418000      7.273000     12.552000
C         -13.192000      6.017000     10.933000
H         -14.188000      6.106000     11.385000
H         -13.156000      6.729000     10.099000
C         -13.095000      4.594000     10.370000
C         -13.293000      3.562000     11.419000
C         -14.543000      3.534000     12.004000
H         -15.316000      4.170000     11.583000
C         -14.834000      2.532000     12.915000
H         -15.812000      2.538000     13.387000
C         -13.829000      1.874000     13.667000
H         -14.063000      1.303000     14.561000
C         -12.553000      1.898000     13.047000
H         -11.763000      1.435000     13.632000
C         -12.291000      2.770000     11.923000
H         -11.292000      2.896000     11.518000
C         -10.425000      1.217000      7.155000
C         -12.685000      0.465000      6.924000
C         -13.311000      1.939000      2.644000
C         -10.008000      6.209000      6.133000
C         -15.035000      4.937000      3.655000
C         -11.664000      1.020000      7.681000
C         -12.008000      6.931000      4.189000
C         -11.312000      0.862000      3.674000
C         -15.308000      3.547000      7.426000
C         -11.289000      6.697000      6.483000
C         -13.709000      4.409000      8.995000
C         -15.150000      4.905000      7.108000
C         -13.514000      6.950000      6.080000
C         -13.021000      6.374000      3.328000
C         -13.596000      1.997000      8.315000
C         -13.152000      4.176000      2.326000
C         -12.180000      4.340000      9.153000
C         -11.357000      5.285000      8.499000
C         -14.413000      3.956000      2.834000
C          -9.384000      3.829000      3.673000
C         -11.096000      2.922000      2.436000
C         -10.530000      1.849000      3.118000
C         -11.209000      0.502000      5.004000
C         -10.127000      4.686000      8.048000
C         -14.379000      3.198000      8.465000
C         -12.477000      0.191000      5.559000
C         -12.218000      7.096000      5.508000
C         -13.911000      1.091000      7.248000
C         -15.326000      5.438000      5.810000
C          -8.924000      4.237000      6.036000
C         -12.763000      0.953000      3.448000
C         -14.194000      5.486000      8.036000
C          -9.332000      1.940000      5.240000
C         -14.562000      6.433000      5.300000
C         -15.512000      2.670000      6.375000
C         -11.087000      5.343000      2.799000
C         -10.802000      6.223000      3.827000
C         -15.797000      3.136000      5.075000
C          -9.447000      5.178000      6.939000
C         -11.965000      6.300000      7.641000
C          -9.099000      4.708000      4.732000
C         -11.520000      3.092000      8.902000
C         -14.609000      1.127000      4.955000
C         -13.304000      6.376000      7.411000
C         -15.692000      4.518000      4.799000
C          -9.046000      2.868000      6.262000
C         -14.489000      2.567000      3.070000
C         -10.204000      0.986000      5.813000
C         -12.456000      2.974000      2.195000
C         -14.872000      1.418000      6.311000
C         -15.173000      2.192000      4.210000
C         -12.218000      1.977000      8.577000
C         -10.233000      3.284000      8.372000
C         -10.355000      4.120000      2.710000
C         -13.403000      0.516000      4.555000
C         -14.315000      6.085000      3.957000
C          -9.784000      5.899000      4.812000
C         -12.442000      5.398000      2.552000
C          -9.659000      2.401000      7.430000
C          -9.523000      2.415000      3.912000
$end

--------------------------------------------------------------

             Standard Nuclear Orientation (Angstroms)
    I     Atom           X                Y                Z
 ----------------------------------------------------------------
    1      O      -0.2432956154     5.3469071499     4.3897793105
    2      C      -0.7642446845     5.5187304496     5.6920330573
    3      H      -0.9486197462     6.5703327968     5.9454799748
    4      H      -0.1379729949     4.9873749558     6.4188659886
    5      H      -1.7503026396     5.0447616872     5.7680220135
    6      O      -1.0343653535     3.1525636821     4.2241912223
    7      C      -0.4363242342     4.0954185826     3.7622816465
    8      C       0.0404687358     4.1723043307     2.3528129362
    9      H       0.0138809369     5.2064601957     1.9865947828
   10      H      -0.6536122425     3.5863474690     1.7374430054
   11      C       1.5388527692     3.6817237660     2.3608750660
   12      H       2.1930629246     4.2558007991     3.0296789481
   13      H       1.5422211615     2.6669600306     2.7791874077
   14      C       2.0124684522     3.6244344383     0.9112323108
   15      H       1.4164310924     2.8770912585     0.3732633180
   16      H       1.7195167446     4.5812028437     0.4603769953
   17      C       3.4535426694     3.3857534088     0.6864936478
   18      C       4.2391491182     4.6274576195     0.8096364944
   19      C       4.9120709930     5.1089624500     1.9267753615
   20      H       4.9729773464     4.4293495461     2.7719627472
   21      C       5.2034454596     6.5320678610     2.0738838571
   22      H       5.6239707594     6.9404107062     2.9882413326
   23      C       5.0368619766     7.3933153903     1.0147754412
   24      H       5.1803550342     8.4663449909     1.1066569877
   25      C       4.5568944803     6.9198377730    -0.2173163364
   26      H       4.3342127167     7.6429865086    -0.9963270798
   27      C       4.1697748806     5.5307000895    -0.2704191781
   28      H       3.6799401883     5.2135286296    -1.1870097297
   29      C       7.1128685191     0.6634424570    -2.5850079047
   30      C       8.1777149440     0.6219288756    -0.3592483233
   31      C       7.4588326873    -3.8308165475     0.4980103883
   32      C       2.3441653859    -1.1548416727    -2.2632840302
   33      C       4.6776363731    -3.1622330650     2.5305022552
   34      C       7.3757474063     1.2793049067    -1.3351370578
   35      C       2.2071724594    -3.1227705639    -0.1809128296
   36      C       8.0803122297    -2.6836647430    -1.5327982968
   37      C       5.4621640659     0.7454652517     2.5654903304
   38      C       1.9294254615    -0.7922227703    -0.9602205909
   39      C       4.0580436572     2.0942265218     1.1979443846
   40      C       4.1599974272     0.2212619559     2.6268576653
   41      C       2.1479038113    -1.1893688648     1.2793084199
   42      C       3.0289352762    -3.8121205738     0.8320947898
   43      C       6.5722098046     1.7960210473     0.7321589424
   44      C       5.3526373841    -4.5321046036     0.6608858232
   45      C       3.9078599983     2.3492157563    -0.3260252211
   46      C       3.0200736571     1.4085456837    -1.0735419278
   47      C       5.6473987869    -3.8863355101     1.8511404150
   48      C       5.0116961526    -3.2552646367    -3.1187891331
   49      C       6.2874978625    -4.3281543865    -1.5912487631
   50      C       7.1496530301    -3.4340640570    -2.2943134469
   51      C       8.2892062515    -1.3230006834    -1.8380680213
   52      C       3.6054828058     1.0131442532    -2.3245734372
   53      C       5.4625772031     1.7758913404     1.6334753600
   54      C       8.6336428123    -0.6672561441    -0.6641495595
   55      C       1.8202439928    -1.8073586584     0.0889850780
   56      C       7.6995191162     0.9509388220     0.9142214272
   57      C       3.9150395904    -1.1306037471     2.9736483502
   58      C       4.2222310277    -0.9847287516    -3.6126146195
   59      C       8.3055779425    -2.8816118846    -0.1468826112
   60      C       3.2811189309     0.9537501840     1.7937024668
   61      C       6.5406518873    -1.3649957420    -3.4078788540
   62      C       2.9095346629    -1.8299929302     2.2896837229
   63      C       6.5819260513    -0.1164978985     2.7381681339
   64      C       3.9128074196    -4.2571516933    -1.2863931939
   65      C       2.7809344869    -3.4182821585    -1.4313399699
   66      C       6.3457970282    -1.4563297910     3.0680402063
   67      C       3.2512130623    -0.2437988289    -2.9076352153
   68      C       2.2497402988     0.4533834628    -0.3606803361
   69      C       3.9225144086    -2.3282889431    -3.3211185476
   70      C       5.1410436956     2.2858339922    -1.2058949391
   71      C       8.1189696313    -1.3012083942     1.6803207562
   72      C       2.3483734593     0.1877518279     1.0220721125
   73      C       5.0053221353    -1.9413693009     3.1472029207
   74      C       5.5366047018    -0.4375684314    -3.6574301171
   75      C       6.9753629265    -3.4444095060     1.7999188293
   76      C       7.5806551136    -0.6550875351    -2.8363251581
   77      C       6.4703889319    -4.5655867863    -0.2026304887
   78      C       7.7252605154    -0.0113816818     1.9696202278
   79      C       7.2875977444    -2.1890536113     2.3944934638
   80      C       6.3759014184     2.0089310007    -0.6245747711
   81      C       4.8797926845     1.5598778066    -2.3958598653
   82      C       5.0164916584    -4.1376320515    -2.0906258444
   83      C       8.6379089736    -1.6520195029     0.3774966986
   84      C       3.3525617550    -3.1316016444     2.0472342423
   85      C       2.7951126206    -2.4372343524    -2.4730377105
   86      C       4.0462522829    -4.4895138340     0.1247720353
   87      C       5.8454242213     0.8452510150    -3.1606567560
   88      C       6.3290679548    -2.7444070186    -3.2377472302
   89      O      -6.4194153143     2.4317039514    -4.7120197850
   90      C      -7.7541075495     1.8845394696    -4.7205442917
   91      H      -8.4176042045     2.7253246507    -4.4818154328
   92      H      -7.8597923226     1.0699428675    -3.9941710374
   93      H      -8.0486075420     1.6528751755    -5.7516506922
   94      O      -5.6083709821     0.8425750405    -6.0205618730
   95      C      -5.3967991207     1.8125079702    -5.3706907632
   96      C      -3.9738905489     2.4488572035    -5.1539885487
   97      H      -3.6089386438     2.5409936632    -6.1845786610
   98      H      -3.3493231526     1.6695179661    -4.6998278718
   99      C      -3.8869285976     3.7659003673    -4.3885109697
  100      H      -2.8279745560     4.0450686050    -4.4585069177
  101      H      -4.4815512522     4.5553071644    -4.8639779059
  102      C      -4.2757994177     3.6857171022    -2.8641648380
  103      H      -4.1958453228     4.7049929878    -2.4655108379
  104      H      -5.3069272487     3.3548105134    -2.6878916816
  105      C      -3.3297893726     2.8157070558    -2.0278308654
  106      C      -1.9265527124     3.2974031958    -2.0872000848
  107      C      -1.6971300863     4.5441660734    -1.5408882822
  108      H      -2.5126289023     5.0238407923    -1.0078405873
  109      C      -0.3961571577     5.0137274914    -1.4661386076
  110      H      -0.2334271284     6.0069705070    -1.0583503665
  111      C       0.6223173695     4.5724498982    -2.3473177740
  112      H       1.5482254767     5.1256323456    -2.4766095248
  113      C       0.3805230802     3.2838666039    -2.8897572778
  114      H       1.1313871278     2.9500698015    -3.6007262480
  115      C      -0.9184210689     2.6593458079    -2.7667862523
  116      H      -1.1592693343     1.7349186392    -3.2818867501
  117      C      -1.8581054534    -2.1661881642    -0.6551981908
  118      C      -1.4915654618    -0.9471906367     1.3711676356
  119      C      -4.9674144468    -2.7527828741     3.7251562731
  120      C      -6.6368410321    -1.5478250525    -2.3639258846
  121      C      -7.1588119065     0.0453725331     3.1332065369
  122      C      -1.5123947714    -1.0174036508    -0.0138057477
  123      C      -8.3847078688    -1.1366250457    -0.1108621759
  124      C      -3.3763325416    -3.8529216134     2.1519483639
  125      C      -4.0774114728     2.1915732274     1.6751722617
  126      C      -6.9721107172    -0.2665700487    -1.8663468923
  127      C      -3.9100425098     2.3221307644    -0.7157581764
  128      C      -5.3943828054     2.3029234647     1.2024782445
  129      C      -7.5541144895     1.1329491566    -0.1693906163
  130      C      -8.4141447428    -1.1385454808     1.3302723710
  131      C      -2.1716280116     1.0575189840     0.5771397613
  132      C      -7.0401137423    -2.3673326441     2.8969535503
  133      C      -3.6603710318     1.3178760983    -1.8544867299
  134      C      -4.7439970557     0.6164838568    -2.4305714146
  135      C      -6.6853140459    -1.2215561141     3.5736353948
  136      C      -5.7886686939    -4.2912132839    -0.3992883363
  137      C      -5.7577099134    -4.1456302335     1.8945314320
  138      C      -4.4495031398    -4.4501056420     1.5302530179
  139      C      -2.3871349932    -3.1963737187     1.4451654609
  140      C      -4.3680179650    -0.7273037156    -2.7883097040
  141      C      -3.1850633015     2.0824195410     0.5543853891
  142      C      -1.9308407277    -2.0443342708     2.1359408613
  143      C      -7.8751038938    -0.1012655946    -0.8032642236
  144      C      -1.9546598838     0.3218009590     1.7896552537
  145      C      -6.5214343088     1.7724139390     1.8719433683
  146      C      -4.9119306607    -2.9933579615    -2.2724500975
  147      C      -3.6736529679    -2.9400735389     3.2668774904
  148      C      -5.3558376289     2.3951281992    -0.2475884975
  149      C      -3.3686744021    -3.9265270507    -0.5920202205
  150      C      -7.5795348787     1.2196001122     1.2326929817
  151      C      -3.8692711020     1.3964502140     2.7886366659
  152      C      -7.6552662005    -3.1652904312     0.6981598302
  153      C      -7.8717577454    -2.4411486166    -0.4599243823
  154      C      -4.9476004551     0.9209127357     3.5628788199
  155      C      -5.3024364827    -1.7571237213    -2.8143440967
  156      C      -6.0943223470     0.8211403051    -1.9101962174
  157      C      -5.9886322985    -3.5477577609    -1.5751435324
  158      C      -2.6664588861     0.3014363129    -1.6671533123
  159      C      -3.1949856364    -0.6243935948     3.6097258275
  160      C      -6.3726737181     1.6474570764    -0.8655344981
  161      C      -6.2678100087     1.1038870989     3.0931000243
  162      C      -3.6293985895    -3.1918854162    -1.7666642377
  163      C      -5.3772069650    -1.4525787018     4.0493216663
  164      C      -2.3217897814    -3.2445324612     0.0696027619
  165      C      -6.0225022111    -3.3189104462     2.9700798654
  166      C      -2.7788507755     0.5113134384     2.8819983290
  167      C      -4.5280107833    -0.3637213208     4.0127641921
  168      C      -1.9224360699     0.2413527144    -0.5362801938
  169      C      -3.0064235689    -0.8854335239    -2.3378969331
  170      C      -6.5957688977    -4.1223353614     0.7298531555
  171      C      -2.7846461456    -1.9226494569     3.2437883754
  172      C      -7.9412444719     0.0856330625     1.9870449556
  173      C      -7.0217672684    -2.6396967797    -1.6216557695
  174      C      -7.9253092560    -2.3449719742     1.7725030609
  175      C      -2.6818147390    -2.1643400769    -1.8323713291
  176      C      -4.4621017067    -4.4835409894     0.1289806127
 ----------------------------------------------------------------

    9   -5804.3027452918      8.41E-06 Convergence criterion met
 Total energy in the final basis set = -5804.3027452918

                    Orbital Energies (a.u.)
 --------------------------------------------------------------

 Alpha MOs
 -- Occupied --
-19.188 -19.183 -19.146 -19.130 -10.319 -10.313 -10.246 -10.245
-10.243 -10.242 -10.240 -10.239 -10.239 -10.234 -10.233 -10.233
-10.230 -10.230 -10.229 -10.229 -10.227 -10.226 -10.226 -10.224
-10.224 -10.224 -10.224 -10.223 -10.222 -10.222 -10.221 -10.221
-10.220 -10.220 -10.220 -10.220 -10.220 -10.220 -10.220 -10.219
-10.219 -10.219 -10.219 -10.218 -10.218 -10.218 -10.218 -10.218
-10.218 -10.218 -10.218 -10.218 -10.217 -10.217 -10.217 -10.217
-10.217 -10.216 -10.216 -10.216 -10.216 -10.216 -10.216 -10.216
-10.215 -10.215 -10.215 -10.215 -10.215 -10.215 -10.215 -10.215
-10.215 -10.215 -10.215 -10.215 -10.215 -10.214 -10.214 -10.214
-10.214 -10.214 -10.214 -10.214 -10.214 -10.214 -10.214 -10.213
-10.213 -10.213 -10.213 -10.213 -10.213 -10.213 -10.213 -10.213
-10.212 -10.212 -10.212 -10.212 -10.212 -10.212 -10.212 -10.212
-10.212 -10.212 -10.211 -10.211 -10.211 -10.211 -10.211 -10.211
-10.211 -10.211 -10.211 -10.211 -10.211 -10.210 -10.210 -10.210
-10.210 -10.210 -10.210 -10.209 -10.209 -10.209 -10.209 -10.209
-10.209 -10.208 -10.208 -10.208 -10.208 -10.207 -10.207 -10.207
-10.207 -10.206 -10.206 -10.205 -10.205 -10.203 -10.203 -10.203
-10.203 -10.200 -10.200 -10.199  -1.096  -1.088  -1.020  -1.011
 -0.982  -0.980  -0.966  -0.963  -0.962  -0.961  -0.960  -0.958
 -0.935  -0.934  -0.926  -0.925  -0.924  -0.922  -0.922  -0.920
 -0.918  -0.918  -0.895  -0.894  -0.890  -0.890  -0.887  -0.885
 -0.877  -0.875  -0.858  -0.853  -0.841  -0.840  -0.838  -0.837
 -0.837  -0.835  -0.823  -0.821  -0.809  -0.802  -0.797  -0.795
 -0.795  -0.794  -0.793  -0.792  -0.791  -0.789  -0.787  -0.785
 -0.773  -0.771  -0.769  -0.769  -0.768  -0.766  -0.765  -0.764
 -0.755  -0.749  -0.743  -0.742  -0.733  -0.729  -0.716  -0.715
 -0.714  -0.714  -0.711  -0.711  -0.710  -0.710  -0.710  -0.710
 -0.707  -0.706  -0.706  -0.704  -0.702  -0.700  -0.673  -0.672
 -0.661  -0.657  -0.657  -0.656  -0.650  -0.648  -0.635  -0.631
 -0.628  -0.627  -0.627  -0.626  -0.624  -0.622  -0.619  -0.618
 -0.618  -0.616  -0.614  -0.613  -0.612  -0.611  -0.610  -0.610
 -0.609  -0.606  -0.602  -0.601  -0.569  -0.567  -0.562  -0.561
 -0.560  -0.560  -0.560  -0.557  -0.556  -0.556  -0.553  -0.552
 -0.539  -0.537  -0.535  -0.533  -0.528  -0.528  -0.524  -0.524
 -0.524  -0.522  -0.521  -0.518  -0.517  -0.516  -0.515  -0.513
 -0.510  -0.509  -0.500  -0.496  -0.494  -0.494  -0.489  -0.485
 -0.484  -0.482  -0.481  -0.480  -0.479  -0.477  -0.477  -0.475
 -0.473  -0.472  -0.471  -0.468  -0.468  -0.467  -0.466  -0.465
 -0.464  -0.464  -0.464  -0.463  -0.462  -0.462  -0.460  -0.459
 -0.458  -0.457  -0.455  -0.452  -0.450  -0.447  -0.444  -0.444
 -0.442  -0.440  -0.439  -0.439  -0.439  -0.437  -0.436  -0.433
 -0.432  -0.430  -0.429  -0.428  -0.427  -0.426  -0.425  -0.424
 -0.422  -0.422  -0.420  -0.419  -0.419  -0.418  -0.418  -0.418
 -0.417  -0.416  -0.416  -0.415  -0.415  -0.414  -0.413  -0.413
 -0.411  -0.411  -0.410  -0.410  -0.406  -0.402  -0.400  -0.397
 -0.395  -0.394  -0.391  -0.391  -0.390  -0.389  -0.388  -0.386
 -0.385  -0.383  -0.379  -0.373  -0.371  -0.370  -0.369  -0.368
 -0.367  -0.365  -0.363  -0.362  -0.362  -0.361  -0.359  -0.358
 -0.357  -0.357  -0.355  -0.355  -0.354  -0.353  -0.351  -0.351
 -0.350  -0.349  -0.349  -0.348  -0.348  -0.346  -0.345  -0.344
 -0.342  -0.341  -0.340  -0.339  -0.338  -0.337  -0.336  -0.334
 -0.332  -0.331  -0.331  -0.330  -0.329  -0.328  -0.327  -0.325
 -0.317  -0.312  -0.297  -0.297  -0.287  -0.283  -0.276  -0.271
 -0.269  -0.268  -0.268  -0.267  -0.266  -0.266  -0.265  -0.264
 -0.263  -0.262  -0.261  -0.259  -0.259  -0.257  -0.256  -0.254
 -0.253  -0.251  -0.247  -0.241  -0.221  -0.218  -0.214  -0.212
 -0.209  -0.208  -0.207  -0.205  -0.200  -0.199

          Ground-State Mulliken Net Atomic Charges

     Atom                 Charge (a.u.)
  ----------------------------------------
      1 O                    -0.477069
      2 C                    -0.084582
      3 H                     0.119568
      4 H                     0.118354
      5 H                     0.123640
      6 O                    -0.454400
      7 C                     0.585216
      8 C                    -0.242580
      9 H                     0.125501
     10 H                     0.138931
     11 C                    -0.207136
     12 H                     0.119371
     13 H                     0.127368
     14 C                    -0.183626
     15 H                     0.124403
     16 H                     0.115065
     17 C                     0.007651
     18 C                     0.137635
     19 C                    -0.141563
     20 H                     0.087565
     21 C                    -0.089500
     22 H                     0.095443
     23 C                    -0.076429
     24 H                     0.090381
     25 C                    -0.085039
     26 H                     0.094350
     27 C                    -0.130935
     28 H                     0.078941
     29 C                    -0.008654
     30 C                    -0.005978
     31 C                    -0.012720
     32 C                    -0.024499
     33 C                     0.002076
     34 C                    -0.002886
     35 C                    -0.031058
     36 C                     0.013265
     37 C                     0.021307
     38 C                    -0.017342
     39 C                    -0.091385
     40 C                    -0.002998
     41 C                     0.030791
     42 C                    -0.015546
     43 C                     0.012245
     44 C                     0.007370
     45 C                    -0.086370
     46 C                     0.023689
     47 C                     0.021313
     48 C                    -0.026569
     49 C                    -0.005442
     50 C                    -0.037956
     51 C                     0.014559
     52 C                     0.018595
     53 C                     0.014443
     54 C                     0.000343
     55 C                     0.013768
     56 C                    -0.003480
     57 C                    -0.001774
     58 C                    -0.011623
     59 C                     0.008630
     60 C                     0.024076
     61 C                     0.047879
     62 C                    -0.011756
     63 C                     0.001123
     64 C                    -0.006856
     65 C                     0.015811
     66 C                     0.002228
     67 C                    -0.019304
     68 C                     0.018933
     69 C                    -0.011712
     70 C                     0.011302
     71 C                     0.003088
     72 C                    -0.022784
     73 C                     0.000669
     74 C                    -0.000524
     75 C                    -0.021609
     76 C                    -0.025962
     77 C                    -0.005863
     78 C                    -0.022785
     79 C                     0.009112
     80 C                     0.019138
     81 C                     0.014930
     82 C                     0.064970
     83 C                    -0.012528
     84 C                     0.001441
     85 C                     0.012999
     86 C                    -0.011982
     87 C                    -0.023718
     88 C                    -0.002131
     89 O                    -0.477415
     90 C                    -0.084699
     91 H                     0.118107
     92 H                     0.128630
     93 H                     0.130171
     94 O                    -0.451862
     95 C                     0.593436
     96 C                    -0.268205
     97 H                     0.135562
     98 H                     0.136592
     99 C                    -0.185057
    100 H                     0.110936
    101 H                     0.109247
    102 C                    -0.175527
    103 H                     0.101274
    104 H                     0.127232
    105 C                    -0.002430
    106 C                     0.126684
    107 C                    -0.101329
    108 H                     0.099196
    109 C                    -0.106742
    110 H                     0.082717
    111 C                    -0.088973
    112 H                     0.102365
    113 C                    -0.104367
    114 H                     0.096843
    115 C                    -0.117960
    116 H                     0.099533
    117 C                    -0.003760
    118 C                     0.000193
    119 C                    -0.017378
    120 C                    -0.022643
    121 C                    -0.002470
    122 C                     0.018809
    123 C                    -0.033417
    124 C                    -0.011578
    125 C                     0.004644
    126 C                    -0.015599
    127 C                    -0.078370
    128 C                    -0.008768
    129 C                    -0.043913
    130 C                    -0.026314
    131 C                    -0.022632
    132 C                     0.010005
    133 C                    -0.077080
    134 C                     0.003231
    135 C                     0.004465
    136 C                     0.008224
    137 C                     0.012424
    138 C                     0.005047
    139 C                     0.019102
    140 C                     0.018350
    141 C                     0.012210
    142 C                    -0.019405
    143 C                     0.043699
    144 C                    -0.011434
    145 C                     0.039286
    146 C                     0.000931
    147 C                     0.002646
    148 C                     0.003710
    149 C                    -0.014457
    150 C                    -0.006014
    151 C                     0.009570
    152 C                     0.003464
    153 C                    -0.002083
    154 C                     0.005475
    155 C                    -0.003896
    156 C                     0.021366
    157 C                     0.007568
    158 C                     0.046030
    159 C                    -0.020826
    160 C                     0.005472
    161 C                    -0.026718
    162 C                     0.034509
    163 C                    -0.003196
    164 C                     0.003009
    165 C                    -0.004312
    166 C                     0.048974
    167 C                    -0.006995
    168 C                     0.005926
    169 C                    -0.022654
    170 C                    -0.016144
    171 C                     0.028816
    172 C                     0.005316
    173 C                     0.009966
    174 C                     0.017251
    175 C                    -0.033059
    176 C                    -0.019352
  ----------------------------------------
  Sum of atomic charges =     0.000000

                    Cartesian Multipole Moments
 -----------------------------------------------------------------
    Charge (ESU x 10^10)
                 0.0000
    Dipole Moment (Debye)
         X       0.4810      Y       6.9887      Z       0.6754
       Tot       7.0377
    Quadrupole Moments (Debye-Ang)
        XX    -822.9886     XY      -2.3290     YY    -772.8446
        XZ       2.0433     YZ      -2.8765     ZZ    -814.5009

 Total job time:  859.29s(wall), 7341.35s(cpu)
        *  Thank you very much for using Q-Chem.  Have a nice day.  *
