 Q-Chem 4.4, Q-Chem, Inc., Pleasanton, CA (2016)
 Q-Chem 4.4.2 for Intel X86 Linux

User input:
--------------------------------------------------------------
$comment
SP
$end

$rem
MEM_STATIC 5000
MEM_TOTAL 20000
JOBTYPE SP
EXCHANGE B3LYP
BASIS 6-31g(d,p)
$end

$molecule
0 1
O          30.435000    -11.939000      7.491000
C          31.361000    -11.172000      8.184000
H          31.144000    -10.102000      8.082000
H          32.389000    -11.352000      7.846000
H          31.262000    -11.467000      9.236000
O          28.863000    -11.817000      9.136000
C          29.179000    -12.134000      8.008000
C          28.353000    -12.864000      7.054000
H          28.037000    -13.756000      7.608000
H          29.125000    -13.159000      6.333000
C          27.254000    -11.956000      6.381000
H          26.716000    -11.331000      7.104000
H          27.812000    -11.315000      5.686000
C          26.362000    -12.863000      5.493000
H          27.045000    -13.335000      4.775000
H          25.950000    -13.672000      6.108000
C          25.257000    -12.015000      4.853000
C          25.873000    -11.192000      3.736000
C          26.174000    -11.964000      2.607000
H          25.839000    -12.996000      2.560000
C          26.741000    -11.344000      1.442000
H          26.886000    -11.898000      0.519000
C          27.051000     -9.969000      1.466000
H          27.307000     -9.485000      0.528000
C          26.761000     -9.222000      2.576000
H          26.972000     -8.157000      2.544000
C          26.269000     -9.800000      3.785000
H          26.002000     -9.262000      4.690000
C          21.065000     -8.509000      5.635000
C          20.496000     -9.482000      3.498000
C          17.075000    -11.988000      5.157000
C          22.062000    -11.940000      9.305000
C          18.949000    -14.934000      5.503000
C          21.476000     -8.986000      4.398000
C          20.370000    -14.142000      8.782000
C          17.676000     -9.655000      5.606000
C          22.046000    -13.282000      3.340000
C          22.562000    -13.087000      8.595000
C          23.821000    -12.515000      4.683000
C          22.239000    -14.234000      4.333000
C          22.032000    -14.644000      7.095000
C          19.412000    -14.607000      7.895000
C          22.379000    -10.863000      3.354000
C          17.486000    -13.561000      6.840000
C          24.134000    -11.386000      5.671000
C          23.870000    -11.634000      7.084000
C          17.777000    -14.172000      5.601000
C          18.871000    -10.417000      8.933000
C          17.363000    -11.307000      7.441000
C          17.739000    -10.036000      6.992000
C          18.787000     -8.925000      5.105000
C          23.288000    -10.495000      7.751000
C          22.900000    -12.145000      3.513000
C          19.158000     -9.521000      3.883000
C          21.712000    -14.150000      8.349000
C          21.065000    -10.650000      2.948000
C          21.178000    -14.960000      4.909000
C          21.194000     -9.915000      8.876000
C          17.443000    -10.698000      4.685000
C          23.308000    -13.844000      5.167000
C          19.687000     -8.670000      7.384000
C          21.089000    -15.176000      6.257000
C          20.705000    -13.021000      2.926000
C          18.510000    -12.837000      8.982000
C          19.839000    -13.023000      9.438000
C          19.650000    -13.814000      3.438000
C          22.339000    -10.684000      8.809000
C          23.371000    -12.877000      7.418000
C          20.156000    -10.672000      9.373000
C          23.423000    -10.046000      5.504000
C          18.864000    -11.731000      2.936000
C          23.104000    -13.914000      6.573000
C          19.853000    -14.772000      4.452000
C          20.946000     -8.937000      7.849000
C          17.594000    -13.154000      4.601000
C          19.702000     -8.389000      6.005000
C          16.999000    -12.279000      6.559000
C          20.203000    -11.749000      2.598000
C          18.509000    -12.983000      3.504000
C          22.618000     -9.820000      4.320000
C          22.955000     -9.570000      6.742000
C          18.086000    -11.518000      8.630000
C          18.289000    -10.584000      3.537000
C          19.767000    -15.067000      6.637000
C          20.655000    -11.921000      9.695000
C          18.286000    -13.793000      7.981000
C          21.810000     -8.795000      6.732000
C          18.651000     -9.512000      7.934000
O          24.004000    -14.177000     11.189000
C          24.068000    -12.980000     11.986000
H          25.121000    -12.747000     12.183000
H          23.649000    -13.120000     12.990000
H          23.564000    -12.130000     11.508000
O          22.277000    -15.176000     12.201000
C          23.102000    -15.143000     11.325000
C          23.323000    -16.221000     10.250000
H          24.160000    -16.875000     10.526000
H          23.640000    -15.725000      9.324000
C          22.114000    -17.125000     10.104000
H          21.998000    -17.707000     11.027000
H          21.220000    -16.500000      9.990000
C          22.359000    -18.081000      8.887000
H          21.395000    -18.603000      8.842000
H          22.507000    -17.391000      8.047000
C          23.472000    -19.128000      9.026000
C          23.216000    -20.131000     10.168000
C          22.150000    -21.074000     10.125000
H          21.318000    -20.992000      9.433000
C          22.069000    -21.953000     11.218000
H          21.222000    -22.630000     11.253000
C          22.824000    -21.835000     12.346000
H          22.610000    -22.355000     13.274000
C          23.922000    -20.881000     12.379000
H          24.477000    -20.796000     13.308000
C          24.163000    -20.081000     11.263000
H          24.848000    -19.240000     11.217000
C          28.873000    -20.255000      8.925000
C          27.871000    -22.158000      7.853000
C          29.138000    -21.421000      3.543000
C          27.154000    -16.006000      6.393000
C          26.053000    -20.077000      2.661000
C          27.765000    -21.114000      8.827000
C          26.643000    -16.651000      3.670000
C          30.291000    -21.077000      5.642000
C          24.326000    -21.336000      6.079000
C          25.830000    -16.290000      5.934000
C          24.042000    -19.564000      7.747000
C          23.888000    -20.152000      5.406000
C          24.581000    -17.599000      4.590000
C          26.689000    -17.745000      2.771000
C          25.663000    -21.457000      8.100000
C          28.377000    -19.518000      2.504000
C          24.895000    -18.749000      8.628000
C          25.410000    -17.512000      8.046000
C          27.375000    -20.456000      2.585000
C          30.083000    -17.633000      5.507000
C          30.167000    -19.290000      4.047000
C          30.580000    -19.782000      5.255000
C          29.909000    -21.339000      6.990000
C          26.719000    -17.350000      8.444000
C          24.486000    -20.979000      7.441000
C          28.958000    -22.312000      6.973000
C          25.577000    -16.565000      4.626000
C          26.571000    -22.337000      7.397000
C          24.407000    -19.884000      4.107000
C          28.869000    -16.955000      7.511000
C          29.556000    -21.888000      4.802000
C          23.738000    -19.080000      6.308000
C          30.159000    -18.963000      7.505000
C          24.678000    -18.605000      3.678000
C          25.228000    -22.208000      5.402000
C          28.807000    -17.370000      3.537000
C          27.929000    -16.460000      4.190000
C          25.609000    -21.960000      4.095000
C          27.572000    -16.520000      7.617000
C          25.021000    -17.052000      6.783000
C          29.282000    -16.654000      6.215000
C          26.153000    -19.344000      9.195000
C          27.388000    -22.864000      5.173000
C          24.212000    -17.803000      5.935000
C          25.218000    -20.794000      3.454000
C          29.308000    -18.075000      8.187000
C          27.844000    -21.622000      3.161000
C          29.861000    -20.260000      7.954000
C          29.499000    -20.115000      3.137000
C          26.349000    -22.752000      6.079000
C          26.929000    -22.345000      3.979000
C          26.420000    -20.681000      8.946000
C          27.183000    -18.474000      9.147000
C          29.877000    -17.922000      4.137000
C          28.709000    -22.655000      5.614000
C          25.730000    -18.733000      2.829000
C          28.158000    -16.123000      5.523000
C          28.010000    -18.173000      2.645000
C          28.542000    -18.869000      9.038000
C          30.488000    -18.763000      6.150000
$end

--------------------------------------------------------------

             Standard Nuclear Orientation (Angstroms)
    I     Atom           X                Y                Z
 ----------------------------------------------------------------
    1      O       1.1649764496     5.1866717777     4.9103341109
    2      C       1.1561418403     5.7684598513     6.1702779934
    3      H       0.1800184521     6.2158172295     6.3926459480
    4      H       1.9260023267     6.5424549973     6.2783258784
    5      H       1.3535650372     4.9513941113     6.8752302314
    6      O       0.1374113613     3.2766152198     5.6088231478
    7      C       0.5523854418     3.9756569482     4.7077869808
    8      C       0.5874002494     3.6277020167     3.2925155125
    9      H       1.1052299386     2.6613374464     3.2718290393
   10      H       1.2786099237     4.3992805993     2.9323132400
   11      C      -0.8237134995     3.7509380781     2.6005871485
   12      H      -1.6284518315     3.2936194736     3.1888506191
   13      H      -0.9983605482     4.8316827161     2.5183713603
   14      C      -0.6891402333     3.2344206833     1.1438933519
   15      H       0.0857127369     3.8588218355     0.6807269933
   16      H      -0.2943256336     2.2115593963     1.1619548948
   17      C      -2.0560721062     3.3050295093     0.4537914403
   18      C      -2.3484826001     4.7569267993     0.1206783028
   19      C      -1.5861256003     5.2216050063    -0.9582619036
   20      H      -0.9860620652     4.5202153666    -1.5304806792
   21      C      -1.7510357021     6.5688678971    -1.4281569571
   22      H      -1.2509479248     6.9212418043    -2.3257174534
   23      C      -2.6361136801     7.4370329323    -0.7571670581
   24      H      -2.8813483156     8.3839345718    -1.2292616022
   25      C      -3.3725461607     6.9780888638     0.3017222390
   26      H      -4.0774584550     7.6607788623     0.7673433547
   27      C      -3.1928938951     5.6749829861     0.8562212334
   28      H      -3.7565772561     5.2457775902     1.6795084231
   29      C      -7.3842383457     1.8646498350     0.5650340526
   30      C      -7.0302981355     2.2457341470    -1.7943641916
   31      C      -7.1439908352    -2.1748161414    -2.8812713255
   32      C      -3.9799092590    -1.3020312787     2.7138346933
   33      C      -3.6630048840    -2.6144093952    -2.8796654896
   34      C      -6.7877597325     2.6091120249    -0.4432359072
   35      C      -3.3167013779    -3.1899419088     0.7185538211
   36      C      -8.5885082389    -0.8884868683    -1.3764731757
   37      C      -3.0939435271     1.4635620765    -2.6665930885
   38      C      -2.7891597258    -1.1352592112     1.9238906278
   39      C      -2.5591810633     2.2222837390    -0.5030465681
   40      C      -2.2018814145     0.5451424915    -2.1277678355
   41      C      -1.9365018535    -1.3852389751    -0.1170977775
   42      C      -3.5695577823    -3.5311756861    -0.6006812406
   43      C      -4.7834970154     2.8691452374    -1.6024544755
   44      C      -5.6117946899    -3.6568377361    -1.9160117931
   45      C      -3.2242923171     2.4146812405     0.8642003816
   46      C      -3.1565999308     1.3054365977     1.8090617807
   47      C      -4.9847421152    -3.0555359701    -3.0288299520
   48      C      -7.1628088657    -2.4077047374     1.5793611166
   49      C      -7.4394423799    -2.9678333428    -0.6346754333
   50      C      -8.2144382929    -1.8354515738    -0.3598830312
   51      C      -8.4848626246     0.4838427356    -1.0240656771
   52      C      -4.3930624836     1.1062086060     2.5248847776
   53      C      -3.4511267615     2.4815747197    -1.7242107908
   54      C      -7.8195062838     1.1347599319    -2.0822474873
   55      C      -2.4894221503    -2.0719464444     0.9513890016
   56      C      -5.7760989356     2.3546827953    -2.4312311786
   57      C      -2.2756873547    -0.8359645546    -2.3954785198
   58      C      -6.1170697444    -0.6165470393     2.7411553284
   59      C      -7.9394466116    -1.0249656411    -2.6216524996
   60      C      -1.8227688455     0.9519678004    -0.8311631047
   61      C      -8.0668880306    -0.1193601715     1.3275953299
   62      C      -2.1262446686    -1.7781431819    -1.4148423396
   63      C      -4.1411323508     0.9599212476    -3.4957730949
   64      C      -5.4881879032    -3.8683152594     0.5539911663
   65      C      -4.5061406639    -3.3595769961     1.4402990130
   66      C      -4.1603661037    -0.4135355098    -3.8382122842
   67      C      -4.8057789525    -0.2143121335     2.9011507644
   68      C      -2.4828554295     0.1732927167     1.3968426888
   69      C      -6.1543758495    -1.9524864320     2.4074246083
   70      C      -4.7201866159     2.7120809252     0.9177136925
   71      C      -6.2940506588     0.3960513627    -3.8127502425
   72      C      -1.8575951313    -0.0261460980     0.2010347115
   73      C      -3.2568478347    -1.3405364431    -3.2800966984
   74      C      -7.0645184400     0.2986021552     2.1601562568
   75      C      -5.9225281791    -2.0939147285    -3.5442471480
   76      C      -8.3139984422     0.8247709358     0.3135046551
   77      C      -6.9262722044    -3.1768081385    -1.8789382294
   78      C      -5.4583043391     1.4523585704    -3.5074108047
   79      C      -5.5178091527    -0.7819085225    -3.9740345664
   80      C      -5.4276587703     2.9835709464    -0.3178968121
   81      C      -5.3512081020     1.9294999847     1.9013919711
   82      C      -6.7944578023    -3.2880789484     0.5746254584
   83      C      -7.5341719437     0.2433964625    -3.1447452425
   84      C      -3.0216896733    -2.8025856270    -1.6443220126
   85      C      -4.8572533040    -2.4320299522     2.4214643381
   86      C      -4.9038458995    -3.9097477521    -0.7199557601
   87      C      -6.6692193385     1.5746426838     1.6807731223
   88      C      -8.0349270613    -1.5266348990     1.0061667406
   89      O      -0.9723136409    -2.2335335617     4.2667870733
   90      C      -1.8501748419    -2.0591634184     5.3942039283
   91      H      -1.3745828183    -1.3730648551     6.1048289971
   92      H      -1.9739994071    -2.9798164982     5.9775069231
   93      H      -2.8416745362    -1.6903752777     5.1010765442
   94      O      -1.2337461345    -4.4340746917     3.9602813038
   95      C      -0.7708702281    -3.3763204742     3.6197054523
   96      C       0.1831816450    -3.1462286462     2.4350566545
   97      H       1.2222666134    -3.0850793369     2.7829419666
   98      H      -0.0333125665    -2.1606617450     2.0040472118
   99      C       0.1382225507    -4.2952272704     1.4461209429
  100      H       0.5467267880    -5.1909877997     1.9307304375
  101      H      -0.9092373416    -4.5012064408     1.1946107935
  102      C       1.0077950971    -3.9072604068     0.2017836497
  103      H       0.8179554132    -4.7662095656    -0.4539390333
  104      H       0.5366416302    -2.9851179951    -0.1605308314
  105      C       2.5225809152    -3.7822190663     0.4117540967
  106      C       3.1800455720    -5.1036394430     0.8559358309
  107      C       3.2570520200    -6.2384004164    -0.0007096852
  108      H       2.6586122493    -6.3394784217    -0.9004124571
  109      C       3.9245595066    -7.3564492971     0.5267857704
  110      H       3.9308991688    -8.2622060733    -0.0703134434
  111      C       4.3298632803    -7.4578857015     1.8236174892
  112      H       4.6291090493    -8.3895395112     2.2925024950
  113      C       4.2638184477    -6.2911148997     2.6902736933
  114      H       4.5657363219    -6.4241047896     3.7244159884
  115      C       3.7568799406    -5.0949085229     2.1846645023
  116      H       3.5212018129    -4.2069317394     2.7630891319
  117      C       6.7533414738    -0.7713754045     2.2790024841
  118      C       7.5957184851    -1.7462148552     0.2505335995
  119      C       7.6908785134     1.9277280919    -2.4360340602
  120      C       2.2897114883     1.6745749538     1.0488316841
  121      C       4.7006999088     1.0964888668    -4.0074532478
  122      C       6.7370032985    -1.8601404756     1.3904797303
  123      C       2.4071316722     2.5936543981    -1.6406627806
  124      C       8.1912824731     1.6368216862    -0.0868820132
  125      C       4.7061135730    -2.6203403208    -2.4468490434
  126      C       1.6791591220     0.9382017269    -0.0138504314
  127      C       3.1844326577    -2.8899004615    -0.5456156220
  128      C       3.4885916296    -1.9308885368    -2.7450529247
  129      C       1.8955299682     0.2536804911    -2.1503036452
  130      C       3.2697964723     2.6005822116    -2.7644574451
  131      C       5.6831492896    -2.9768115820    -0.2548224815
  132      C       5.6997533064     2.9741800526    -2.9055121789
  133      C       3.0976136355    -2.4402271128     0.8537597161
  134      C       2.4320018580    -1.1576250637     1.0682613367
  135      C       5.8157819036     1.8119761791    -3.6309282809
  136      C       5.3586998292     3.2840133005     1.0020901402
  137      C       6.6716241412     3.3605406198    -0.7740512732
  138      C       7.3451347522     2.6887789592     0.2093188139
  139      C       8.1950613472     0.4814414159     0.7478359938
  140      C       3.1272992704    -0.4562015542     2.0288317759
  141      C       4.5611372843    -3.1251636206    -1.1307075952
  142      C       8.3675945336    -0.6084181000    -0.0483157098
  143      C       1.7035816693     1.3920203277    -1.2960166518
  144      C       6.9178118995    -2.4167523313    -0.7598124572
  145      C       3.5663634633    -0.7117553616    -3.4773451088
  146      C       4.1266835940     1.6747716418     2.3592833026
  147      C       8.3492263109     1.2421761831    -1.3994576000
  148      C       2.5787492332    -2.0180295947    -1.6727277642
  149      C       6.5008607816     1.5228563062     2.1684838988
  150      C       2.7204954279     0.3448065977    -3.2293388731
  151      C       5.9314638514    -2.0752162892    -2.9302468976
  152      C       4.3095080336     3.7209977223    -1.0682929623
  153      C       3.0686233381     3.2241211012    -0.5797115507
  154      C       5.9391142627    -0.9510607688    -3.7371730634
  155      C       2.9839899049     0.9859470345     2.0392180072
  156      C       1.7970238275    -0.4543821970     0.0385320659
  157      C       4.1129182754     2.8396125662     1.5952531089
  158      C       4.3591808850    -2.2440764871     1.6462564081
  159      C       7.7794541987    -0.8639265828    -2.4144117268
  160      C       1.8618222017    -0.8628145897    -1.2905917626
  161      C       4.7656928247    -0.2584253285    -3.9953518306
  162      C       5.2947293820     1.0159148425     2.6843583015
  163      C       7.0358789167     1.2075240843    -3.3915667471
  164      C       7.3446181199     0.4283025071     1.9182049841
  165      C       6.8802658626     3.0428837080    -2.1196038431
  166      C       7.0709573579    -2.0063075722    -2.0889906124
  167      C       7.0566121466    -0.2167737879    -3.3964354678
  168      C       5.5664470464    -2.5886499527     1.0591988791
  169      C       4.3146938140    -1.1163609829     2.3854334114
  170      C       5.4216251938     3.7972076873    -0.3153046070
  171      C       8.4464732493    -0.1562414975    -1.3958488145
  172      C       3.4510917472     1.4548446263    -3.5085047614
  173      C       2.9813630361     2.7709708924     0.7355601049
  174      C       4.4213639916     3.3200046331    -2.4475589943
  175      C       5.4644037819    -0.3657123369     2.7452675397
  176      C       6.5126334392     2.6171410023     1.2815406040
 ----------------------------------------------------------------

    9   -5804.2112902103      7.50E-06 Convergence criterion met
 Total energy in the final basis set = -5804.2112902103

                    Orbital Energies (a.u.)
 --------------------------------------------------------------

 Alpha MOs
 -- Occupied --
-19.185 -19.184 -19.130 -19.126 -10.308 -10.307 -10.242 -10.240
-10.239 -10.239 -10.239 -10.238 -10.236 -10.235 -10.234 -10.231
-10.231 -10.228 -10.228 -10.227 -10.227 -10.226 -10.226 -10.226
-10.225 -10.225 -10.225 -10.224 -10.224 -10.224 -10.223 -10.223
-10.223 -10.222 -10.222 -10.222 -10.222 -10.221 -10.221 -10.220
-10.220 -10.220 -10.220 -10.220 -10.220 -10.219 -10.219 -10.219
-10.219 -10.219 -10.219 -10.219 -10.219 -10.218 -10.218 -10.218
-10.218 -10.218 -10.218 -10.218 -10.218 -10.218 -10.217 -10.217
-10.217 -10.217 -10.217 -10.217 -10.217 -10.217 -10.216 -10.216
-10.216 -10.216 -10.216 -10.216 -10.216 -10.216 -10.216 -10.215
-10.215 -10.215 -10.215 -10.215 -10.215 -10.215 -10.215 -10.215
-10.215 -10.214 -10.214 -10.214 -10.214 -10.214 -10.213 -10.213
-10.213 -10.213 -10.213 -10.213 -10.213 -10.213 -10.213 -10.212
-10.212 -10.212 -10.212 -10.211 -10.211 -10.211 -10.211 -10.211
-10.210 -10.210 -10.210 -10.210 -10.209 -10.209 -10.209 -10.209
-10.208 -10.208 -10.208 -10.208 -10.208 -10.207 -10.207 -10.207
-10.207 -10.207 -10.206 -10.206 -10.206 -10.204 -10.203 -10.202
-10.202 -10.202 -10.202 -10.201 -10.200 -10.199 -10.199 -10.198
-10.195 -10.193 -10.192 -10.184  -1.097  -1.097  -1.012  -1.008
 -0.992  -0.986  -0.976  -0.972  -0.968  -0.968  -0.964  -0.962
 -0.945  -0.936  -0.934  -0.933  -0.929  -0.928  -0.928  -0.926
 -0.925  -0.922  -0.904  -0.897  -0.897  -0.896  -0.894  -0.886
 -0.876  -0.873  -0.854  -0.849  -0.849  -0.848  -0.843  -0.842
 -0.841  -0.839  -0.825  -0.824  -0.808  -0.805  -0.804  -0.802
 -0.800  -0.800  -0.797  -0.795  -0.795  -0.794  -0.791  -0.786
 -0.778  -0.773  -0.772  -0.771  -0.770  -0.768  -0.767  -0.762
 -0.755  -0.747  -0.742  -0.741  -0.738  -0.736  -0.723  -0.722
 -0.720  -0.717  -0.716  -0.716  -0.716  -0.713  -0.713  -0.712
 -0.711  -0.708  -0.706  -0.704  -0.701  -0.697  -0.675  -0.674
 -0.667  -0.662  -0.662  -0.658  -0.651  -0.647  -0.637  -0.633
 -0.631  -0.630  -0.627  -0.625  -0.624  -0.624  -0.623  -0.619
 -0.618  -0.615  -0.615  -0.614  -0.613  -0.612  -0.611  -0.610
 -0.608  -0.607  -0.604  -0.603  -0.569  -0.566  -0.565  -0.564
 -0.562  -0.562  -0.561  -0.560  -0.559  -0.559  -0.555  -0.554
 -0.539  -0.538  -0.535  -0.532  -0.531  -0.530  -0.530  -0.529
 -0.527  -0.525  -0.523  -0.520  -0.520  -0.519  -0.519  -0.516
 -0.509  -0.507  -0.501  -0.499  -0.496  -0.492  -0.491  -0.489
 -0.486  -0.486  -0.485  -0.484  -0.481  -0.481  -0.478  -0.478
 -0.477  -0.475  -0.473  -0.472  -0.471  -0.469  -0.469  -0.467
 -0.467  -0.467  -0.466  -0.466  -0.464  -0.463  -0.461  -0.458
 -0.456  -0.456  -0.456  -0.452  -0.451  -0.450  -0.448  -0.445
 -0.444  -0.443  -0.442  -0.441  -0.439  -0.439  -0.436  -0.436
 -0.434  -0.432  -0.432  -0.431  -0.430  -0.429  -0.427  -0.426
 -0.425  -0.424  -0.424  -0.424  -0.424  -0.422  -0.421  -0.421
 -0.420  -0.420  -0.419  -0.418  -0.417  -0.417  -0.416  -0.415
 -0.414  -0.413  -0.409  -0.408  -0.405  -0.402  -0.399  -0.399
 -0.397  -0.394  -0.392  -0.391  -0.389  -0.389  -0.385  -0.383
 -0.382  -0.379  -0.377  -0.375  -0.372  -0.371  -0.369  -0.368
 -0.368  -0.365  -0.364  -0.363  -0.362  -0.360  -0.360  -0.358
 -0.358  -0.357  -0.357  -0.356  -0.355  -0.354  -0.353  -0.352
 -0.351  -0.349  -0.348  -0.348  -0.347  -0.346  -0.346  -0.345
 -0.343  -0.343  -0.340  -0.339  -0.338  -0.336  -0.336  -0.334
 -0.334  -0.333  -0.331  -0.331  -0.329  -0.329  -0.328  -0.323
 -0.307  -0.304  -0.295  -0.292  -0.292  -0.290  -0.276  -0.274
 -0.273  -0.272  -0.270  -0.269  -0.268  -0.266  -0.265  -0.265
 -0.264  -0.263  -0.262  -0.261  -0.261  -0.259  -0.257  -0.252
 -0.250  -0.250  -0.244  -0.241  -0.227  -0.227  -0.218  -0.213
 -0.212  -0.212  -0.209  -0.205  -0.200  -0.198

          Ground-State Mulliken Net Atomic Charges

     Atom                 Charge (a.u.)
  ----------------------------------------
      1 O                    -0.455617
      2 C                    -0.083030
      3 H                     0.113535
      4 H                     0.117343
      5 H                     0.126961
      6 O                    -0.474643
      7 C                     0.579365
      8 C                    -0.265192
      9 H                     0.138427
     10 H                     0.132902
     11 C                    -0.194575
     12 H                     0.123141
     13 H                     0.123568
     14 C                    -0.184295
     15 H                     0.118795
     16 H                     0.113826
     17 C                     0.015363
     18 C                     0.084219
     19 C                    -0.104533
     20 H                     0.095120
     21 C                    -0.098951
     22 H                     0.091257
     23 C                    -0.074128
     24 H                     0.091494
     25 C                    -0.094138
     26 H                     0.090202
     27 C                    -0.109424
     28 H                     0.096277
     29 C                     0.017439
     30 C                    -0.024014
     31 C                     0.009770
     32 C                    -0.053014
     33 C                     0.006494
     34 C                    -0.018391
     35 C                     0.001989
     36 C                    -0.036698
     37 C                    -0.002529
     38 C                    -0.005175
     39 C                    -0.096984
     40 C                     0.028553
     41 C                    -0.016706
     42 C                     0.006045
     43 C                     0.037396
     44 C                     0.026970
     45 C                    -0.087992
     46 C                     0.014847
     47 C                    -0.036896
     48 C                     0.006155
     49 C                     0.037011
     50 C                     0.014004
     51 C                     0.009936
     52 C                    -0.008353
     53 C                     0.034891
     54 C                     0.038437
     55 C                     0.006215
     56 C                    -0.013379
     57 C                     0.002011
     58 C                     0.015082
     59 C                     0.009196
     60 C                    -0.007627
     61 C                    -0.020437
     62 C                     0.002798
     63 C                    -0.007239
     64 C                    -0.030674
     65 C                     0.004225
     66 C                    -0.007522
     67 C                     0.010036
     68 C                     0.037903
     69 C                     0.029122
     70 C                    -0.004245
     71 C                    -0.004780
     72 C                     0.017549
     73 C                    -0.009357
     74 C                    -0.013306
     75 C                     0.009124
     76 C                    -0.005638
     77 C                    -0.038133
     78 C                     0.003848
     79 C                    -0.001776
     80 C                    -0.007735
     81 C                     0.015061
     82 C                    -0.016697
     83 C                    -0.016062
     84 C                     0.009713
     85 C                    -0.007042
     86 C                     0.016221
     87 C                     0.012797
     88 C                    -0.006547
     89 O                    -0.456051
     90 C                    -0.096081
     91 H                     0.130796
     92 H                     0.132415
     93 H                     0.124439
     94 O                    -0.474701
     95 C                     0.596156
     96 C                    -0.262074
     97 H                     0.127741
     98 H                     0.123671
     99 C                    -0.184125
    100 H                     0.120639
    101 H                     0.109018
    102 C                    -0.203479
    103 H                     0.104190
    104 H                     0.108871
    105 C                     0.026289
    106 C                     0.064422
    107 C                    -0.101452
    108 H                     0.103636
    109 C                    -0.089982
    110 H                     0.087679
    111 C                    -0.070967
    112 H                     0.096413
    113 C                    -0.110538
    114 H                     0.096671
    115 C                    -0.085904
    116 H                     0.100587
    117 C                    -0.032304
    118 C                     0.008863
    119 C                     0.000892
    120 C                    -0.011811
    121 C                     0.005444
    122 C                    -0.014431
    123 C                    -0.034969
    124 C                    -0.018669
    125 C                     0.002338
    126 C                    -0.006459
    127 C                    -0.083809
    128 C                    -0.000748
    129 C                    -0.021662
    130 C                    -0.000875
    131 C                     0.002863
    132 C                     0.002923
    133 C                    -0.087149
    134 C                     0.057502
    135 C                     0.012507
    136 C                    -0.024401
    137 C                     0.009352
    138 C                     0.015088
    139 C                     0.004221
    140 C                    -0.019213
    141 C                     0.026940
    142 C                     0.001600
    143 C                    -0.012355
    144 C                    -0.007088
    145 C                    -0.003931
    146 C                     0.025255
    147 C                     0.014637
    148 C                     0.015246
    149 C                    -0.012597
    150 C                     0.016497
    151 C                    -0.007606
    152 C                     0.001122
    153 C                     0.026688
    154 C                     0.005156
    155 C                    -0.027409
    156 C                     0.019897
    157 C                    -0.039814
    158 C                    -0.000264
    159 C                     0.007769
    160 C                    -0.003625
    161 C                     0.008106
    162 C                     0.029533
    163 C                     0.011445
    164 C                     0.012577
    165 C                    -0.039309
    166 C                    -0.016106
    167 C                    -0.005221
    168 C                     0.047947
    169 C                     0.020649
    170 C                    -0.004828
    171 C                    -0.017568
    172 C                     0.006129
    173 C                     0.024565
    174 C                    -0.010512
    175 C                    -0.027695
    176 C                     0.031241
  ----------------------------------------
  Sum of atomic charges =     0.000000

                    Cartesian Multipole Moments
 -----------------------------------------------------------------
    Charge (ESU x 10^10)
                 0.0000
    Dipole Moment (Debye)
         X       1.1315      Y       1.5602      Z      -0.5974
       Tot       2.0178
    Quadrupole Moments (Debye-Ang)
        XX    -817.6022     XY     -15.1144     YY    -779.2836
        XZ       3.1989     YZ       7.8357     ZZ    -809.8241

 Total job time:  885.14s(wall), 7570.83s(cpu)
        *  Thank you very much for using Q-Chem.  Have a nice day.  *
