 Q-Chem 4.4, Q-Chem, Inc., Pleasanton, CA (2016)
 Q-Chem 4.4.2 for Intel X86 Linux

User input:
--------------------------------------------------------------
$comment
SP
$end

$rem
MEM_STATIC 5000
MEM_TOTAL 20000
JOBTYPE SP
EXCHANGE B3LYP
BASIS 6-31g(d,p)
$end

$molecule
0 1
O          25.128000     16.278000     12.872000
C          23.949000     16.680000     13.592000
H          24.100000     16.567000     14.673000
H          23.057000     16.080000     13.374000
H          23.679000     17.710000     13.329000
O          24.538000     17.115000     10.813000
C          25.294000     16.451000     11.546000
C          26.542000     15.779000     10.968000
H          26.357000     14.698000     10.954000
H          27.356000     16.077000     11.642000
C          26.769000     16.089000      9.461000
H          26.791000     17.171000      9.288000
H          27.760000     15.737000      9.148000
C          25.686000     15.403000      8.545000
H          25.885000     14.324000      8.544000
H          24.685000     15.438000      8.995000
C          25.832000     15.933000      7.135000
C          27.028000     15.358000      6.492000
C          27.036000     14.090000      5.996000
H          26.177000     13.451000      6.178000
C          28.180000     13.536000      5.399000
H          28.201000     12.480000      5.147000
C          29.230000     14.350000      5.155000
H          30.059000     13.864000      4.648000
C          29.239000     15.694000      5.664000
H          30.096000     16.314000      5.420000
C          28.157000     16.176000      6.443000
H          28.270000     17.198000      6.791000
C          25.633000     20.390000      3.898000
C          25.077000     18.514000      2.403000
C          20.713000     19.568000      1.789000
C          22.663000     20.405000      7.843000
C          19.658000     17.231000      4.175000
C          25.772000     19.050000      3.486000
C          20.131000     19.446000      7.057000
C          22.727000     21.075000      1.923000
C          23.304000     15.585000      4.433000
C          22.296000     19.081000      8.171000
C          24.599000     16.148000      6.257000
C          22.465000     15.585000      5.576000
C          21.262000     17.243000      7.349000
C          19.470000     18.922000      5.986000
C          25.304000     16.835000      3.948000
C          19.383000     19.600000      3.681000
C          25.362000     17.377000      6.788000
C          24.591000     18.355000      7.715000
C          19.548000     18.293000      3.271000
C          22.019000     22.309000      5.071000
C          20.852000     21.527000      3.252000
C          22.117000     21.846000      2.822000
C          24.089000     20.707000      2.039000
C          24.892000     19.715000      7.345000
C          24.620000     15.941000      4.792000
C          24.244000     19.352000      1.660000
C          21.047000     18.596000      7.730000
C          24.744000     17.254000      2.719000
C          21.075000     15.852000      5.372000
C          23.839000     21.680000      6.480000
C          22.033000     19.887000      1.339000
C          23.221000     16.020000      6.671000
C          24.165000     21.965000      4.089000
C          20.453000     16.757000      6.298000
C          22.823000     15.879000      3.119000
C          20.018000     21.080000      5.505000
C          20.475000     20.729000      6.782000
C          21.495000     16.205000      2.960000
C          23.900000     20.707000      7.390000
C          23.245000     18.044000      8.023000
C          22.501000     21.940000      6.301000
C          25.872000     18.343000      5.751000
C          22.661000     17.559000      1.581000
C          22.582000     16.885000      7.554000
C          20.643000     16.214000      4.061000
C          24.681000     21.697000      5.360000
C          20.380000     18.253000      2.116000
C          24.816000     21.190000      3.147000
C          20.180000     20.408000      2.770000
C          23.528000     16.709000      2.291000
C          21.370000     17.223000      1.987000
C          25.914000     18.023000      4.395000
C          25.653000     19.650000      6.126000
C          20.724000     21.880000      4.636000
C          22.969000     18.916000      1.253000
C          19.541000     17.600000      5.551000
C          21.736000     21.210000      7.191000
C          19.369000     19.964000      5.045000
C          25.618000     20.736000      5.230000
C          22.812000     22.237000      3.970000
O          27.965000      8.221000      4.482000
C          28.718000      9.385000      4.817000
H          29.777000      9.099000      4.803000
H          28.323000      9.688000      5.795000
H          28.646000     10.041000      3.941000
O          26.799000      7.973000      6.357000
C          27.104000      7.518000      5.283000
C          26.391000      6.382000      4.549000
H          25.520000      6.148000      5.173000
H          27.006000      5.519000      4.832000
C          26.171000      6.424000      3.005000
H          27.108000      6.649000      2.482000
H          25.766000      5.433000      2.764000
C          25.118000      7.484000      2.651000
H          24.199000      7.082000      3.096000
H          25.264000      8.463000      3.124000
C          25.016000      7.586000      1.146000
C          24.324000      6.494000      0.393000
C          22.957000      6.591000      0.186000
H          22.393000      7.412000      0.618000
C          22.256000      5.584000     -0.519000
H          21.202000      5.564000     -0.781000
C          22.943000      4.413000     -0.841000
H          22.402000      3.564000     -1.249000
C          24.284000      4.204000     -0.429000
H          24.738000      3.245000     -0.663000
C          25.010000      5.341000     -0.030000
H          26.055000      5.303000      0.265000
C          27.976000      9.414000     -3.148000
C          25.652000      9.967000     -3.794000
C          26.015000     14.437000     -3.282000
C          29.005000     11.255000      1.412000
C          24.529000     14.389000     -0.095000
C          26.598000      9.180000     -3.140000
C          27.510000     13.641000      1.698000
C          27.541000     12.784000     -4.176000
C          23.340000     10.506000     -0.537000
C          27.818000     11.283000      2.133000
C          24.714000      8.967000      0.609000
C          23.593000     11.099000      0.724000
C          25.685000     12.127000      2.291000
C          26.596000     14.489000      1.151000
C          24.659000      9.107000     -1.908000
C          26.478000     15.269000     -1.260000
C          26.126000      8.417000      0.541000
C          27.257000      9.060000      1.263000
C          25.091000     15.022000     -1.279000
C          29.894000     13.020000     -1.568000
C          28.340000     14.448000     -2.569000
C          28.551000     13.363000     -3.393000
C          27.474000     11.427000     -4.394000
C          28.409000      9.135000      0.450000
C          24.021000      9.348000     -0.668000
C          26.128000     11.124000     -4.477000
C          27.041000     12.448000      2.297000
C          24.451000      9.920000     -3.049000
C          23.726000     12.490000      0.882000
C          29.972000     10.742000     -0.563000
C          26.285000     13.321000     -4.117000
C          24.502000     10.271000      1.360000
C          29.433000     11.087000     -2.949000
C          24.771000     13.021000      1.657000
C          23.226000     11.436000     -1.654000
C          28.539000     14.421000     -0.146000
C          28.706000     13.619000      0.923000
C          23.302000     12.831000     -1.514000
C          29.348000     10.184000      0.541000
C          26.925000     10.219000      2.059000
C          30.071000     12.178000     -0.452000
C          26.752000      8.367000     -0.877000
C          24.249000     12.247000     -3.543000
C          25.586000     10.794000      2.114000
C          23.604000     13.312000     -0.201000
C          29.696000     10.231000     -1.884000
C          24.812000     14.473000     -2.556000
C          28.398000     10.559000     -3.778000
C          27.036000     14.931000     -2.506000
C          23.781000     11.099000     -2.893000
C          23.967000     13.349000     -2.690000
C          26.025000      8.719000     -2.003000
C          28.097000      8.684000     -0.817000
C          29.129000     14.242000     -1.404000
C          25.403000     12.282000     -4.244000
C          25.216000     14.208000      1.141000
C          29.470000     12.432000      0.803000
C          27.173000     14.919000     -0.073000
C          28.746000      9.187000     -1.991000
C          29.518000     12.496000     -2.803000
$end

--------------------------------------------------------------

             Standard Nuclear Orientation (Angstroms)
    I     Atom           X                Y                Z
 ----------------------------------------------------------------
    1      O      -7.1537223193    -7.4871033576     0.5228895810
    2      C      -8.2073831684    -7.5965344679    -0.4506958786
    3      H      -8.6914151442    -8.5792345164    -0.3863168357
    4      H      -7.8726533656    -7.5217878475    -1.4925964986
    5      H      -8.9302981672    -6.7825051227    -0.3175826576
    6      O      -6.7978571298    -5.2221211160     0.3457867518
    7      C      -6.4870557403    -6.3453872482     0.7832758288
    8      C      -5.2859009891    -6.5090073361     1.7179563788
    9      H      -4.4951201350    -7.0160752263     1.1518028700
   10      H      -5.6684429089    -7.0974978061     2.5623595090
   11      C      -4.6049793697    -5.1614504084     2.0909363713
   12      H      -5.3364762755    -4.4622329143     2.5118213590
   13      H      -3.8744314873    -5.3170695950     2.8947003046
   14      C      -3.8613757880    -4.5130379978     0.8624592412
   15      H      -2.9707358633    -5.1189386948     0.6539217868
   16      H      -4.4276557233    -4.6324261701    -0.0707071422
   17      C      -3.4284920694    -3.1121516071     1.2372191728
   18      C      -2.2800899063    -3.1598555758     2.1610085445
   19      C      -1.0163180836    -3.4125273398     1.7217571815
   20      H      -0.8693475354    -3.6946332893     0.6834210648
   21      C       0.0749935821    -3.4750726669     2.6033398097
   22      H       1.0400281666    -3.8212831170     2.2456701646
   23      C      -0.1178573830    -3.0954342175     3.8852583535
   24      H       0.7805427945    -3.1235080333     4.4956475588
   25      C      -1.4429200682    -2.8179211874     4.3676413948
   26      H      -1.5405543092    -2.4942366177     5.3991843432
   27      C      -2.5644306837    -2.9568395103     3.5116013030
   28      H      -3.5197699936    -2.7383546548     3.9784504981
   29      C      -5.0896345874     1.9111961296     2.7829235595
   30      C      -2.9483373810     2.2951737136     1.6292578848
   31      C      -4.6502486071     4.3611110313    -2.0269435836
   32      C      -8.1838181249    -0.6353131577    -0.1024652681
   33      C      -4.4989422267     1.4300670506    -3.9384031208
   34      C      -3.7808392966     1.5216235755     2.4365810818
   35      C      -7.7136448636     0.1009033136    -2.7830292781
   36      C      -5.3201848861     4.5660201909     0.3926428724
   37      C      -2.3407886300    -0.4838976910    -1.1548248445
   38      C      -7.4511359324    -1.5075780811    -0.9376776411
   39      C      -3.4451338279    -1.9921097907     0.1967253566
   40      C      -3.2278265629    -1.2289606654    -1.9723912758
   41      C      -5.8569546143    -1.5462717288    -2.5439692482
   42      C      -6.8875996292     0.8629229138    -3.5547244248
   43      C      -2.4644622756     0.0997774943     1.1779317025
   44      C      -6.1266254475     3.1307826217    -3.3138745956
   45      C      -4.4802264044    -1.9675384261     1.3380187484
   46      C      -5.9809446070    -2.0427319439     0.9475769332
   47      C      -4.8370979804     2.7506695492    -3.6240470694
   48      C      -8.2626147888     2.7827995626     0.0825550481
   49      C      -6.9556356138     4.1434092577    -1.2299695017
   50      C      -6.5994443875     4.3689305158     0.0773766547
   51      C      -4.7158847040     3.9631505022     1.5219317763
   52      C      -6.7362801869    -1.1019005036     1.7358696217
   53      C      -2.4469715850    -0.8998134831     0.1880125373
   54      C      -3.4097141509     3.5349333587     1.1839383383
   55      C      -7.1797144655    -1.1068035526    -2.2625992104
   56      C      -2.2486553713     1.4581263714     0.8494233947
   57      C      -3.7120280489    -0.5996900404    -3.1617492545
   58      C      -8.0614568393     0.8747171905     1.5010328029
   59      C      -4.2671134229     4.5903053543    -0.6677753111
   60      C      -3.9718259646    -2.0790118624    -1.1455515980
   61      C      -6.8309669485     2.9132289495     1.9855391880
   62      C      -5.1135617099    -0.7465867343    -3.4401549986
   63      C      -1.9577298368     0.8610678428    -1.4526950747
   64      C      -8.1264768463     2.2522039405    -2.2418228786
   65      C      -8.4512738387     0.9136285034    -1.9858898543
   66      C      -2.4955176181     1.4695834661    -2.5642858440
   67      C      -7.8093579554    -0.3932066113     1.1733662262
   68      C      -6.2969561275    -2.1449622983    -0.4282815892
   69      C      -8.5397204201     1.4677167898     0.3566987509
   70      C      -4.4929993342    -0.7314269607     2.1985362076
   71      C      -2.4279393994     3.0361314344    -0.9407484569
   72      C      -5.3228411705    -2.2073792610    -1.4529840695
   73      C      -3.3693320264     0.7667524474    -3.3893088370
   74      C      -7.1997705150     1.6090009668     2.3268517990
   75      C      -3.9143197721     3.4864473653    -2.8272030548
   76      C      -5.5125727569     3.1340786581     2.3388834418
   77      C      -6.0075912201     4.1145514294    -2.2480304298
   78      C      -1.9289108997     1.8093785483    -0.4671062788
   79      C      -2.7647269644     2.8275533004    -2.2777160325
   80      C      -3.4635011493     0.2076590645     2.1646109288
   81      C      -5.7779416937    -0.3099914236     2.4595921800
   82      C      -8.0509026856     3.2184135955    -1.2649275676
   83      C      -3.2028342684     3.9392411918    -0.1483926605
   84      C      -5.5989105542     0.5174067905    -3.9570291308
   85      C      -8.6980256589     0.5343035182    -0.6502293080
   86      C      -7.1867326665     2.2014718058    -3.2380980048
   87      C      -6.1179379880     0.9990814644     2.8522341209
   88      C      -7.3568382607     3.4666064364     0.8296902705
   89      O       4.6416913668    -5.4320452026     0.4933945882
   90      C       3.7653367655    -5.2777415198     1.6079900244
   91      H       4.2942910171    -5.6607429689     2.4894605512
   92      H       2.8637100460    -5.8328383696     1.3194510392
   93      H       3.7357373072    -4.1998935492     1.8086480029
   94      O       3.4377777470    -6.8319332576    -0.7425627046
   95      C       4.4858883507    -6.2559506782    -0.5901349165
   96      C       5.5786146801    -6.0768920510    -1.6444157980
   97      H       5.1581583456    -6.5092931533    -2.5603954689
   98      H       6.2588751275    -6.9007406571    -1.3962178975
   99      C       6.3609894231    -4.7343138430    -1.7839633423
  100      H       6.7497193056    -4.4049706729    -0.8131156948
  101      H       7.1488637195    -4.9568686192    -2.5146551136
  102      C       5.4447632496    -3.6480222959    -2.3655347253
  103      H       5.2422048340    -4.0093505752    -3.3817049683
  104      H       4.4609840968    -3.5623290192    -1.8877050057
  105      C       6.1920528418    -2.3337513238    -2.3746494033
  106      C       7.2675258180    -2.1210890571    -3.3927209322
  107      C       6.9228959000    -1.5830027156    -4.6226153621
  108      H       5.8833406959    -1.3807772608    -4.8617614326
  109      C       7.9028744897    -1.3635669425    -5.6195932481
  110      H       7.7685658341    -0.9137228932    -6.5991653568
  111      C       9.1852138341    -1.8666278918    -5.3972658153
  112      H       9.9197150313    -1.8465050416    -6.1972964786
  113      C       9.4925535769    -2.6254326199    -4.2390500897
  114      H      10.4950865905    -3.0366179186    -4.1590050596
  115      C       8.5930526571    -2.5315126915    -3.1614958487
  116      H       8.7508780371    -3.0365323870    -2.2125278531
  117      C       8.0576702996     1.4594516775     1.1852245400
  118      C       7.3389836365     2.8176726560    -0.7545760307
  119      C       3.6971903761     4.6343631053     1.1978047363
  120      C       4.3361790816    -1.5729789709     2.6673141044
  121      C       1.5027344350     2.3337987411    -0.3052706872
  122      C       7.8435300125     1.6513491389    -0.1826289982
  123      C       1.9066049970    -0.2215072951     2.1376811400
  124      C       5.9145991536     4.1564347829     2.0433837282
  125      C       4.4172011290     0.9563069131    -2.8142892509
  126      C       3.5686563186    -1.8756556856     1.5497768054
  127      C       5.3445311230    -1.1046401874    -2.1343854848
  128      C       3.3143137661     0.1686446329    -2.4031851313
  129      C       2.2224826812    -1.0717757022    -0.1320622209
  130      C       1.3032053270     0.8810834304     1.6143155601
  131      C       6.6506972354     1.0506461632    -2.0532384980
  132      C       2.0368053817     3.2962947334     1.8669621936
  133      C       6.2081509536    -1.6623578698    -1.0190470720
  134      C       5.6215825306    -2.1847244296     0.2446635999
  135      C       1.8454986659     3.5057320213     0.4868619208
  136      C       4.9172561617     1.5879413974     4.2347571982
  137      C       3.9423204023     3.5137944831     3.3421816232
  138      C       5.3085461072     3.5787620009     3.1691829385
  139      C       7.0679560883     3.6463427553     1.4928967577
  140      C       6.3518718203    -1.7447602009     1.3701888243
  141      C       5.5792881304     0.3043287954    -2.5989654593
  142      C       6.9678922762     3.8697964992     0.1325770681
  143      C       2.3552158478    -1.2248825664     1.2466158397
  144      C       6.6118091274     2.4595514564    -1.9132828270
  145      C       2.1874711102     0.7304099016    -1.7769428364
  146      C       6.1285149471    -0.4399576757     3.4436374196
  147      C       5.1103326010     4.6785702808     1.0687474709
  148      C       3.8502825013    -0.9955822640    -1.8800462900
  149      C       7.0647448448     1.8265012944     3.1450083596
  150      C       1.6329660311     0.1262526893    -0.6358340861
  151      C       4.3009087969     2.3844233702    -2.5449484291
  152      C       2.6430423687     1.4610633735     3.4392928113
  153      C       2.7027192491     0.1266014883     3.2675250994
  154      C       3.1650529322     2.9763062149    -1.9697031310
  155      C       5.7556850232    -1.4927458612     2.6237649391
  156      C       4.1798072518    -2.1601247524     0.3329806488
  157      C       4.9839713520     0.1917291471     4.0561810644
  158      C       7.2297060791    -0.6676615696    -0.4090434687
  159      C       5.0372587628     4.1214955664    -1.2361551250
  160      C       3.3249378121    -1.5956839388    -0.7048901568
  161      C       2.1330434108     2.0763227194    -1.5555533325
  162      C       7.1956149020     0.4449820155     3.0429911551
  163      C       2.9161129506     4.3354464207     0.0681375857
  164      C       7.6504426821     2.4742999261     2.0160420288
  165      C       3.1639060361     4.0157370808     2.3030479921
  166      C       5.4224101443     3.0993256549    -2.1115150997
  167      C       3.6213081315     4.0580009381    -1.1239533341
  168      C       7.3914538202     0.6099683133    -0.9207157765
  169      C       7.3317358351    -0.8646970782     0.9561967802
  170      C       3.6631740850     2.2655372996     3.9635618106
  171      C       5.7353931034     4.4481163744    -0.1269800755
  172      C       1.1350390554     1.0638321748     0.2280313174
  173      C       3.9044785175    -0.5687629902     3.5491416879
  174      C       1.8297921334     1.9769738709     2.3476200519
  175      C       7.7939117310     0.2112768684     1.7815206606
  176      C       5.9172129537     2.4186325672     3.7335430779
 ----------------------------------------------------------------

    9   -5804.2124527819      8.12E-06 Convergence criterion met
 Total energy in the final basis set = -5804.2124527819

                    Orbital Energies (a.u.)
 --------------------------------------------------------------

 Alpha MOs
 -- Occupied --
-19.202 -19.177 -19.135 -19.133 -10.324 -10.319 -10.254 -10.242
-10.240 -10.239 -10.237 -10.236 -10.232 -10.231 -10.228 -10.228
-10.226 -10.225 -10.224 -10.224 -10.223 -10.222 -10.221 -10.221
-10.219 -10.219 -10.219 -10.219 -10.219 -10.219 -10.218 -10.218
-10.218 -10.218 -10.218 -10.218 -10.218 -10.217 -10.217 -10.217
-10.217 -10.216 -10.216 -10.216 -10.216 -10.216 -10.216 -10.215
-10.215 -10.215 -10.214 -10.214 -10.214 -10.214 -10.213 -10.213
-10.213 -10.213 -10.213 -10.213 -10.212 -10.212 -10.212 -10.212
-10.212 -10.212 -10.211 -10.211 -10.211 -10.211 -10.211 -10.211
-10.211 -10.211 -10.210 -10.210 -10.210 -10.210 -10.210 -10.210
-10.210 -10.210 -10.210 -10.210 -10.210 -10.209 -10.209 -10.209
-10.209 -10.209 -10.208 -10.208 -10.208 -10.208 -10.207 -10.207
-10.207 -10.207 -10.207 -10.206 -10.206 -10.206 -10.206 -10.206
-10.205 -10.205 -10.205 -10.205 -10.204 -10.204 -10.204 -10.204
-10.204 -10.203 -10.203 -10.203 -10.202 -10.202 -10.201 -10.201
-10.201 -10.201 -10.201 -10.201 -10.200 -10.200 -10.200 -10.200
-10.199 -10.199 -10.198 -10.198 -10.198 -10.198 -10.198 -10.197
-10.197 -10.197 -10.197 -10.196 -10.196 -10.195 -10.195 -10.194
-10.193 -10.192 -10.191 -10.190  -1.098  -1.091  -1.008  -1.004
 -0.984  -0.981  -0.969  -0.963  -0.963  -0.959  -0.959  -0.956
 -0.935  -0.930  -0.929  -0.927  -0.925  -0.923  -0.922  -0.921
 -0.916  -0.914  -0.902  -0.894  -0.889  -0.887  -0.886  -0.879
 -0.877  -0.871  -0.857  -0.850  -0.842  -0.842  -0.838  -0.836
 -0.834  -0.832  -0.823  -0.817  -0.809  -0.798  -0.798  -0.797
 -0.796  -0.795  -0.791  -0.791  -0.788  -0.786  -0.784  -0.780
 -0.772  -0.770  -0.769  -0.766  -0.765  -0.762  -0.762  -0.758
 -0.753  -0.751  -0.748  -0.746  -0.734  -0.728  -0.718  -0.715
 -0.714  -0.712  -0.712  -0.710  -0.709  -0.708  -0.707  -0.706
 -0.705  -0.705  -0.703  -0.702  -0.701  -0.700  -0.673  -0.664
 -0.659  -0.656  -0.654  -0.652  -0.649  -0.643  -0.634  -0.631
 -0.627  -0.626  -0.623  -0.620  -0.620  -0.619  -0.618  -0.618
 -0.616  -0.614  -0.612  -0.611  -0.609  -0.609  -0.608  -0.606
 -0.604  -0.603  -0.602  -0.596  -0.569  -0.566  -0.562  -0.561
 -0.558  -0.557  -0.556  -0.556  -0.554  -0.554  -0.549  -0.549
 -0.539  -0.535  -0.533  -0.529  -0.526  -0.526  -0.523  -0.522
 -0.521  -0.519  -0.518  -0.515  -0.515  -0.514  -0.511  -0.509
 -0.507  -0.504  -0.503  -0.497  -0.493  -0.489  -0.488  -0.486
 -0.485  -0.482  -0.479  -0.479  -0.477  -0.477  -0.476  -0.474
 -0.473  -0.470  -0.470  -0.469  -0.466  -0.466  -0.466  -0.464
 -0.463  -0.462  -0.460  -0.460  -0.459  -0.458  -0.457  -0.457
 -0.456  -0.455  -0.454  -0.451  -0.448  -0.447  -0.445  -0.444
 -0.442  -0.440  -0.440  -0.438  -0.434  -0.433  -0.433  -0.432
 -0.432  -0.429  -0.428  -0.427  -0.427  -0.425  -0.425  -0.424
 -0.422  -0.420  -0.419  -0.419  -0.417  -0.417  -0.417  -0.416
 -0.416  -0.415  -0.414  -0.412  -0.411  -0.410  -0.409  -0.409
 -0.408  -0.407  -0.405  -0.404  -0.402  -0.399  -0.399  -0.393
 -0.393  -0.392  -0.389  -0.388  -0.387  -0.384  -0.384  -0.380
 -0.379  -0.377  -0.375  -0.373  -0.371  -0.370  -0.365  -0.364
 -0.363  -0.362  -0.360  -0.359  -0.358  -0.358  -0.356  -0.356
 -0.355  -0.355  -0.352  -0.352  -0.351  -0.350  -0.350  -0.348
 -0.348  -0.346  -0.346  -0.345  -0.345  -0.342  -0.340  -0.339
 -0.338  -0.338  -0.337  -0.335  -0.335  -0.333  -0.331  -0.331
 -0.331  -0.328  -0.327  -0.326  -0.325  -0.323  -0.322  -0.321
 -0.311  -0.301  -0.300  -0.290  -0.288  -0.278  -0.271  -0.270
 -0.269  -0.268  -0.267  -0.266  -0.265  -0.264  -0.262  -0.261
 -0.258  -0.258  -0.257  -0.257  -0.255  -0.254  -0.252  -0.250
 -0.249  -0.245  -0.245  -0.240  -0.220  -0.213  -0.211  -0.211
 -0.207  -0.206  -0.201  -0.199  -0.198  -0.192

          Ground-State Mulliken Net Atomic Charges

     Atom                 Charge (a.u.)
  ----------------------------------------
      1 O                    -0.459090
      2 C                    -0.088825
      3 H                     0.129699
      4 H                     0.127248
      5 H                     0.138362
      6 O                    -0.482545
      7 C                     0.602891
      8 C                    -0.269166
      9 H                     0.134156
     10 H                     0.130252
     11 C                    -0.171841
     12 H                     0.116622
     13 H                     0.107419
     14 C                    -0.187664
     15 H                     0.101827
     16 H                     0.124359
     17 C                     0.018631
     18 C                     0.090238
     19 C                    -0.101594
     20 H                     0.088106
     21 C                    -0.081906
     22 H                     0.091551
     23 C                    -0.081393
     24 H                     0.085481
     25 C                    -0.110555
     26 H                     0.090798
     27 C                    -0.101798
     28 H                     0.103302
     29 C                     0.012212
     30 C                     0.024947
     31 C                    -0.010582
     32 C                    -0.004283
     33 C                    -0.007316
     34 C                    -0.000370
     35 C                     0.020302
     36 C                    -0.006101
     37 C                     0.003407
     38 C                    -0.023393
     39 C                    -0.116246
     40 C                     0.010369
     41 C                     0.020013
     42 C                     0.015253
     43 C                     0.008222
     44 C                    -0.005838
     45 C                    -0.097066
     46 C                     0.024678
     47 C                     0.007955
     48 C                     0.001457
     49 C                     0.013323
     50 C                     0.011339
     51 C                    -0.002453
     52 C                    -0.036474
     53 C                     0.034739
     54 C                    -0.029810
     55 C                    -0.017177
     56 C                     0.003045
     57 C                    -0.039680
     58 C                     0.001502
     59 C                    -0.015084
     60 C                     0.048748
     61 C                     0.002654
     62 C                    -0.034762
     63 C                    -0.000869
     64 C                     0.027852
     65 C                    -0.007309
     66 C                    -0.011041
     67 C                     0.042635
     68 C                     0.041443
     69 C                     0.006332
     70 C                     0.061849
     71 C                    -0.010052
     72 C                     0.005974
     73 C                     0.026261
     74 C                    -0.011603
     75 C                    -0.007848
     76 C                    -0.015273
     77 C                    -0.002070
     78 C                     0.001418
     79 C                    -0.010091
     80 C                    -0.031552
     81 C                     0.001445
     82 C                    -0.039782
     83 C                     0.022616
     84 C                    -0.006663
     85 C                    -0.019357
     86 C                    -0.023450
     87 C                    -0.010065
     88 C                     0.006402
     89 O                    -0.478568
     90 C                    -0.085850
     91 H                     0.117952
     92 H                     0.136971
     93 H                     0.126633
     94 O                    -0.460829
     95 C                     0.577746
     96 C                    -0.276069
     97 H                     0.136351
     98 H                     0.128661
     99 C                    -0.180476
    100 H                     0.123041
    101 H                     0.115220
    102 C                    -0.175963
    103 H                     0.108336
    104 H                     0.123544
    105 C                     0.018523
    106 C                     0.098368
    107 C                    -0.110633
    108 H                     0.095464
    109 C                    -0.083473
    110 H                     0.097331
    111 C                    -0.088713
    112 H                     0.089168
    113 C                    -0.092136
    114 H                     0.094555
    115 C                    -0.111070
    116 H                     0.088456
    117 C                    -0.012952
    118 C                    -0.007756
    119 C                     0.002756
    120 C                     0.008107
    121 C                     0.010308
    122 C                     0.028622
    123 C                     0.006548
    124 C                     0.012015
    125 C                     0.005966
    126 C                    -0.028873
    127 C                    -0.107037
    128 C                    -0.006685
    129 C                    -0.009118
    130 C                    -0.000213
    131 C                     0.002471
    132 C                    -0.013852
    133 C                    -0.076039
    134 C                     0.035110
    135 C                    -0.022738
    136 C                    -0.006654
    137 C                     0.013551
    138 C                    -0.001816
    139 C                     0.022474
    140 C                     0.008027
    141 C                     0.043923
    142 C                    -0.036272
    143 C                    -0.017834
    144 C                    -0.031469
    145 C                     0.006711
    146 C                    -0.012708
    147 C                     0.002397
    148 C                     0.032737
    149 C                     0.001962
    150 C                     0.007701
    151 C                     0.001960
    152 C                     0.032795
    153 C                     0.002273
    154 C                    -0.019215
    155 C                     0.002404
    156 C                     0.002991
    157 C                     0.007824
    158 C                     0.019355
    159 C                     0.021192
    160 C                    -0.004943
    161 C                     0.002111
    162 C                    -0.014728
    163 C                    -0.004476
    164 C                    -0.007252
    165 C                     0.016447
    166 C                     0.007495
    167 C                    -0.010359
    168 C                     0.013917
    169 C                     0.007601
    170 C                    -0.041049
    171 C                     0.012420
    172 C                    -0.010490
    173 C                    -0.021005
    174 C                    -0.001624
    175 C                    -0.006104
    176 C                    -0.000752
  ----------------------------------------
  Sum of atomic charges =     0.000000

                    Cartesian Multipole Moments
 -----------------------------------------------------------------
    Charge (ESU x 10^10)
                 0.0000
    Dipole Moment (Debye)
         X       3.1148      Y      -5.6442      Z      -0.6977
       Tot       6.4843
    Quadrupole Moments (Debye-Ang)
        XX    -778.5789     XY      11.9398     YY    -789.7880
        XZ     -21.7440     YZ       0.5169     ZZ    -791.2550

 Total job time:  862.68s(wall), 7287.96s(cpu)
        *  Thank you very much for using Q-Chem.  Have a nice day.  *
