 Q-Chem 4.4, Q-Chem, Inc., Pleasanton, CA (2016)
 Q-Chem 4.4.2 for Intel X86 Linux

User input:
--------------------------------------------------------------
$comment
SP
$end

$rem
MEM_STATIC 5000
MEM_TOTAL 20000
JOBTYPE SP
EXCHANGE B3LYP
BASIS 6-31g(d,p)
$end

$molecule
0 1
O          35.471000      4.268000     -5.092000
C          36.773000      4.047000     -4.429000
H          36.923000      2.975000     -4.252000
H          36.876000      4.546000     -3.458000
H          37.585000      4.465000     -5.037000
O          34.391000      2.704000     -3.785000
C          34.327000      3.600000     -4.644000
C          32.980000      4.112000     -5.247000
H          32.567000      4.943000     -4.661000
H          32.275000      3.296000     -5.043000
C          33.024000      4.466000     -6.827000
H          33.677000      5.343000     -6.915000
H          33.458000      3.630000     -7.389000
C          31.689000      4.777000     -7.546000
H          31.234000      5.556000     -6.922000
H          31.840000      5.284000     -8.506000
C          30.674000      3.612000     -7.715000
C          31.301000      2.382000     -8.392000
C          31.644000      1.204000     -7.731000
H          31.292000      1.157000     -6.704000
C          32.300000      0.219000     -8.365000
H          32.673000     -0.618000     -7.782000
C          32.613000      0.306000     -9.717000
H          33.171000     -0.499000    -10.187000
C          32.322000      1.466000    -10.423000
H          32.587000      1.525000    -11.474000
C          31.660000      2.466000     -9.739000
H          31.425000      3.381000    -10.274000
C          25.804000      2.248000     -9.862000
C          26.014000      0.670000     -7.990000
C          22.811000      2.671000     -5.365000
C          26.379000      7.012000     -8.426000
C          25.215000      4.524000     -3.558000
C          26.577000      1.411000     -9.064000
C          25.417000      7.236000     -5.823000
C          22.967000      2.238000     -7.771000
C          28.345000      2.360000     -5.021000
C          27.249000      6.967000     -7.335000
C          29.449000      3.465000     -6.843000
C          28.521000      3.748000     -4.623000
C          27.550000      6.336000     -5.253000
C          24.805000      6.594000     -4.709000
C          27.978000      1.508000     -7.272000
C          23.065000      4.850000     -4.731000
C          29.252000      3.941000     -8.217000
C          28.657000      5.304000     -8.447000
C          23.885000      4.034000     -3.907000
C          23.223000      5.536000     -8.798000
C          22.299000      4.408000     -7.028000
C          22.447000      3.530000     -8.061000
C          23.852000      1.571000     -8.606000
C          27.719000      5.242000     -9.492000
C          28.821000      2.223000     -6.350000
C          24.650000      0.853000     -7.751000
C          26.769000      7.151000     -6.062000
C          26.869000      0.757000     -6.863000
C          27.488000      4.374000     -3.922000
C          25.396000      5.666000     -9.941000
C          23.049000      1.711000     -6.400000
C          29.095000      4.444000     -5.749000
C          24.052000      3.586000     -9.922000
C          27.024000      5.629000     -4.181000
C          27.153000      1.719000     -4.674000
C          23.406000      6.470000     -6.526000
C          24.520000      7.246000     -6.874000
C          26.159000      2.325000     -3.833000
C          26.649000      6.110000     -9.482000
C          28.380000      6.144000     -7.393000
C          24.405000      6.284000     -9.148000
C          28.307000      3.094000     -9.025000
C          25.067000      0.928000     -5.367000
C          28.590000      5.718000     -6.048000
C          26.319000      3.672000     -3.486000
C          25.166000      4.307000    -10.357000
C          23.792000      2.722000     -4.356000
C          24.452000      2.302000     -9.679000
C          22.440000      3.981000     -5.678000
C          26.413000      0.866000     -5.547000
C          24.885000      1.874000     -4.316000
C          27.762000      1.935000     -8.583000
C          27.534000      3.905000     -9.937000
C          22.733000      5.657000     -7.469000
C          24.174000      0.860000     -6.407000
C          25.660000      5.765000     -3.971000
C          25.022000      7.143000     -8.214000
C          23.607000      6.113000     -5.156000
C          26.258000      3.444000    -10.326000
C          23.042000      4.174000     -9.123000
O          27.965000      8.221000      4.482000
C          28.718000      9.385000      4.817000
H          29.777000      9.099000      4.803000
H          28.323000      9.688000      5.795000
H          28.646000     10.041000      3.941000
O          26.799000      7.973000      6.357000
C          27.104000      7.518000      5.283000
C          26.391000      6.382000      4.549000
H          25.520000      6.148000      5.173000
H          27.006000      5.519000      4.832000
C          26.171000      6.424000      3.005000
H          27.108000      6.649000      2.482000
H          25.766000      5.433000      2.764000
C          25.118000      7.484000      2.651000
H          24.199000      7.082000      3.096000
H          25.264000      8.463000      3.124000
C          25.016000      7.586000      1.146000
C          24.324000      6.494000      0.393000
C          22.957000      6.591000      0.186000
H          22.393000      7.412000      0.618000
C          22.256000      5.584000     -0.519000
H          21.202000      5.564000     -0.781000
C          22.943000      4.413000     -0.841000
H          22.402000      3.564000     -1.249000
C          24.284000      4.204000     -0.429000
H          24.738000      3.245000     -0.663000
C          25.010000      5.341000     -0.030000
H          26.055000      5.303000      0.265000
C          27.976000      9.414000     -3.148000
C          25.652000      9.967000     -3.794000
C          26.015000     14.437000     -3.282000
C          29.005000     11.255000      1.412000
C          24.529000     14.389000     -0.095000
C          26.598000      9.180000     -3.140000
C          27.510000     13.641000      1.698000
C          27.541000     12.784000     -4.176000
C          23.340000     10.506000     -0.537000
C          27.818000     11.283000      2.133000
C          24.714000      8.967000      0.609000
C          23.593000     11.099000      0.724000
C          25.685000     12.127000      2.291000
C          26.596000     14.489000      1.151000
C          24.659000      9.107000     -1.908000
C          26.478000     15.269000     -1.260000
C          26.126000      8.417000      0.541000
C          27.257000      9.060000      1.263000
C          25.091000     15.022000     -1.279000
C          29.894000     13.020000     -1.568000
C          28.340000     14.448000     -2.569000
C          28.551000     13.363000     -3.393000
C          27.474000     11.427000     -4.394000
C          28.409000      9.135000      0.450000
C          24.021000      9.348000     -0.668000
C          26.128000     11.124000     -4.477000
C          27.041000     12.448000      2.297000
C          24.451000      9.920000     -3.049000
C          23.726000     12.490000      0.882000
C          29.972000     10.742000     -0.563000
C          26.285000     13.321000     -4.117000
C          24.502000     10.271000      1.360000
C          29.433000     11.087000     -2.949000
C          24.771000     13.021000      1.657000
C          23.226000     11.436000     -1.654000
C          28.539000     14.421000     -0.146000
C          28.706000     13.619000      0.923000
C          23.302000     12.831000     -1.514000
C          29.348000     10.184000      0.541000
C          26.925000     10.219000      2.059000
C          30.071000     12.178000     -0.452000
C          26.752000      8.367000     -0.877000
C          24.249000     12.247000     -3.543000
C          25.586000     10.794000      2.114000
C          23.604000     13.312000     -0.201000
C          29.696000     10.231000     -1.884000
C          24.812000     14.473000     -2.556000
C          28.398000     10.559000     -3.778000
C          27.036000     14.931000     -2.506000
C          23.781000     11.099000     -2.893000
C          23.967000     13.349000     -2.690000
C          26.025000      8.719000     -2.003000
C          28.097000      8.684000     -0.817000
C          29.129000     14.242000     -1.404000
C          25.403000     12.282000     -4.244000
C          25.216000     14.208000      1.141000
C          29.470000     12.432000      0.803000
C          27.173000     14.919000     -0.073000
C          28.746000      9.187000     -1.991000
C          29.518000     12.496000     -2.803000
$end

--------------------------------------------------------------

             Standard Nuclear Orientation (Angstroms)
    I     Atom           X                Y                Z
 ----------------------------------------------------------------
    1      O       4.0935813373    -8.2498176412    -0.4657531278
    2      C       3.9501480189    -9.6078538543    -1.0303578809
    3      H       4.6285105891    -9.7294316164    -1.8836198988
    4      H       2.9416936635    -9.8429063864    -1.3912195168
    5      H       4.1456936098   -10.3629370201    -0.2587729312
    6      O       4.2316041227    -7.2576989973    -2.5435874107
    7      C       4.1518035058    -7.1359102775    -1.3092485718
    8      C       4.0376176385    -5.7529424851    -0.5919455166
    9      H       2.9904373683    -5.4466725742    -0.4730412551
   10      H       4.4169421307    -5.0403591023    -1.3354741658
   11      C       4.8519467150    -5.6321200267     0.8030175971
   12      H       4.3440528141    -6.3090234100     1.5009628637
   13      H       5.8888694157    -5.9617475325     0.6643344321
   14      C       4.9639762098    -4.2389320034     1.4681367775
   15      H       3.9243996790    -3.8930076616     1.5216062680
   16      H       5.2596600371    -4.3017822666     2.5217358088
   17      C       5.8155711714    -3.1606855887     0.7413756816
   18      C       7.2386586667    -3.6512994107     0.4275635432
   19      C       7.6885349140    -4.0149243853    -0.8403647828
   20      H       6.9901259042    -3.7805975158    -1.6392125613
   21      C       8.9071724949    -4.5500749313    -1.0165843609
   22      H       9.1644840427    -4.9496831091    -1.9931554395
   23      C       9.7917141044    -4.7104058861     0.0442276517
   24      H      10.7575392805    -5.1749660268    -0.1336897592
   25      C       9.3910914091    -4.3924616813     1.3354015124
   26      H      10.0873849073    -4.5382366945     2.1552990729
   27      C       8.1270761508    -3.8577221632     1.4851315180
   28      H       7.7956775297    -3.6040057055     2.4873679736
   29      C       7.7240025842     1.9779764943     1.1142651287
   30      C       7.6325923387     1.6259758316    -1.3160245044
   31      C       4.0475515650     4.4169595780    -2.0313757314
   32      C       3.3444150276     1.0325454407     3.3534145112
   33      C       1.7407363479     1.7428890485    -1.9537589975
   34      C       7.8801125936     1.1568556810     0.0023783202
   35      C       1.3164391785     1.6805734201     1.5593680532
   36      C       6.0059858462     4.5556703450    -0.5664677175
   37      C       4.6514470845    -1.1009289975    -2.1999843601
   38      C       2.7359202476     0.0466637365     2.5743269885
   39      C       5.1986141273    -2.0378115279    -0.0593339096
   40      C       3.3901502592    -1.3824670066    -1.5323087892
   41      C       1.8223368248    -0.4615432272     0.6428568200
   42      C       0.9643295594     2.1893795098     0.2768552154
   43      C       6.7529704642    -0.4422636213    -1.1620279994
   44      C       2.0587979906     3.9960620978    -0.9910788836
   45      C       5.7582795876    -1.7066931993     1.2561113477
   46      C       4.8545829653    -1.1503025015     2.3230957929
   47      C       2.1872106822     3.1243993524    -2.1050565490
   48      C       4.3240195141     4.2726343109     2.4481547898
   49      C       3.8485806035     5.0378171170     0.3392420093
   50      C       5.2028452723     5.0476108929     0.4997047432
   51      C       7.1538510957     3.8020758573    -0.3668688268
   52      C       5.5025041271    -0.0974379288     2.9919660042
   53      C       5.7016882438    -1.4157373962    -1.3002759743
   54      C       7.1874585090     2.9443724195    -1.4376481479
   55      C       1.6888144975     0.3697462433     1.7473008450
   56      C       6.9019010061     0.6450299749    -2.0319563467
   57      C       2.3464055213    -0.4648878863    -1.6701909129
   58      C       5.2409003851     2.2405360347     3.4850656173
   59      C       5.4728552961     4.3412891944    -1.9206857719
   60      C       3.7068186358    -1.8545817991    -0.2061878438
   61      C       6.5962154342     3.6643991175     1.9788013513
   62      C       1.5554596102    -0.0304229909    -0.6488942760
   63      C       4.7529408804     0.0709392590    -2.9540253397
   64      C       2.1282647960     3.7905604784     1.4411319311
   65      C       1.9204467100     2.6902412142     2.2839754279
   66      C       3.6334800830     0.9347326037    -3.2054643597
   67      C       4.7451536962     0.9249412303     3.5207241529
   68      C       3.4996190772    -1.0327767959     2.1145159028
   69      C       4.1454539730     3.1062939697     3.2769446038
   70      C       6.8175221527    -0.6391388450     1.2157270817
   71      C       5.5679717185     2.2553299543    -3.1006132758
   72      C       2.9245323094    -1.3757050740     0.8550412482
   73      C       2.4347656668     0.6767059701    -2.5295028188
   74      C       6.4872709612     2.5764366231     2.8474386246
   75      C       3.4367090537     3.3260103169    -2.6792523679
   76      C       7.4120610169     3.2965624743     0.9459426053
   77      C       3.2632435836     4.7628447309    -0.9282282112
   78      C       5.8830569411     0.9427111370    -2.9402600937
   79      C       4.1482316812     2.2742164880    -3.2295416483
   80      C       7.3036952006    -0.0973017908     0.0730467353
   81      C       6.7573889296     0.1961331840     2.3928840946
   82      C       3.2838992543     4.6020462066     1.5367714192
   83      C       6.2218454313     3.2632280899    -2.4370897148
   84      C       1.1641800742     1.2933621788    -0.7815032845
   85      C       2.9562000245     2.3493765731     3.2163055025
   86      C       1.4849981220     3.4506577618     0.2101062899
   87      C       7.2156984639     1.5273259291     2.2934042169
   88      C       5.5164904522     4.5496588689     1.7448053346
   89      O      -6.0834713800    -2.0670166889    -5.1378288306
   90      C      -7.0753570150    -2.9041159510    -4.5465947715
   91      H      -6.7407617006    -3.9408986204    -4.6754383665
   92      H      -8.0005266853    -2.6370261109    -5.0729426589
   93      H      -6.9696060388    -2.7618190706    -3.4642527143
   94      O      -7.2979836040    -1.1126004105    -6.7349307764
   95      C      -6.2070660711    -1.2726869835    -6.2472862076
   96      C      -4.9615997930    -0.4310285981    -6.5266531927
   97      H      -5.3085810322     0.3726374863    -7.1873330278
   98      H      -4.4559819916    -1.0354579932    -7.2896071528
   99      C      -3.9732451860    -0.0384755101    -5.3850940641
  100      H      -3.6806737293    -0.9187645221    -4.8006146393
  101      H      -3.1326430423     0.4348562088    -5.9080970469
  102      C      -4.6227433832     1.0000352732    -4.4591499811
  103      H      -4.7316079446     1.8791933887    -5.1067760425
  104      H      -5.6398802974     0.7578343119    -4.1270999971
  105      C      -3.6914771523     1.2683699441    -3.2987307846
  106      C      -2.4629337534     2.0894038866    -3.5330838995
  107      C      -2.5443684334     3.4654452564    -3.3887733263
  108      H      -3.4968429415     3.9395849080    -3.1725676322
  109      C      -1.4112080340     4.2861733743    -3.6004992477
  110      H      -1.3357157096     5.3630193371    -3.4794055593
  111      C      -0.2643748916     3.6929156465    -4.1293782620
  112      H       0.5705692198     4.3139800414    -4.4409763179
  113      C      -0.2426709576     2.3242629348    -4.5008950097
  114      H       0.6645016103     1.9428308190    -4.9614386809
  115      C      -1.2610910255     1.5078586677    -3.9761563719
  116      H      -1.3175924524     0.4387508919    -4.1613863704
  117      C      -1.7966736663    -1.2607072420     1.2350433976
  118      C      -2.0193182168     1.0950100805     1.9596993853
  119      C      -5.5836480216     0.4783738476     4.6597226812
  120      C      -6.1062768657    -2.8835039920    -0.7738301604
  121      C      -7.8656541324     1.5919184429     2.2266309146
  122      C      -1.7833042740     0.1163947254     0.9960550496
  123      C      -8.2034628506    -1.5380225992     0.5682979134
  124      C      -3.6065679647    -0.8610080414     4.2628201690
  125      C      -4.8675015880     2.9943701211    -0.1673165808
  126      C      -6.7445899496    -1.7888764931    -1.3429883506
  127      C      -4.3685934551     1.5681719165    -1.9802595905
  128      C      -6.1238917815     2.5732115706    -0.6672047253
  129      C      -7.7015406240     0.2727050132    -0.9949709669
  130      C      -8.5527120221    -0.6060700572     1.4973826650
  131      C      -2.7760908420     1.9035770885    -0.0542915747
  132      C      -7.5052931931    -0.2485713319     3.7800025322
  133      C      -3.7661855327     0.1988909266    -2.2313417792
  134      C      -4.5981278385    -1.0344244297    -2.2577847702
  135      C      -7.4651963657     1.1411176828     3.5513200298
  136      C      -5.2814937142    -3.5041837667     2.6496819793
  137      C      -5.8172868979    -1.9109559120     4.2716103586
  138      C      -4.4464016929    -1.9783535658     4.1417900565
  139      C      -2.4774783331    -0.7095501566     3.4910176601
  140      C      -3.9765917430    -2.0883857578    -1.5531171884
  141      C      -3.8598550276     2.3847114134    -0.8267486619
  142      C      -2.3488024195     0.6492251172     3.2728748978
  143      C      -7.7902108324    -1.0880119056    -0.7079168590
  144      C      -2.6207182722     2.2041174392     1.3210806884
  145      C      -7.2299560145     2.3615854462     0.1750365086
  146      C      -4.2913939696    -3.5953066775     0.3656521829
  147      C      -4.1762340047     0.3550466811     4.5198756392
  148      C      -5.8499052437     1.6351868057    -1.6477157744
  149      C      -2.9901521140    -2.8035544264     2.3105017931
  150      C      -8.0255396252     1.2125409931     0.0289045032
  151      C      -4.8032762985     3.1936977266     1.2755030953
  152      C      -7.4127862613    -2.3835653394     2.4989623083
  153      C      -7.5320468538    -2.6356905083     1.1813645660
  154      C      -5.9063736320     3.0405189099     2.1305548615
  155      C      -4.6993003594    -3.0771707894    -0.8528319486
  156      C      -6.0173659313    -0.8470201601    -2.0634554734
  157      C      -5.4022505201    -3.7698217230     1.2710582924
  158      C      -2.7027058580    -0.2584952733    -1.1993975726
  159      C      -4.0054536588     2.3578683661     3.2598012875
  160      C      -6.6211724385     0.4501842679    -1.7819428202
  161      C      -7.1108580711     2.5697592380     1.5188878219
  162      C      -3.0567718499    -3.1481107580     0.9640350296
  163      C      -6.2329334578     1.5879566914     4.0915366772
  164      C      -2.1591685970    -1.6584100016     2.4985460451
  165      C      -6.3555801251    -0.6453261489     4.4863094602
  166      C      -3.6593522084     2.7990778621     1.9772351229
  167      C      -5.4161460674     2.4916728914     3.3763357343
  168      C      -2.2785967228     0.5758544276    -0.1774870980
  169      C      -2.8261571862    -1.6142753841    -0.9549920475
  170      C      -6.3673425577    -2.8177536045     3.3243307187
  171      C      -3.4302123620     1.2909220753     3.8556746491
  172      C      -8.4931408146     0.7771511171     1.2392907157
  173      C      -6.5015498882    -3.3276957602     0.4985251008
  174      C      -7.9756000055    -1.0582059168     2.7133266953
  175      C      -2.3281092864    -2.1468052817     0.2782338838
  176      C      -4.1065171561    -2.9669699057     3.1712261821
 ----------------------------------------------------------------

    9   -5804.2346681383      9.72E-06 Convergence criterion met
 Total energy in the final basis set = -5804.2346681383

                    Orbital Energies (a.u.)
 --------------------------------------------------------------

 Alpha MOs
 -- Occupied --
-19.192 -19.174 -19.139 -19.129 -10.327 -10.315 -10.248 -10.243
-10.242 -10.239 -10.239 -10.238 -10.236 -10.235 -10.232 -10.230
-10.229 -10.229 -10.228 -10.227 -10.226 -10.226 -10.226 -10.226
-10.225 -10.225 -10.225 -10.224 -10.224 -10.222 -10.222 -10.222
-10.221 -10.221 -10.220 -10.220 -10.220 -10.220 -10.220 -10.220
-10.220 -10.220 -10.220 -10.220 -10.219 -10.219 -10.219 -10.219
-10.219 -10.219 -10.219 -10.219 -10.219 -10.219 -10.218 -10.218
-10.218 -10.218 -10.218 -10.218 -10.218 -10.217 -10.217 -10.217
-10.217 -10.217 -10.217 -10.217 -10.216 -10.216 -10.216 -10.216
-10.216 -10.216 -10.216 -10.216 -10.215 -10.215 -10.215 -10.215
-10.215 -10.215 -10.215 -10.214 -10.214 -10.214 -10.214 -10.214
-10.214 -10.214 -10.214 -10.213 -10.213 -10.213 -10.213 -10.213
-10.213 -10.213 -10.212 -10.212 -10.212 -10.212 -10.212 -10.212
-10.212 -10.211 -10.211 -10.211 -10.211 -10.211 -10.211 -10.211
-10.211 -10.210 -10.210 -10.210 -10.210 -10.210 -10.210 -10.210
-10.209 -10.209 -10.208 -10.208 -10.208 -10.208 -10.208 -10.207
-10.207 -10.207 -10.206 -10.206 -10.206 -10.205 -10.204 -10.204
-10.203 -10.203 -10.202 -10.202 -10.202 -10.202 -10.198 -10.196
-10.194 -10.194 -10.191 -10.190  -1.087  -1.073  -1.004  -0.995
 -0.985  -0.985  -0.970  -0.969  -0.964  -0.964  -0.962  -0.960
 -0.938  -0.936  -0.932  -0.930  -0.926  -0.926  -0.924  -0.923
 -0.922  -0.920  -0.903  -0.899  -0.894  -0.890  -0.888  -0.885
 -0.880  -0.875  -0.860  -0.856  -0.843  -0.843  -0.843  -0.842
 -0.839  -0.837  -0.823  -0.819  -0.807  -0.800  -0.799  -0.798
 -0.798  -0.796  -0.796  -0.795  -0.793  -0.792  -0.786  -0.784
 -0.773  -0.773  -0.771  -0.770  -0.768  -0.765  -0.763  -0.762
 -0.758  -0.751  -0.746  -0.740  -0.734  -0.733  -0.719  -0.719
 -0.716  -0.716  -0.715  -0.715  -0.713  -0.713  -0.711  -0.711
 -0.708  -0.707  -0.707  -0.705  -0.704  -0.703  -0.674  -0.673
 -0.663  -0.660  -0.660  -0.657  -0.649  -0.649  -0.635  -0.633
 -0.632  -0.628  -0.625  -0.625  -0.623  -0.622  -0.619  -0.619
 -0.618  -0.617  -0.614  -0.613  -0.612  -0.612  -0.610  -0.610
 -0.608  -0.608  -0.605  -0.605  -0.568  -0.567  -0.565  -0.563
 -0.562  -0.559  -0.559  -0.558  -0.557  -0.556  -0.555  -0.551
 -0.539  -0.539  -0.537  -0.536  -0.530  -0.530  -0.527  -0.524
 -0.523  -0.522  -0.522  -0.521  -0.519  -0.516  -0.516  -0.515
 -0.506  -0.506  -0.502  -0.495  -0.493  -0.489  -0.487  -0.487
 -0.486  -0.485  -0.483  -0.483  -0.477  -0.477  -0.475  -0.475
 -0.474  -0.473  -0.471  -0.470  -0.468  -0.468  -0.467  -0.466
 -0.465  -0.465  -0.463  -0.462  -0.461  -0.461  -0.460  -0.457
 -0.457  -0.456  -0.454  -0.453  -0.452  -0.448  -0.447  -0.444
 -0.444  -0.442  -0.442  -0.440  -0.440  -0.438  -0.437  -0.433
 -0.432  -0.431  -0.430  -0.428  -0.428  -0.427  -0.427  -0.426
 -0.425  -0.425  -0.424  -0.423  -0.422  -0.420  -0.420  -0.419
 -0.418  -0.418  -0.418  -0.417  -0.416  -0.416  -0.414  -0.412
 -0.412  -0.410  -0.409  -0.408  -0.405  -0.404  -0.403  -0.401
 -0.395  -0.394  -0.393  -0.393  -0.390  -0.389  -0.388  -0.385
 -0.378  -0.378  -0.377  -0.375  -0.373  -0.371  -0.370  -0.368
 -0.367  -0.365  -0.363  -0.363  -0.361  -0.361  -0.360  -0.359
 -0.358  -0.357  -0.356  -0.356  -0.355  -0.354  -0.353  -0.351
 -0.351  -0.348  -0.348  -0.347  -0.347  -0.346  -0.345  -0.344
 -0.343  -0.343  -0.342  -0.340  -0.339  -0.338  -0.334  -0.334
 -0.334  -0.332  -0.331  -0.329  -0.328  -0.326  -0.325  -0.324
 -0.312  -0.310  -0.296  -0.291  -0.289  -0.284  -0.274  -0.272
 -0.270  -0.269  -0.268  -0.268  -0.268  -0.267  -0.266  -0.265
 -0.264  -0.263  -0.263  -0.261  -0.260  -0.259  -0.256  -0.256
 -0.251  -0.248  -0.247  -0.243  -0.221  -0.219  -0.213  -0.213
 -0.212  -0.212  -0.210  -0.207  -0.202  -0.200

          Ground-State Mulliken Net Atomic Charges

     Atom                 Charge (a.u.)
  ----------------------------------------
      1 O                    -0.480883
      2 C                    -0.085902
      3 H                     0.140057
      4 H                     0.125750
      5 H                     0.126002
      6 O                    -0.472300
      7 C                     0.597814
      8 C                    -0.267333
      9 H                     0.139050
     10 H                     0.139177
     11 C                    -0.189846
     12 H                     0.120666
     13 H                     0.122092
     14 C                    -0.193581
     15 H                     0.105886
     16 H                     0.115478
     17 C                     0.012734
     18 C                     0.098195
     19 C                    -0.106416
     20 H                     0.090912
     21 C                    -0.085099
     22 H                     0.092420
     23 C                    -0.091770
     24 H                     0.087192
     25 C                    -0.075890
     26 H                     0.093855
     27 C                    -0.120984
     28 H                     0.079389
     29 C                     0.038900
     30 C                    -0.034441
     31 C                    -0.017656
     32 C                    -0.007591
     33 C                     0.020227
     34 C                    -0.021048
     35 C                     0.000854
     36 C                    -0.003747
     37 C                    -0.013580
     38 C                    -0.012837
     39 C                    -0.072452
     40 C                    -0.020895
     41 C                    -0.031798
     42 C                    -0.004099
     43 C                     0.013828
     44 C                    -0.042944
     45 C                    -0.076536
     46 C                     0.028559
     47 C                    -0.010459
     48 C                    -0.011323
     49 C                     0.016205
     50 C                    -0.003492
     51 C                     0.002645
     52 C                     0.009443
     53 C                     0.005156
     54 C                     0.020133
     55 C                     0.035117
     56 C                    -0.015175
     57 C                     0.025333
     58 C                    -0.016207
     59 C                    -0.027610
     60 C                     0.026930
     61 C                     0.017500
     62 C                     0.007887
     63 C                     0.024016
     64 C                     0.005407
     65 C                    -0.014007
     66 C                    -0.037096
     67 C                     0.004841
     68 C                     0.015589
     69 C                     0.001939
     70 C                     0.034816
     71 C                     0.016938
     72 C                    -0.016089
     73 C                    -0.026998
     74 C                    -0.013246
     75 C                     0.023926
     76 C                    -0.027807
     77 C                     0.021704
     78 C                    -0.004036
     79 C                     0.003006
     80 C                     0.036774
     81 C                    -0.024390
     82 C                    -0.007462
     83 C                     0.013558
     84 C                     0.012194
     85 C                    -0.004296
     86 C                     0.016766
     87 C                    -0.001918
     88 C                     0.003137
     89 O                    -0.479189
     90 C                    -0.084150
     91 H                     0.116807
     92 H                     0.138479
     93 H                     0.123933
     94 O                    -0.459448
     95 C                     0.577804
     96 C                    -0.275852
     97 H                     0.136034
     98 H                     0.128769
     99 C                    -0.180812
    100 H                     0.122845
    101 H                     0.115471
    102 C                    -0.177877
    103 H                     0.109114
    104 H                     0.124584
    105 C                     0.020073
    106 C                     0.099179
    107 C                    -0.111568
    108 H                     0.094531
    109 C                    -0.085565
    110 H                     0.097496
    111 C                    -0.084664
    112 H                     0.091484
    113 C                    -0.095742
    114 H                     0.097860
    115 C                    -0.111769
    116 H                     0.089111
    117 C                    -0.013339
    118 C                    -0.004398
    119 C                     0.002962
    120 C                     0.009920
    121 C                     0.006798
    122 C                     0.027744
    123 C                    -0.003733
    124 C                     0.012554
    125 C                     0.005464
    126 C                    -0.020615
    127 C                    -0.108859
    128 C                    -0.006757
    129 C                    -0.003817
    130 C                    -0.000770
    131 C                     0.002502
    132 C                    -0.014811
    133 C                    -0.076617
    134 C                     0.037618
    135 C                    -0.023686
    136 C                    -0.006527
    137 C                     0.012429
    138 C                    -0.001690
    139 C                     0.021874
    140 C                     0.009113
    141 C                     0.046299
    142 C                    -0.038586
    143 C                    -0.021573
    144 C                    -0.029399
    145 C                     0.005613
    146 C                    -0.012490
    147 C                     0.001766
    148 C                     0.032874
    149 C                     0.000421
    150 C                     0.009837
    151 C                     0.003402
    152 C                     0.032973
    153 C                     0.003736
    154 C                    -0.021186
    155 C                     0.003585
    156 C                     0.003740
    157 C                     0.007990
    158 C                     0.017735
    159 C                     0.021958
    160 C                    -0.001934
    161 C                     0.002907
    162 C                    -0.015640
    163 C                    -0.004176
    164 C                    -0.009613
    165 C                     0.016436
    166 C                     0.004993
    167 C                    -0.010583
    168 C                     0.015516
    169 C                     0.007965
    170 C                    -0.040482
    171 C                     0.011935
    172 C                    -0.019824
    173 C                    -0.017480
    174 C                    -0.000454
    175 C                    -0.006815
    176 C                    -0.000496
  ----------------------------------------
  Sum of atomic charges =     0.000000

                    Cartesian Multipole Moments
 -----------------------------------------------------------------
    Charge (ESU x 10^10)
                 0.0000
    Dipole Moment (Debye)
         X       3.2678      Y      -1.6060      Z       0.9618
       Tot       3.7660
    Quadrupole Moments (Debye-Ang)
        XX    -823.7275     XY     -16.1776     YY    -779.4971
        XZ      -3.0596     YZ     -17.8582     ZZ    -819.5136

 Total job time:  863.87s(wall), 7310.34s(cpu)
        *  Thank you very much for using Q-Chem.  Have a nice day.  *
