 Q-Chem 4.4, Q-Chem, Inc., Pleasanton, CA (2016)
 Q-Chem 4.4.2 for Intel X86 Linux

User input:
--------------------------------------------------------------
$comment
SP
$end

$rem
MEM_STATIC 5000
MEM_TOTAL 20000
JOBTYPE SP
EXCHANGE B3LYP
BASIS 6-31g(d,p)
$end

$molecule
0 1
O         -11.669000     14.156000     -1.325000
C         -10.695000     13.167000     -1.571000
H         -11.196000     12.194000     -1.648000
H         -10.041000     13.081000     -0.695000
H         -10.152000     13.413000     -2.492000
O         -12.738000     12.971000      0.332000
C         -12.521000     13.995000     -0.342000
C         -13.193000     15.280000     -0.074000
H         -14.192000     15.059000      0.321000
H         -13.334000     15.762000     -1.050000
C         -12.616000     16.222000      1.015000
H         -12.846000     15.722000      1.964000
H         -11.522000     16.293000      0.992000
C         -13.304000     17.603000      0.862000
H         -13.075000     18.041000     -0.118000
H         -14.391000     17.458000      0.823000
C         -12.958000     18.644000      1.980000
C         -13.671000     18.321000      3.235000
C         -12.990000     17.562000      4.234000
H         -11.973000     17.248000      4.017000
C         -13.622000     17.247000      5.427000
H         -13.128000     16.675000      6.207000
C         -14.984000     17.689000      5.647000
H         -15.487000     17.505000      6.592000
C         -15.636000     18.443000      4.611000
H         -16.610000     18.864000      4.843000
C         -14.989000     18.783000      3.374000
H         -15.486000     19.363000      2.602000
C         -12.554000     23.960000      3.214000
C         -11.054000     22.892000      4.781000
C          -7.178000     24.484000      2.921000
C         -11.448000     22.634000     -1.513000
C          -6.619000     21.470000      1.151000
C         -12.266000     22.869000      4.061000
C          -8.667000     22.266000     -1.691000
C          -9.285000     25.560000      3.298000
C          -9.558000     19.599000      3.153000
C         -10.896000     21.290000     -1.529000
C         -11.576000     19.254000      2.070000
C          -9.268000     19.190000      1.864000
C          -9.234000     20.007000     -0.736000
C          -7.456000     22.293000     -0.935000
C         -11.390000     20.790000      4.055000
C          -6.807000     23.813000      0.810000
C         -12.737000     20.096000      1.499000
C         -12.587000     20.621000      0.076000
C          -6.350000     22.790000      1.640000
C         -10.259000     25.649000     -0.104000
C          -8.250000     25.709000      1.095000
C          -9.327000     26.068000      1.994000
C         -10.509000     25.131000      3.890000
C         -12.993000     21.998000      0.175000
C         -10.931000     19.716000      3.338000
C         -10.196000     24.038000      4.725000
C          -9.489000     21.108000     -1.604000
C         -10.516000     21.609000      4.766000
C          -8.123000     19.708000      1.246000
C         -12.297000     24.279000     -0.206000
C          -8.233000     24.769000      3.763000
C         -10.411000     19.023000      1.126000
C         -11.750000     25.523000      1.816000
C          -7.991000     20.062000     -0.106000
C          -8.630000     20.417000      3.910000
C          -8.361000     24.344000     -0.956000
C          -9.201000     23.546000     -1.712000
C          -7.436000     20.888000      3.337000
C         -12.473000     22.961000     -0.665000
C         -11.435000     20.315000     -0.699000
C         -11.129000     24.819000     -0.876000
C         -13.089000     21.309000      2.339000
C          -8.266000     22.579000      4.658000
C         -10.397000     19.581000     -0.164000
C          -7.256000     20.557000      1.999000
C         -12.592000     24.666000      1.151000
C          -6.618000     23.168000      2.958000
C         -11.713000     25.087000      3.142000
C          -7.226000     24.894000      1.589000
C          -9.120000     21.487000      4.678000
C          -7.158000     22.192000      3.816000
C         -12.521000     21.549000      3.617000
C         -13.304000     22.400000      1.503000
C          -8.876000     25.326000     -0.137000
C          -8.799000     23.868000      4.654000
C          -7.139000     21.180000     -0.110000
C         -10.592000     23.783000     -1.637000
C          -7.327000     23.546000     -0.479000
C         -13.151000     23.721000      1.967000
C         -10.496000     25.960000      1.252000
O          -6.241000     27.921000      1.242000
C          -5.960000     28.698000      2.454000
H          -6.755000     28.600000      3.205000
H          -5.852000     29.735000      2.114000
H          -4.983000     28.357000      2.817000
O          -4.582000     28.810000     -0.117000
C          -5.547000     28.057000      0.015000
C          -5.981000     27.030000     -1.075000
H          -6.892000     27.430000     -1.538000
H          -6.321000     26.106000     -0.592000
C          -4.920000     26.714000     -2.187000
H          -4.668000     27.684000     -2.634000
H          -4.014000     26.318000     -1.712000
C          -5.548000     25.702000     -3.188000
H          -6.086000     24.816000     -2.828000
H          -6.347000     26.304000     -3.639000
C          -4.468000     25.304000     -4.243000
C          -3.842000     26.410000     -5.045000
C          -2.768000     27.168000     -4.693000
H          -2.208000     26.805000     -3.837000
C          -2.288000     28.229000     -5.448000
H          -1.331000     28.696000     -5.234000
C          -2.936000     28.565000     -6.636000
H          -2.515000     29.324000     -7.289000
C          -4.052000     27.881000     -7.038000
H          -4.505000     28.153000     -7.987000
C          -4.475000     26.755000     -6.275000
H          -5.291000     26.185000     -6.709000
C          -3.392000     21.808000     -8.420000
C          -1.156000     22.253000     -7.521000
C          -0.596000     18.228000     -5.517000
C          -6.516000     20.175000     -4.713000
C          -1.490000     19.281000     -2.365000
C          -2.483000     22.694000     -7.870000
C          -4.938000     18.846000     -2.763000
C          -1.454000     18.729000     -7.788000
C          -1.463000     23.083000     -3.572000
C          -6.037000     20.809000     -3.564000
C          -3.541000     24.139000     -3.965000
C          -2.294000     22.654000     -2.549000
C          -4.420000     21.097000     -1.919000
C          -3.689000     18.398000     -2.444000
C          -1.798000     23.692000     -5.891000
C          -2.020000     17.477000     -3.889000
C          -4.654000     23.969000     -4.985000
C          -5.682000     22.922000     -4.709000
C          -1.058000     18.351000     -3.321000
C          -4.772000     17.983000     -6.721000
C          -2.650000     17.241000     -6.222000
C          -2.568000     17.951000     -7.455000
C          -1.642000     19.992000     -8.384000
C          -5.983000     22.241000     -5.917000
C          -2.137000     23.868000     -4.516000
C          -0.757000     20.929000     -7.786000
C          -5.316000     20.163000     -2.565000
C          -0.793000     22.825000     -6.298000
C          -2.068000     21.428000     -1.886000
C          -5.986000     20.000000     -6.896000
C          -0.475000     18.892000     -6.795000
C          -3.570000     23.210000     -2.752000
C          -4.057000     19.636000     -8.369000
C          -3.137000     20.674000     -1.530000
C          -0.409000     22.311000     -3.969000
C          -4.321000     17.348000     -4.402000
C          -5.386000     18.163000     -3.990000
C          -0.157000     21.089000     -3.380000
C          -6.457000     20.915000     -5.949000
C          -5.636000     22.167000     -3.481000
C          -5.786000     18.755000     -6.271000
C          -4.190000     23.507000     -6.356000
C           0.364000     20.905000     -5.535000
C          -4.673000     22.345000     -2.507000
C          -1.044000     20.640000     -2.355000
C          -5.103000     20.419000     -7.946000
C          -0.234000     18.833000     -4.294000
C          -3.010000     20.467000     -8.710000
C          -1.675000     17.360000     -5.257000
C          -0.052000     22.224000     -5.350000
C           0.256000     20.183000     -4.359000
C          -2.857000     23.602000     -6.803000
C          -5.128000     22.596000     -6.905000
C          -4.000000     17.319000     -5.759000
C           0.036000     20.248000     -6.809000
C          -2.829000     19.327000     -1.936000
C          -6.145000     18.824000     -4.939000
C          -3.287000     17.508000     -3.445000
C          -4.688000     21.706000     -7.928000
C          -3.881000     18.337000     -7.726000
$end

--------------------------------------------------------------

             Standard Nuclear Orientation (Angstroms)
    I     Atom           X                Y                Z
 ----------------------------------------------------------------
    1      O       4.1917038248    -7.6468204937     1.2021761189
    2      C       3.3840227272    -8.5667672100     0.5031322835
    3      H       3.7849226461    -9.5755906524     0.6619199318
    4      H       3.4849117842    -8.3875069299    -0.5739819863
    5      H       2.3493694711    -8.4853260564     0.8587528369
    6      O       6.1820216932    -8.5216272741     0.4498577824
    7      C       5.4905415912    -7.6617170876     1.0263564724
    8      C       6.0639789265    -6.4207118774     1.5792657693
    9      H       7.0873324876    -6.6417328106     1.9060137395
   10      H       5.4828024381    -6.1893383477     2.4811976843
   11      C       6.2798614714    -5.2043664842     0.6411225973
   12      H       7.1207408742    -5.4952465216    -0.0006029154
   13      H       5.4445743528    -5.0348713978    -0.0487852554
   14      C       6.5783378097    -3.9676557953     1.5273350704
   15      H       5.7226901858    -3.7439996321     2.1773581963
   16      H       7.3733278908    -4.2222792313     2.2395658454
   17      C       6.9773365739    -2.6711543069     0.7442610785
   18      C       8.3661783564    -2.7676908821     0.2447391142
   19      C       8.5831770850    -3.2099465357    -1.0950983717
   20      H       7.7078795786    -3.4650857805    -1.6856339261
   21      C       9.8699816366    -3.3049915010    -1.6020485670
   22      H      10.0658047142    -3.6339750284    -2.6184358755
   23      C      10.9936558367    -2.9585491011    -0.7557968575
   24      H      12.0094091553    -2.9705823495    -1.1404920572
   25      C      10.7309519025    -2.5267466303     0.5901040560
   26      H      11.5754950142    -2.1603530881     1.1665099069
   27      C       9.4017852279    -2.4160339869     1.1243667831
   28      H       9.2128481997    -2.0777695079     2.1388976804
   29      C       7.0627734581     2.7996486284     0.8383024596
   30      C       7.0717999902     2.2664911483    -1.5200390388
   31      C       2.8245817667     3.7612863309    -2.3826888654
   32      C       3.2138683742     0.5466465772     3.1698153616
   33      C       1.4800677426     0.4923482682    -2.1932080454
   34      C       7.4984984915     1.9630693000    -0.2109414217
   35      C       1.0558501915     0.4188611581     1.3732359979
   36      C       4.5553333656     4.6856239882    -1.0081151869
   37      C       5.1466626946    -1.1497568197    -2.1161474296
   38      C       2.9015859833    -0.7058239742     2.5026622860
   39      C       5.9588073651    -1.9257994881    -0.0907050555
   40      C       4.1095905247    -1.8111907136    -1.4837800376
   41      C       2.2944335981    -1.6076838738     0.5391968031
   42      C       0.6534346259     0.7342509693     0.0400529724
   43      C       7.0113977937     0.0320613376    -1.2709386666
   44      C       1.2036196575     2.6668472032    -1.2786563313
   45      C       6.3760453140    -1.3522405450     1.2803779591
   46      C       5.2784759423    -1.1527041170     2.3189253523
   47      C       1.4967636199     1.9086541525    -2.4115675878
   48      C       3.0179518364     3.9036935262     2.0830405494
   49      C       2.3125520580     4.4290981241    -0.0857478592
   50      C       3.6809345526     4.8771660146     0.0684452471
   51      C       5.8936402225     4.2860849139    -0.7217862068
   52      C       5.5344273289     0.1647591920     2.8381028914
   53      C       6.2817254285    -1.1272526233    -1.3135459400
   54      C       6.3029654997     3.4472587389    -1.7794565078
   55      C       1.8194136124    -0.7629964946     1.5839500010
   56      C       6.7656453688     1.0719989478    -2.1644113928
   57      C       2.8056191696    -1.3389780408    -1.6785796705
   58      C       4.5785323809     2.3556806151     3.1825824500
   59      C       4.1448169861     4.1268156608    -2.2196512182
   60      C       4.4846980202    -2.2515559067    -0.2410592872
   61      C       5.4106750407     4.0739771516     1.6692336447
   62      C       1.7824030442    -1.2907260402    -0.7187127499
   63      C       4.8912912073    -0.0950957392    -3.0783492840
   64      C       1.1464972014     2.6291783298     1.1319351067
   65      C       1.3354077163     1.6026448412     2.0399449163
   66      C       3.5844963296     0.3465566850    -3.3486015439
   67      C       4.5123396800     0.9571418693     3.3185563551
   68      C       3.9321615546    -1.5139486165     2.0390950803
   69      C       3.2211851303     2.8396089529     3.0148153340
   70      C       7.0963187140    -0.0199016846     1.1969969650
   71      C       4.9405618833     2.2051871701    -3.3476352617
   72      C       3.5738364054    -2.0029589277     0.8001854778
   73      C       2.5904806445    -0.2610956872    -2.5903823063
   74      C       5.6661889314     3.0107813009     2.4998751046
   75      C       2.5392027729     2.5487772206    -3.0863972478
   76      C       6.2975296664     3.9567203743     0.5970952577
   77      C       1.9440494161     3.8509202359    -1.3050727266
   78      C       5.6781688007     1.0689417119    -3.0525720580
   79      C       3.5891644458     1.7459559791    -3.5695106297
   80      C       7.5012117660     0.5583552167    -0.0339329975
   81      C       6.6135508300     0.8262483368     2.1901572297
   82      C       1.9929380341     3.7171277082     1.1173040943
   83      C       5.2299128817     3.4016553185    -2.6916124193
   84      C       1.0547786285    -0.1258417756    -1.0177969516
   85      C       2.4012031525     1.7146593567     2.9609269121
   86      C       0.7579015486     2.0645740225    -0.0779014091
   87      C       6.6999332952     2.2266042487     2.0665150450
   88      C       4.0679496035     4.4905419525     1.3449757735
   89      O       0.7349848429     6.8004024744    -1.0016252309
   90      C       1.2661204982     7.8561872439    -1.8704447957
   91      H       2.3636273311     7.8550810243    -1.9037243398
   92      H       0.8761148441     8.7941148625    -1.4571405832
   93      H       0.8072573818     7.7029461480    -2.8545895040
   94      O      -1.4728915187     7.5133128917    -0.9208557531
   95      C      -0.6059633145     6.7202731991    -0.5531853372
   96      C      -0.9220397111     5.4351853764     0.2713327035
   97      H      -0.5833815879     5.6292386467     1.2969759182
   98      H      -0.2737428578     4.6168141433    -0.0642931521
   99      C      -2.4231992490     4.9787821224     0.2896932946
  100      H      -2.9858702841     5.8413934699     0.6685283107
  101      H      -2.7505062526     4.7908501948    -0.7402721010
  102      C      -2.5371023472     3.7096887900     1.1824178871
  103      H      -1.8260533316     2.8809869266     1.0742397050
  104      H      -2.2902619760     4.1130462236     2.1726595808
  105      C      -4.0079583626     3.1886365150     1.1284168820
  106      C      -5.0953701620     4.1384880612     1.5451105569
  107      C      -5.7230016574     5.0570228754     0.7613271039
  108      H      -5.5429026799     4.9542302373    -0.3040850378
  109      C      -6.6669336011     5.9598253916     1.2304604564
  110      H      -7.2753182674     6.5536732189     0.5544820131
  111      C      -6.9994152490     5.9524148181     2.5845450317
  112      H      -7.8072861501     6.5800809240     2.9493886511
  113      C      -6.3796781571     5.0901425866     3.4490266890
  114      H      -6.6936731598     5.0939658671     4.4888278819
  115      C      -5.4675883960     4.1316967676     2.9213450807
  116      H      -5.1016167793     3.4016554413     3.6370380580
  117      C      -7.2936687786    -1.0448018674     2.5807348656
  118      C      -8.3981656517    -0.1926092839     0.5658461693
  119      C      -7.1595960322    -3.5825921951    -2.1735337166
  120      C      -2.3785057416    -2.0863700281     1.6193701657
  121      C      -4.4903380652    -1.9318550140    -3.5853685739
  122      C      -7.6776380333     0.0268221582     1.7946263748
  123      C      -2.1524506365    -2.7777516887    -1.1246625398
  124      C      -8.0670727973    -3.6968097636     0.1303860450
  125      C      -5.6193878735     1.4801830773    -1.8544657477
  126      C      -2.0248875515    -1.1643049089     0.6312668859
  127      C      -4.4190117984     2.2127969114     0.0455456334
  128      C      -4.2878941345     1.2167377822    -2.1352717292
  129      C      -2.1613972689    -0.3544825761    -1.5434080062
  130      C      -2.8342398720    -3.0183426293    -2.2821362707
  131      C      -6.9567294542     1.5103359761     0.1633239587
  132      C      -4.9595288010    -4.0778417995    -2.5692520601
  133      C      -4.2529211625     1.7082828817     1.4689038084
  134      C      -3.2197637390     0.6570249161     1.7068353705
  135      C      -5.3700397660    -3.0086188676    -3.4060238745
  136      C      -4.8295660509    -4.4982198074     1.3875340112
  137      C      -6.0179349601    -4.8982081873    -0.5438482999
  138      C      -6.9539734784    -4.4827792603     0.4472943230
  139      C      -8.4248191806    -2.6267914079     0.9746651716
  140      C      -3.7411604197    -0.3067665062     2.6084326174
  141      C      -5.8072506699     1.9608203675    -0.5524164533
  142      C      -8.7632499991    -1.4971557704     0.1820833730
  143      C      -1.8468408672    -1.4931950646    -0.7086169314
  144      C      -7.9041181524     0.6749810917    -0.4128703415
  145      C      -3.9170244491     0.2014909586    -3.0438148288
  146      C      -4.2058332690    -2.7011877211     2.7855122291
  147      C      -8.1507551606    -3.2181952392    -1.1868020202
  148      C      -3.5178883766     1.5857485271    -1.0174867754
  149      C      -6.5884515762    -3.2021705252     2.4766235241
  150      C      -2.8241225014    -0.5516343924    -2.7674445366
  151      C      -6.6043363636     0.7438986035    -2.4479896693
  152      C      -3.5764520731    -4.5423334784    -0.7129769606
  153      C      -2.5768662039    -3.7620368305    -0.1128442825
  154      C      -6.3021965373    -0.2817876885    -3.3199920522
  155      C      -3.3018508956    -1.6447818164     2.6348555560
  156      C      -2.3786554149     0.2092495922     0.6241724283
  157      C      -3.8392574057    -3.7460062122     1.9168198457
  158      C      -5.4695533433     0.9936897828     2.0324140920
  159      C      -8.1035336062    -0.8998282822    -2.1699778832
  160      C      -2.4642420572     0.6965272859    -0.6653873322
  161      C      -4.9260710569    -0.5695796369    -3.5698909449
  162      C      -5.5931163495    -2.4485386270     3.0488828609
  163      C      -6.6674850269    -2.6831230091    -3.1438841388
  164      C      -7.6612907933    -2.3731535202     2.2220693658
  165      C      -6.1136262446    -4.4689843530    -1.8486935313
  166      C      -7.7784199999     0.3800296369    -1.7190822745
  167      C      -7.1849522286    -1.3423681148    -3.1060819101
  168      C      -6.7657396555     1.1131342802     1.4926390867
  169      C      -5.0613053633    -0.1047387798     2.8311344933
  170      C      -4.7125432787    -4.8480293734     0.0361410490
  171      C      -8.6505335242    -1.8579921626    -1.1978554279
  172      C      -3.2130720272    -1.9193517771    -2.9958661250
  173      C      -2.6947038719    -3.4109182414     1.2199846715
  174      C      -3.7246912508    -4.0694891960    -2.0415282132
  175      C      -5.9946237481    -1.1572102098     3.0623263658
  176      C      -6.1876937625    -4.2975422057     1.5983410773
 ----------------------------------------------------------------

    9   -5804.2629016871      8.52E-06 Convergence criterion met
 Total energy in the final basis set = -5804.2629016871

                    Orbital Energies (a.u.)
 --------------------------------------------------------------

 Alpha MOs
 -- Occupied --
-19.203 -19.182 -19.140 -19.129 -10.326 -10.313 -10.249 -10.248
-10.247 -10.246 -10.244 -10.242 -10.238 -10.238 -10.236 -10.234
-10.230 -10.229 -10.228 -10.227 -10.227 -10.225 -10.225 -10.225
-10.224 -10.223 -10.222 -10.222 -10.222 -10.222 -10.222 -10.222
-10.221 -10.221 -10.221 -10.221 -10.221 -10.221 -10.221 -10.221
-10.221 -10.220 -10.220 -10.220 -10.220 -10.220 -10.220 -10.220
-10.219 -10.219 -10.219 -10.219 -10.219 -10.218 -10.218 -10.218
-10.218 -10.218 -10.218 -10.218 -10.218 -10.218 -10.217 -10.217
-10.217 -10.217 -10.217 -10.217 -10.216 -10.216 -10.216 -10.216
-10.216 -10.216 -10.216 -10.216 -10.216 -10.216 -10.215 -10.215
-10.215 -10.215 -10.215 -10.215 -10.215 -10.214 -10.214 -10.214
-10.214 -10.214 -10.214 -10.214 -10.214 -10.213 -10.213 -10.213
-10.213 -10.212 -10.212 -10.212 -10.212 -10.212 -10.212 -10.212
-10.212 -10.212 -10.212 -10.212 -10.211 -10.211 -10.211 -10.211
-10.211 -10.211 -10.211 -10.210 -10.210 -10.210 -10.210 -10.209
-10.209 -10.209 -10.209 -10.208 -10.208 -10.208 -10.208 -10.208
-10.208 -10.207 -10.207 -10.207 -10.207 -10.206 -10.206 -10.206
-10.205 -10.204 -10.204 -10.204 -10.203 -10.201 -10.199 -10.195
-10.194 -10.194 -10.193 -10.192  -1.118  -1.069  -1.002  -0.999
 -0.985  -0.982  -0.967  -0.966  -0.964  -0.963  -0.962  -0.958
 -0.933  -0.933  -0.932  -0.928  -0.927  -0.925  -0.924  -0.922
 -0.921  -0.918  -0.900  -0.893  -0.893  -0.891  -0.887  -0.883
 -0.875  -0.875  -0.856  -0.848  -0.845  -0.843  -0.842  -0.839
 -0.839  -0.832  -0.823  -0.822  -0.809  -0.803  -0.802  -0.798
 -0.798  -0.797  -0.796  -0.794  -0.791  -0.787  -0.784  -0.783
 -0.776  -0.773  -0.772  -0.768  -0.768  -0.766  -0.765  -0.763
 -0.753  -0.749  -0.747  -0.740  -0.736  -0.734  -0.720  -0.717
 -0.716  -0.716  -0.714  -0.713  -0.712  -0.712  -0.708  -0.707
 -0.707  -0.706  -0.705  -0.704  -0.702  -0.701  -0.675  -0.674
 -0.661  -0.660  -0.657  -0.655  -0.649  -0.646  -0.635  -0.631
 -0.630  -0.628  -0.626  -0.625  -0.623  -0.622  -0.620  -0.618
 -0.618  -0.616  -0.615  -0.614  -0.612  -0.611  -0.610  -0.609
 -0.607  -0.606  -0.605  -0.600  -0.575  -0.565  -0.565  -0.563
 -0.562  -0.561  -0.560  -0.559  -0.557  -0.555  -0.553  -0.550
 -0.537  -0.535  -0.534  -0.533  -0.530  -0.530  -0.529  -0.527
 -0.526  -0.522  -0.522  -0.520  -0.518  -0.517  -0.513  -0.511
 -0.509  -0.507  -0.502  -0.497  -0.495  -0.493  -0.492  -0.488
 -0.486  -0.485  -0.484  -0.482  -0.481  -0.480  -0.477  -0.476
 -0.475  -0.473  -0.471  -0.471  -0.469  -0.469  -0.467  -0.466
 -0.466  -0.465  -0.464  -0.463  -0.460  -0.459  -0.459  -0.458
 -0.457  -0.456  -0.456  -0.454  -0.453  -0.449  -0.448  -0.445
 -0.444  -0.442  -0.442  -0.440  -0.438  -0.437  -0.436  -0.434
 -0.432  -0.432  -0.430  -0.429  -0.428  -0.426  -0.425  -0.425
 -0.424  -0.423  -0.422  -0.421  -0.421  -0.420  -0.420  -0.419
 -0.418  -0.417  -0.416  -0.416  -0.415  -0.414  -0.414  -0.414
 -0.412  -0.411  -0.410  -0.407  -0.403  -0.400  -0.400  -0.398
 -0.396  -0.394  -0.392  -0.391  -0.391  -0.390  -0.388  -0.387
 -0.382  -0.378  -0.376  -0.373  -0.371  -0.369  -0.368  -0.367
 -0.364  -0.363  -0.363  -0.362  -0.361  -0.361  -0.360  -0.360
 -0.357  -0.357  -0.355  -0.354  -0.353  -0.353  -0.352  -0.352
 -0.351  -0.350  -0.349  -0.348  -0.347  -0.345  -0.345  -0.343
 -0.342  -0.341  -0.340  -0.339  -0.339  -0.337  -0.337  -0.334
 -0.334  -0.333  -0.331  -0.331  -0.330  -0.327  -0.326  -0.323
 -0.311  -0.310  -0.300  -0.293  -0.288  -0.286  -0.275  -0.273
 -0.272  -0.271  -0.270  -0.268  -0.267  -0.266  -0.264  -0.263
 -0.263  -0.261  -0.260  -0.259  -0.258  -0.257  -0.256  -0.255
 -0.249  -0.247  -0.244  -0.243  -0.226  -0.224  -0.217  -0.213
 -0.213  -0.208  -0.207  -0.203  -0.201  -0.197

          Ground-State Mulliken Net Atomic Charges

     Atom                 Charge (a.u.)
  ----------------------------------------
      1 O                    -0.420339
      2 C                    -0.093662
      3 H                     0.136488
      4 H                     0.127250
      5 H                     0.127201
      6 O                    -0.498657
      7 C                     0.578111
      8 C                    -0.244716
      9 H                     0.129113
     10 H                     0.114727
     11 C                    -0.186054
     12 H                     0.127691
     13 H                     0.106847
     14 C                    -0.176120
     15 H                     0.108542
     16 H                     0.112446
     17 C                     0.000785
     18 C                     0.082327
     19 C                    -0.088546
     20 H                     0.096473
     21 C                    -0.098399
     22 H                     0.096130
     23 C                    -0.085489
     24 H                     0.096401
     25 C                    -0.104725
     26 H                     0.089633
     27 C                    -0.095361
     28 H                     0.100409
     29 C                     0.005353
     30 C                    -0.006094
     31 C                    -0.009484
     32 C                    -0.002314
     33 C                    -0.009550
     34 C                    -0.018898
     35 C                     0.013558
     36 C                    -0.006482
     37 C                     0.009328
     38 C                    -0.018717
     39 C                    -0.110160
     40 C                     0.013191
     41 C                    -0.009451
     42 C                    -0.028470
     43 C                     0.017804
     44 C                     0.011142
     45 C                    -0.111328
     46 C                     0.008823
     47 C                    -0.018069
     48 C                    -0.009522
     49 C                     0.004641
     50 C                    -0.019910
     51 C                    -0.011931
     52 C                    -0.004550
     53 C                     0.035670
     54 C                     0.001343
     55 C                    -0.018537
     56 C                     0.011435
     57 C                     0.006189
     58 C                    -0.011334
     59 C                     0.034121
     60 C                     0.008518
     61 C                    -0.010473
     62 C                    -0.028479
     63 C                    -0.023347
     64 C                    -0.012925
     65 C                    -0.003493
     66 C                    -0.016172
     67 C                     0.004858
     68 C                    -0.004367
     69 C                    -0.028096
     70 C                     0.040079
     71 C                     0.008597
     72 C                     0.075049
     73 C                     0.013700
     74 C                     0.016506
     75 C                    -0.015817
     76 C                    -0.002977
     77 C                     0.024974
     78 C                     0.000200
     79 C                    -0.004283
     80 C                    -0.005171
     81 C                     0.026714
     82 C                     0.009638
     83 C                    -0.013534
     84 C                     0.022744
     85 C                     0.006958
     86 C                     0.022844
     87 C                    -0.009598
     88 C                     0.017635
     89 O                    -0.501684
     90 C                    -0.077196
     91 H                     0.132376
     92 H                     0.132587
     93 H                     0.130871
     94 O                    -0.464690
     95 C                     0.592691
     96 C                    -0.271640
     97 H                     0.131015
     98 H                     0.137055
     99 C                    -0.184127
    100 H                     0.141491
    101 H                     0.114322
    102 C                    -0.186192
    103 H                     0.117175
    104 H                     0.116594
    105 C                     0.018508
    106 C                     0.108340
    107 C                    -0.115688
    108 H                     0.087857
    109 C                    -0.086016
    110 H                     0.094641
    111 C                    -0.080841
    112 H                     0.087434
    113 C                    -0.082450
    114 H                     0.090538
    115 C                    -0.125957
    116 H                     0.089679
    117 C                     0.008652
    118 C                     0.010468
    119 C                     0.002100
    120 C                    -0.036618
    121 C                    -0.005113
    122 C                    -0.025746
    123 C                    -0.030752
    124 C                     0.009711
    125 C                     0.016419
    126 C                     0.045909
    127 C                    -0.088800
    128 C                     0.024680
    129 C                    -0.003118
    130 C                     0.018935
    131 C                    -0.007839
    132 C                     0.007991
    133 C                    -0.095669
    134 C                     0.001635
    135 C                    -0.022872
    136 C                     0.018590
    137 C                    -0.020731
    138 C                     0.015425
    139 C                    -0.014905
    140 C                     0.011078
    141 C                     0.034996
    142 C                    -0.002584
    143 C                     0.004683
    144 C                     0.046562
    145 C                     0.029484
    146 C                    -0.002283
    147 C                    -0.005703
    148 C                     0.010836
    149 C                    -0.004701
    150 C                    -0.032535
    151 C                    -0.012072
    152 C                    -0.006277
    153 C                    -0.013537
    154 C                    -0.016270
    155 C                    -0.030572
    156 C                    -0.001369
    157 C                     0.025785
    158 C                     0.031146
    159 C                    -0.012061
    160 C                     0.003931
    161 C                    -0.011007
    162 C                     0.004274
    163 C                     0.024401
    164 C                    -0.023243
    165 C                    -0.014592
    166 C                    -0.013550
    167 C                     0.011944
    168 C                    -0.024590
    169 C                     0.032703
    170 C                    -0.003040
    171 C                    -0.024732
    172 C                     0.007626
    173 C                     0.000599
    174 C                     0.004602
    175 C                    -0.002382
    176 C                    -0.009178
  ----------------------------------------
  Sum of atomic charges =     0.000000

                    Cartesian Multipole Moments
 -----------------------------------------------------------------
    Charge (ESU x 10^10)
                 0.0000
    Dipole Moment (Debye)
         X       2.3599      Y       1.5475      Z       1.1433
       Tot       3.0448
    Quadrupole Moments (Debye-Ang)
        XX    -805.9040     XY       8.5184     YY    -820.5460
        XZ      -5.6905     YZ       0.6451     ZZ    -800.8544

 Total job time:  850.41s(wall), 7172.23s(cpu)
        *  Thank you very much for using Q-Chem.  Have a nice day.  *
