 Q-Chem 4.4, Q-Chem, Inc., Pleasanton, CA (2016)
 Q-Chem 4.4.2 for Intel X86 Linux

User input:
--------------------------------------------------------------
$comment
SP
$end

$rem
MEM_STATIC 5000
MEM_TOTAL 20000
JOBTYPE SP
EXCHANGE B3LYP
BASIS 6-31g(d,p)
$end

$molecule
0 1
O          -9.211000     32.907000    -14.624000
C          -8.194000     33.558000    -15.409000
H          -7.176000     33.270000    -15.117000
H          -8.327000     34.647000    -15.403000
H          -8.390000     33.322000    -16.462000
O          -8.796000     34.085000    -12.661000
C          -9.373000     33.268000    -13.307000
C         -10.509000     32.453000    -12.632000
H         -11.434000     32.728000    -13.155000
H         -10.614000     32.930000    -11.650000
C         -10.315000     30.911000    -12.706000
H         -10.194000     30.608000    -13.754000
H          -9.440000     30.632000    -12.106000
C         -11.510000     30.319000    -12.010000
H         -11.488000     30.678000    -10.974000
H         -12.439000     30.557000    -12.542000
C         -11.375000     28.741000    -11.828000
C         -11.465000     27.985000    -13.151000
C         -10.346000     27.828000    -13.965000
H          -9.383000     28.245000    -13.686000
C         -10.417000     27.229000    -15.226000
H          -9.586000     27.171000    -15.922000
C         -11.600000     26.600000    -15.651000
H         -11.669000     25.980000    -16.540000
C         -12.754000     26.723000    -14.776000
H         -13.689000     26.294000    -15.125000
C         -12.714000     27.481000    -13.605000
H         -13.547000     27.577000    -12.915000
C         -13.062000     24.144000     -9.300000
C         -10.711000     23.794000     -9.711000
C          -9.292000     23.898000     -5.525000
C         -13.562000     28.467000     -6.736000
C          -8.100000     27.176000     -5.830000
C         -11.917000     24.343000    -10.097000
C         -11.340000     28.813000     -5.071000
C         -11.293000     22.954000     -6.448000
C          -8.577000     27.165000     -9.819000
C         -12.484000     29.284000     -7.111000
C         -10.528000     28.249000    -10.728000
C          -8.766000     28.324000     -9.126000
C         -10.256000     29.620000     -7.160000
C         -10.119000     28.149000     -4.726000
C         -10.216000     25.699000    -10.814000
C          -9.548000     25.822000     -4.353000
C         -11.999000     28.020000    -10.623000
C         -12.778000     28.583000     -9.446000
C          -8.454000     25.961000     -5.195000
C         -13.527000     25.319000     -5.153000
C         -11.507000     24.411000     -4.566000
C         -12.153000     23.537000     -5.487000
C         -11.726000     22.893000     -7.723000
C         -13.757000     27.623000     -8.975000
C          -9.633000     27.000000    -10.727000
C         -10.632000     22.949000     -8.588000
C         -11.377000     29.500000     -6.313000
C          -9.650000     24.594000    -10.118000
C          -8.323000     28.360000     -7.802000
C         -14.456000     26.376000     -7.101000
C          -9.887000     23.022000     -6.408000
C          -9.916000     29.017000     -9.538000
C         -13.748000     24.058000     -7.185000
C          -9.076000     28.978000     -6.840000
C          -8.050000     26.012000     -9.214000
C         -11.818000     26.776000     -4.142000
C         -12.387000     27.902000     -4.729000
C          -7.580000     26.061000     -7.884000
C         -14.135000     27.621000     -7.670000
C         -12.100000     29.277000     -8.420000
C         -14.069000     26.475000     -5.740000
C         -12.462000     26.630000    -10.592000
C          -8.425000     23.955000     -8.161000
C         -10.719000     29.557000     -8.506000
C          -7.693000     27.229000     -7.179000
C         -14.303000     25.190000     -7.817000
C          -8.234000     24.747000     -5.880000
C         -12.973000     23.392000     -8.112000
C         -10.095000     24.577000     -4.587000
C          -8.491000     24.711000     -9.333000
C          -7.777000     24.809000     -7.250000
C         -11.615000     25.536000    -10.809000
C         -13.547000     26.487000     -9.735000
C         -12.392000     25.490000     -4.326000
C          -9.468000     23.066000     -7.759000
C          -8.972000     28.286000     -5.609000
C         -13.514000     27.765000     -5.562000
C         -10.418000     26.889000     -4.176000
C         -13.846000     25.239000     -9.173000
C         -13.381000     24.124000     -5.802000
O          -6.241000     27.921000      1.242000
C          -5.960000     28.698000      2.454000
H          -6.755000     28.600000      3.205000
H          -5.852000     29.735000      2.114000
H          -4.983000     28.357000      2.817000
O          -4.582000     28.810000     -0.117000
C          -5.547000     28.057000      0.015000
C          -5.981000     27.030000     -1.075000
H          -6.892000     27.430000     -1.538000
H          -6.321000     26.106000     -0.592000
C          -4.920000     26.714000     -2.187000
H          -4.668000     27.684000     -2.634000
H          -4.014000     26.318000     -1.712000
C          -5.548000     25.702000     -3.188000
H          -6.086000     24.816000     -2.828000
H          -6.347000     26.304000     -3.639000
C          -4.468000     25.304000     -4.243000
C          -3.842000     26.410000     -5.045000
C          -2.768000     27.168000     -4.693000
H          -2.208000     26.805000     -3.837000
C          -2.288000     28.229000     -5.448000
H          -1.331000     28.696000     -5.234000
C          -2.936000     28.565000     -6.636000
H          -2.515000     29.324000     -7.289000
C          -4.052000     27.881000     -7.038000
H          -4.505000     28.153000     -7.987000
C          -4.475000     26.755000     -6.275000
H          -5.291000     26.185000     -6.709000
C          -3.392000     21.808000     -8.420000
C          -1.156000     22.253000     -7.521000
C          -0.596000     18.228000     -5.517000
C          -6.516000     20.175000     -4.713000
C          -1.490000     19.281000     -2.365000
C          -2.483000     22.694000     -7.870000
C          -4.938000     18.846000     -2.763000
C          -1.454000     18.729000     -7.788000
C          -1.463000     23.083000     -3.572000
C          -6.037000     20.809000     -3.564000
C          -3.541000     24.139000     -3.965000
C          -2.294000     22.654000     -2.549000
C          -4.420000     21.097000     -1.919000
C          -3.689000     18.398000     -2.444000
C          -1.798000     23.692000     -5.891000
C          -2.020000     17.477000     -3.889000
C          -4.654000     23.969000     -4.985000
C          -5.682000     22.922000     -4.709000
C          -1.058000     18.351000     -3.321000
C          -4.772000     17.983000     -6.721000
C          -2.650000     17.241000     -6.222000
C          -2.568000     17.951000     -7.455000
C          -1.642000     19.992000     -8.384000
C          -5.983000     22.241000     -5.917000
C          -2.137000     23.868000     -4.516000
C          -0.757000     20.929000     -7.786000
C          -5.316000     20.163000     -2.565000
C          -0.793000     22.825000     -6.298000
C          -2.068000     21.428000     -1.886000
C          -5.986000     20.000000     -6.896000
C          -0.475000     18.892000     -6.795000
C          -3.570000     23.210000     -2.752000
C          -4.057000     19.636000     -8.369000
C          -3.137000     20.674000     -1.530000
C          -0.409000     22.311000     -3.969000
C          -4.321000     17.348000     -4.402000
C          -5.386000     18.163000     -3.990000
C          -0.157000     21.089000     -3.380000
C          -6.457000     20.915000     -5.949000
C          -5.636000     22.167000     -3.481000
C          -5.786000     18.755000     -6.271000
C          -4.190000     23.507000     -6.356000
C           0.364000     20.905000     -5.535000
C          -4.673000     22.345000     -2.507000
C          -1.044000     20.640000     -2.355000
C          -5.103000     20.419000     -7.946000
C          -0.234000     18.833000     -4.294000
C          -3.010000     20.467000     -8.710000
C          -1.675000     17.360000     -5.257000
C          -0.052000     22.224000     -5.350000
C           0.256000     20.183000     -4.359000
C          -2.857000     23.602000     -6.803000
C          -5.128000     22.596000     -6.905000
C          -4.000000     17.319000     -5.759000
C           0.036000     20.248000     -6.809000
C          -2.829000     19.327000     -1.936000
C          -6.145000     18.824000     -4.939000
C          -3.287000     17.508000     -3.445000
C          -4.688000     21.706000     -7.928000
C          -3.881000     18.337000     -7.726000
$end

--------------------------------------------------------------

             Standard Nuclear Orientation (Angstroms)
    I     Atom           X                Y                Z
 ----------------------------------------------------------------
    1      O      -9.8397435128    -2.7887932209    -5.5699014661
    2      C      -9.8983342972    -3.3604313996    -6.8905497586
    3      H      -8.9172433070    -3.4132045081    -7.3796381637
    4      H     -10.6368544323    -2.8407290495    -7.5135613777
    5      H     -10.3535952929    -4.3540413706    -6.7989110584
    6      O      -9.4000972101    -0.6123433314    -6.2649230535
    7      C      -9.5814907309    -1.4450226085    -5.4333729275
    8      C      -9.5527276354    -1.0227571350    -3.9396492066
    9      H     -10.5661600506    -1.1943056853    -3.5545455391
   10      H      -9.4741340313     0.0701657532    -3.9867725101
   11      C      -8.5321911060    -1.8169644373    -3.0744232516
   12      H      -8.7335480167    -2.8919769965    -3.1669294245
   13      H      -7.5156655582    -1.5710701758    -3.4055996742
   14      C      -8.6671102662    -1.2654066161    -1.6814100464
   15      H      -8.4091792623    -0.2007036205    -1.7318097338
   16      H      -9.6650271382    -1.4608174218    -1.2706966018
   17      C      -7.5511264469    -1.8414719581    -0.6994926177
   18      C      -7.7435649301    -3.3244703617    -0.3934727406
   19      C      -7.2628449084    -4.3037744412    -1.2590810704
   20      H      -6.7465726889    -4.0403286201    -2.1773175838
   21      C      -7.5092329986    -5.6650368750    -1.0585305897
   22      H      -7.2278197505    -6.4459464610    -1.7580502836
   23      C      -8.1099058338    -6.1133061819     0.1305874758
   24      H      -8.1778060027    -7.1588364857     0.4164859735
   25      C      -8.5666278307    -5.0898178170     1.0559774392
   26      H      -9.0879927409    -5.4248433737     1.9481677254
   27      C      -8.4760000125    -3.7301757518     0.7550371578
   28      H      -8.7841680262    -2.9370284423     1.4296887870
   29      C      -4.8045316391    -1.4066756512     4.0582727331
   30      C      -3.2077138399    -2.3362749140     2.5075825233
   31      C      -0.4711586977     1.1252724782     2.2320310678
   32      C      -6.5937947465     2.8745086613     2.0626717172
   33      C      -1.7744364612     2.1278111352    -0.8591752197
   34      C      -4.5122177992    -2.2151029224     2.9416559832
   35      C      -4.5816182476     4.0982159997     0.5517411803
   36      C      -1.6493298275     0.2424884167     4.1240329414
   37      C      -3.8509033825    -1.2844959489    -1.2883797026
   38      C      -6.5297433252     2.7258542731     0.6683986850
   39      C      -6.2044802600    -1.2491611590    -0.7714993157
   40      C      -4.3648046730    -0.1221841115    -1.7825331770
   41      C      -5.2658424675     2.4440025467    -1.1761595891
   42      C      -3.2163461710     3.8866688715     0.1748566233
   43      C      -4.5066151614    -2.5291615002     0.6728320984
   44      C      -1.2761728540     3.0635376031     1.3741403323
   45      C      -7.0025197321    -1.0027251382     0.4653148533
   46      C      -7.3389803567     0.4177703421     0.8873644223
   47      C      -1.0018564460     2.1976076370     0.3253139396
   48      C      -3.9841655478     2.8339758771     4.4302043017
   49      C      -1.8324341444     2.5841270474     3.6838394244
   50      C      -2.1473864571     1.4971697741     4.5491497311
   51      C      -2.4658090662    -0.8249389226     4.2279344721
   52      C      -7.2088222788     0.5685934869     2.3233982846
   53      C      -4.8584807597    -1.9684549682    -0.5928131069
   54      C      -2.1519428291    -1.7484303083     3.2295113926
   55      C      -5.5673483924     3.3276096018    -0.1193801658
   56      C      -3.1589796232    -2.5176213175     1.1305899823
   57      C      -3.5049969237     0.9750975509    -1.8675307514
   58      C      -6.0991783199     1.7687306496     4.0215876366
   59      C      -0.7340663977     0.0617298151     3.0691968489
   60      C      -5.7297087773     0.0313630666    -1.4893556709
   61      C      -4.2751447971     0.5257051562     5.0261936940
   62      C      -3.9521721658     2.2276849888    -1.5428216302
   63      C      -2.5407964532    -1.3674063512    -0.7884710120
   64      C      -3.2692684343     4.0763156860     2.4274150176
   65      C      -4.5832656508     4.1701630790     1.9792967498
   66      C      -1.6681038862    -0.2637431516    -0.9004362977
   67      C      -6.8825557633     1.7760076877     2.8540715442
   68      C      -6.8483834166     1.5098288520     0.1385527949
   69      C      -5.2981169732     2.9366209616     3.9426956984
   70      C      -6.4650485418    -1.5213363854     1.7261071018
   71      C      -1.0928693953    -1.3078618071     1.0501819412
   72      C      -6.1325545507     1.3187961166    -1.0631345724
   73      C      -2.1313690174     0.8998087555    -1.4532024124
   74      C      -5.6033014976     0.5804232523     4.5551536650
   75      C      -0.4307775603     1.0120584559     0.8349834849
   76      C      -3.7690471050    -0.7217562712     4.7241752955
   77      C      -0.9988642975     2.3931311257     2.5478716132
   78      C      -2.1083226957    -1.9810061291     0.3681208615
   79      C      -0.7690244235    -0.2390265454     0.1946957534
   80      C      -5.3403850102    -2.3530934208     1.7942699570
   81      C      -6.7243263631    -0.6456607070     2.7740050537
   82      C      -2.9632956928     3.4359077215     3.6576126930
   83      C      -1.0784835822    -1.1741851284     2.4720460676
   84      C      -2.9235999022     2.9746665676    -0.9190439297
   85      C      -5.6218203013     3.5769122330     2.7224284149
   86      C      -2.4177059651     3.8521430883     1.3326488291
   87      C      -5.9275665324    -0.6642727436     3.9262100547
   88      C      -3.4579276796     1.7014710448     4.9879215337
   89      O       2.1484973146     8.3269972104    -1.3116932808
   90      C       2.4067140327     9.6888486606    -1.7916086423
   91      H       2.2671166183    10.4412252064    -1.0041620757
   92      H       1.7071104755     9.8400584460    -2.6224657080
   93      H       3.4236057095     9.6814938903    -2.2020428332
   94      O       2.1218291225     7.2478398230    -3.3669769937
   95      C       1.9873442528     7.1928924721    -2.1444580334
   96      C       1.8307683517     5.8518749520    -1.3644958561
   97      H       0.7783358213     5.7867564045    -1.0604640426
   98      H       2.3711098216     5.9174370527    -0.4124466415
   99      C       2.2362031835     4.5502344418    -2.1413327626
  100      H       1.6255020776     4.5523475305    -3.0530633665
  101      H       3.2882113164     4.6285350864    -2.4420400908
  102      C       1.9805467426     3.3278725585    -1.2134317923
  103      H       2.3115705763     3.3376338090    -0.1673113692
  104      H       0.8871496957     3.3447275195    -1.1217540518
  105      C       2.4730039858     2.0358030098    -1.9386015274
  106      C       1.8733664525     1.7230242815    -3.2805852440
  107      C       2.2917187134     2.1846918553    -4.4904564922
  108      H       3.2616043977     2.6719496561    -4.4878884541
  109      C       1.6423988943     1.9183395723    -5.6877811073
  110      H       2.0959562569     2.1485027025    -6.6474918202
  111      C       0.4830850130     1.1437807516    -5.6738542327
  112      H       0.0204427490     0.8408318796    -6.6086885049
  113      C      -0.0297493461     0.6790914737    -4.4923379208
  114      H      -0.9148529560     0.0506500330    -4.5303767878
  115      C       0.7000903518     0.9131393285    -3.2917007496
  116      H       0.3050098186     0.4192779626    -2.4090205564
  117      C       3.4376244426    -3.3849678347    -1.2231493445
  118      C       5.0609563005    -2.7894257601    -2.9598258592
  119      C       8.7326058445    -2.9490686326    -0.3095910057
  120      C       3.9710913729    -0.3297428925     2.8448879693
  121      C       8.8995785392     0.4409838140     0.2585758081
  122      C       3.7567730998    -2.6633736427    -2.3594692628
  123      C       6.6830587918     0.5008287579     2.9640871816
  124      C       6.8551783915    -4.5601864659    -0.4650628221
  125      C       6.1058583780     1.0946587939    -2.5128171056
  126      C       4.4192447450     0.8777774324     2.3039154932
  127      C       3.9125792110     1.5911995825    -1.7843648143
  128      C       6.2608692738     1.9421029994    -1.4270266374
  129      C       6.0535689720     2.1638633851     1.2653466495
  130      C       7.9261097536     0.3590365190     2.4189401673
  131      C       4.4915218993    -0.6014251042    -3.1277025778
  132      C       8.9524331501    -1.6134481730     1.5370153259
  133      C       2.8204092670     0.8169598948    -1.0661818855
  134      C       2.8837204784     0.7664811153     0.4246610249
  135      C       9.3221041329    -0.8908028140     0.3737995034
  136      C       5.5598477586    -3.3813017803     2.6392049578
  137      C       7.6412686926    -3.6511748599     1.6919434223
  138      C       6.7251565793    -4.4243893012     0.9212352910
  139      C       5.7093869864    -4.4792068466    -1.2813552681
  140      C       2.5564129412    -0.5450682020     0.8563254367
  141      C       4.7681441426     0.7406918060    -2.7293003517
  142      C       6.0032002499    -3.6883981361    -2.4246371010
  143      C       5.7293823559     1.3343287415     2.4051989701
  144      C       5.5015775335    -1.5247752733    -3.3613156787
  145      C       7.4394944283     1.9297847595    -0.6495872467
  146      C       3.4638776469    -2.4120023941     2.1492274168
  147      C       7.8501712160    -3.7892462336    -1.0869144422
  148      C       4.9864154422     2.2388524573    -0.9110535855
  149      C       4.3176304722    -4.2033541848     0.7051253169
  150      C       7.3353005996     2.0886470323     0.6927686764
  151      C       7.0961244156     0.2143168534    -2.8427871686
  152      C       7.2671743259    -1.7172754674     3.1873285048
  153      C       6.2504421801    -0.8024853179     3.4997524569
  154      C       8.2569670286     0.1344848636    -2.1013154691
  155      C       3.0203299309    -1.0880214745     2.0703924738
  156      C       3.9100018197     1.4925899626     1.1315114691
  157      C       4.6197231728    -2.4615880698     2.9506089620
  158      C       2.8003179639    -0.6725517832    -1.3650669817
  159      C       7.7615260962    -1.9257521587    -2.7790201941
  160      C       4.8769248957     2.2564718224     0.5075937907
  161      C       8.3874725710     0.9844745669    -0.9613677476
  162      C       3.3376156003    -3.2966996541     1.0271228523
  163      C       9.1527895420    -1.6693598342    -0.7321889845
  164      C       4.3676479758    -4.3105062156    -0.6693082725
  165      C       8.6475651658    -2.9238816342     1.0966090861
  166      C       6.7755406665    -1.0960667126    -3.3142741460
  167      C       8.6422593385    -1.2032758874    -1.9927244525
  168      C       3.4352406325    -1.2545337949    -2.4803665571
  169      C       2.4772357156    -1.3994629723    -0.1910209928
  170      C       6.8984356471    -2.9741877068     2.7082310101
  171      C       7.3726232786    -3.2795046300    -2.3566248285
  172      C       8.1682159745     1.0718560286     1.2814086624
  173      C       4.9280784192    -1.2018540546     3.4258491677
  174      C       8.2847428162    -0.9888333965     2.5205965370
  175      C       2.8514956375    -2.7732464002    -0.1211811461
  176      C       5.4977737633    -4.2573347985     1.5631310895
 ----------------------------------------------------------------

    9   -5804.2660218785      9.48E-06 Convergence criterion met
 Total energy in the final basis set = -5804.2660218785

                    Orbital Energies (a.u.)
 --------------------------------------------------------------

 Alpha MOs
 -- Occupied --
-19.200 -19.179 -19.142 -19.138 -10.323 -10.319 -10.251 -10.247
-10.246 -10.244 -10.244 -10.241 -10.240 -10.236 -10.234 -10.232
-10.232 -10.230 -10.226 -10.226 -10.225 -10.225 -10.224 -10.224
-10.224 -10.223 -10.223 -10.223 -10.223 -10.222 -10.222 -10.222
-10.221 -10.221 -10.220 -10.220 -10.220 -10.219 -10.219 -10.219
-10.219 -10.219 -10.219 -10.218 -10.218 -10.218 -10.218 -10.218
-10.218 -10.218 -10.218 -10.218 -10.217 -10.217 -10.217 -10.217
-10.217 -10.217 -10.217 -10.217 -10.216 -10.216 -10.216 -10.216
-10.216 -10.216 -10.215 -10.215 -10.215 -10.215 -10.215 -10.215
-10.215 -10.215 -10.215 -10.214 -10.214 -10.214 -10.214 -10.214
-10.214 -10.214 -10.214 -10.214 -10.213 -10.213 -10.213 -10.213
-10.212 -10.212 -10.212 -10.212 -10.212 -10.212 -10.211 -10.211
-10.211 -10.211 -10.211 -10.211 -10.211 -10.210 -10.210 -10.210
-10.210 -10.210 -10.210 -10.210 -10.210 -10.210 -10.210 -10.210
-10.209 -10.209 -10.209 -10.209 -10.209 -10.208 -10.208 -10.208
-10.208 -10.208 -10.207 -10.207 -10.207 -10.206 -10.206 -10.206
-10.206 -10.206 -10.205 -10.204 -10.204 -10.203 -10.203 -10.203
-10.203 -10.203 -10.203 -10.202 -10.201 -10.201 -10.200 -10.194
-10.191 -10.190 -10.189 -10.188  -1.098  -1.066  -1.030  -0.996
 -0.987  -0.980  -0.969  -0.968  -0.965  -0.962  -0.961  -0.956
 -0.939  -0.931  -0.930  -0.930  -0.928  -0.925  -0.925  -0.922
 -0.919  -0.916  -0.899  -0.894  -0.891  -0.891  -0.889  -0.881
 -0.880  -0.873  -0.855  -0.853  -0.847  -0.843  -0.841  -0.839
 -0.836  -0.830  -0.824  -0.821  -0.812  -0.801  -0.800  -0.800
 -0.798  -0.796  -0.795  -0.794  -0.789  -0.789  -0.784  -0.780
 -0.775  -0.772  -0.771  -0.769  -0.766  -0.763  -0.762  -0.760
 -0.753  -0.745  -0.744  -0.738  -0.737  -0.731  -0.721  -0.718
 -0.716  -0.714  -0.714  -0.713  -0.710  -0.710  -0.709  -0.708
 -0.706  -0.705  -0.704  -0.703  -0.700  -0.699  -0.678  -0.673
 -0.664  -0.661  -0.655  -0.653  -0.649  -0.644  -0.636  -0.629
 -0.628  -0.625  -0.625  -0.624  -0.620  -0.620  -0.619  -0.618
 -0.617  -0.616  -0.615  -0.613  -0.612  -0.612  -0.609  -0.609
 -0.606  -0.604  -0.603  -0.598  -0.572  -0.567  -0.566  -0.563
 -0.562  -0.561  -0.559  -0.558  -0.556  -0.552  -0.551  -0.548
 -0.539  -0.538  -0.532  -0.531  -0.528  -0.527  -0.527  -0.525
 -0.524  -0.521  -0.520  -0.520  -0.518  -0.518  -0.511  -0.510
 -0.509  -0.504  -0.500  -0.497  -0.493  -0.489  -0.488  -0.488
 -0.487  -0.485  -0.483  -0.482  -0.482  -0.478  -0.476  -0.475
 -0.474  -0.472  -0.472  -0.471  -0.469  -0.468  -0.467  -0.466
 -0.464  -0.464  -0.464  -0.462  -0.461  -0.460  -0.458  -0.458
 -0.456  -0.455  -0.453  -0.452  -0.452  -0.450  -0.447  -0.446
 -0.443  -0.442  -0.440  -0.439  -0.436  -0.434  -0.433  -0.431
 -0.431  -0.430  -0.429  -0.428  -0.427  -0.426  -0.426  -0.424
 -0.424  -0.422  -0.422  -0.422  -0.421  -0.419  -0.419  -0.419
 -0.417  -0.417  -0.416  -0.415  -0.415  -0.414  -0.414  -0.412
 -0.412  -0.410  -0.409  -0.406  -0.402  -0.399  -0.399  -0.398
 -0.398  -0.396  -0.392  -0.390  -0.388  -0.388  -0.386  -0.384
 -0.380  -0.379  -0.375  -0.373  -0.372  -0.369  -0.368  -0.367
 -0.365  -0.364  -0.362  -0.361  -0.361  -0.361  -0.360  -0.359
 -0.358  -0.357  -0.356  -0.355  -0.352  -0.351  -0.351  -0.350
 -0.350  -0.349  -0.348  -0.348  -0.347  -0.345  -0.344  -0.343
 -0.343  -0.340  -0.339  -0.339  -0.337  -0.337  -0.336  -0.335
 -0.333  -0.331  -0.331  -0.330  -0.328  -0.328  -0.325  -0.321
 -0.320  -0.310  -0.307  -0.291  -0.289  -0.285  -0.273  -0.273
 -0.271  -0.270  -0.269  -0.267  -0.267  -0.266  -0.265  -0.264
 -0.263  -0.261  -0.259  -0.258  -0.258  -0.255  -0.254  -0.252
 -0.251  -0.250  -0.243  -0.241  -0.223  -0.222  -0.215  -0.213
 -0.211  -0.208  -0.206  -0.204  -0.200  -0.195

          Ground-State Mulliken Net Atomic Charges

     Atom                 Charge (a.u.)
  ----------------------------------------
      1 O                    -0.468080
      2 C                    -0.090191
      3 H                     0.129842
      4 H                     0.129335
      5 H                     0.124260
      6 O                    -0.442441
      7 C                     0.582715
      8 C                    -0.256106
      9 H                     0.120879
     10 H                     0.132456
     11 C                    -0.183630
     12 H                     0.132052
     13 H                     0.109888
     14 C                    -0.164900
     15 H                     0.111117
     16 H                     0.112649
     17 C                    -0.008138
     18 C                     0.082602
     19 C                    -0.104732
     20 H                     0.090113
     21 C                    -0.092486
     22 H                     0.092094
     23 C                    -0.085316
     24 H                     0.097624
     25 C                    -0.100545
     26 H                     0.090328
     27 C                    -0.097171
     28 H                     0.093476
     29 C                    -0.005060
     30 C                     0.024701
     31 C                     0.019793
     32 C                    -0.002583
     33 C                     0.004186
     34 C                    -0.001569
     35 C                    -0.029545
     36 C                     0.031826
     37 C                     0.019764
     38 C                     0.026199
     39 C                    -0.078514
     40 C                     0.026632
     41 C                    -0.019905
     42 C                    -0.016485
     43 C                     0.001070
     44 C                    -0.002155
     45 C                    -0.088983
     46 C                    -0.013454
     47 C                    -0.007191
     48 C                     0.022757
     49 C                    -0.006400
     50 C                    -0.019774
     51 C                     0.022111
     52 C                    -0.013035
     53 C                     0.006290
     54 C                    -0.033990
     55 C                     0.001967
     56 C                    -0.010479
     57 C                    -0.004545
     58 C                    -0.016589
     59 C                    -0.013052
     60 C                     0.013800
     61 C                    -0.007138
     62 C                     0.023733
     63 C                     0.023192
     64 C                     0.008817
     65 C                     0.003038
     66 C                    -0.017793
     67 C                     0.020164
     68 C                     0.024844
     69 C                    -0.010192
     70 C                     0.043740
     71 C                     0.026792
     72 C                    -0.019586
     73 C                    -0.006890
     74 C                    -0.002884
     75 C                    -0.008666
     76 C                    -0.000544
     77 C                     0.011090
     78 C                    -0.024327
     79 C                    -0.014819
     80 C                    -0.012741
     81 C                     0.037969
     82 C                    -0.025869
     83 C                    -0.008790
     84 C                    -0.020340
     85 C                     0.002327
     86 C                     0.018731
     87 C                    -0.015562
     88 C                     0.001861
     89 O                    -0.504736
     90 C                    -0.074296
     91 H                     0.131221
     92 H                     0.131907
     93 H                     0.129839
     94 O                    -0.463694
     95 C                     0.590045
     96 C                    -0.269729
     97 H                     0.134106
     98 H                     0.132807
     99 C                    -0.182559
    100 H                     0.142968
    101 H                     0.114039
    102 C                    -0.189646
    103 H                     0.111243
    104 H                     0.122065
    105 C                     0.019286
    106 C                     0.106941
    107 C                    -0.120227
    108 H                     0.086497
    109 C                    -0.085124
    110 H                     0.093129
    111 C                    -0.082201
    112 H                     0.085957
    113 C                    -0.086114
    114 H                     0.087894
    115 C                    -0.117607
    116 H                     0.086971
    117 C                     0.008089
    118 C                     0.010196
    119 C                     0.003106
    120 C                    -0.031654
    121 C                    -0.004828
    122 C                    -0.026348
    123 C                    -0.019537
    124 C                     0.008777
    125 C                     0.016358
    126 C                     0.035215
    127 C                    -0.091425
    128 C                     0.024269
    129 C                    -0.013297
    130 C                     0.019032
    131 C                    -0.008087
    132 C                     0.008783
    133 C                    -0.090651
    134 C                     0.017562
    135 C                    -0.023165
    136 C                     0.019518
    137 C                    -0.020135
    138 C                     0.015647
    139 C                    -0.015388
    140 C                     0.011513
    141 C                     0.035948
    142 C                    -0.002500
    143 C                    -0.002025
    144 C                     0.046048
    145 C                     0.028370
    146 C                    -0.001431
    147 C                    -0.005840
    148 C                     0.022186
    149 C                    -0.003961
    150 C                    -0.025991
    151 C                    -0.011968
    152 C                    -0.005100
    153 C                    -0.013548
    154 C                    -0.016485
    155 C                    -0.034536
    156 C                    -0.008782
    157 C                     0.026068
    158 C                     0.028879
    159 C                    -0.012249
    160 C                    -0.013328
    161 C                    -0.011597
    162 C                     0.004156
    163 C                     0.023567
    164 C                    -0.023991
    165 C                    -0.015319
    166 C                    -0.014027
    167 C                     0.011878
    168 C                    -0.025919
    169 C                     0.041359
    170 C                    -0.002172
    171 C                    -0.025945
    172 C                     0.007200
    173 C                     0.001467
    174 C                     0.004044
    175 C                    -0.004729
    176 C                    -0.009897
  ----------------------------------------
  Sum of atomic charges =     0.000000

                    Cartesian Multipole Moments
 -----------------------------------------------------------------
    Charge (ESU x 10^10)
                 0.0000
    Dipole Moment (Debye)
         X      -5.4084      Y      -1.5835      Z      -0.0379
       Tot       5.6356
    Quadrupole Moments (Debye-Ang)
        XX    -788.7928     XY      42.3574     YY    -779.2117
        XZ       8.0633     YZ      21.6590     ZZ    -812.7776

 Total job time:  843.79s(wall), 7144.82s(cpu)
        *  Thank you very much for using Q-Chem.  Have a nice day.  *
