 Q-Chem 4.4, Q-Chem, Inc., Pleasanton, CA (2016)
 Q-Chem 4.4.2 for Intel X86 Linux

User input:
--------------------------------------------------------------
$comment
SP
$end

$rem
MEM_STATIC 5000
MEM_TOTAL 20000
JOBTYPE SP
EXCHANGE B3LYP
BASIS 6-31g(d,p)
$end

$molecule
0 1
O         -24.765000      5.612000     -1.838000
C         -25.398000      6.527000     -2.713000
H         -24.863000      7.477000     -2.589000
H         -26.441000      6.620000     -2.386000
H         -25.455000      6.208000     -3.761000
O         -26.048000      3.752000     -2.173000
C         -25.149000      4.335000     -1.611000
C         -24.177000      3.715000     -0.583000
H         -24.545000      4.117000      0.369000
H         -23.142000      4.004000     -0.805000
C         -24.231000      2.152000     -0.430000
H         -25.229000      1.811000     -0.128000
H         -24.029000      1.748000     -1.430000
C         -23.172000      1.712000      0.564000
H         -22.172000      2.005000      0.221000
H         -23.353000      2.270000      1.491000
C         -23.382000      0.223000      0.785000
C         -24.563000     -0.130000      1.698000
C         -25.766000     -0.575000      1.185000
H         -25.891000     -0.635000      0.108000
C         -26.782000     -0.779000      2.084000
H         -27.716000     -1.215000      1.742000
C         -26.630000     -0.516000      3.472000
H         -27.488000     -0.584000      4.134000
C         -25.427000      0.035000      3.899000
H         -25.408000      0.278000      4.957000
C         -24.365000      0.182000      3.040000
H         -23.419000      0.511000      3.460000
C         -21.006000     -4.181000      2.943000
C         -22.544000     -5.125000      1.272000
C         -19.280000     -6.307000     -1.733000
C         -17.948000     -0.685000      0.882000
C         -19.596000     -3.531000     -3.740000
C         -22.219000     -4.148000      2.235000
C         -17.405000     -1.381000     -1.750000
C         -19.359000     -6.555000      0.692000
C         -23.035000     -2.497000     -1.791000
C         -18.629000      0.020000     -0.141000
C         -22.846000     -0.788000     -0.173000
C         -22.168000     -1.521000     -2.360000
C         -19.648000     -0.380000     -2.161000
C         -17.688000     -2.361000     -2.733000
C         -23.479000     -3.123000      0.545000
C         -17.858000     -4.724000     -2.614000
C         -22.125000     -0.599000      1.159000
C         -20.712000     -0.051000      1.203000
C         -19.088000     -4.735000     -3.293000
C         -16.967000     -4.087000      1.262000
C         -17.349000     -5.570000     -0.370000
C         -18.033000     -5.976000      0.818000
C         -20.370000     -6.180000      1.631000
C         -20.009000     -0.868000      2.138000
C         -23.394000     -2.147000     -0.515000
C         -21.579000     -6.102000      0.887000
C         -18.418000     -0.439000     -1.462000
C         -23.288000     -4.487000      0.230000
C         -21.163000     -1.883000     -3.296000
C         -18.086000     -2.293000      2.555000
C         -19.964000     -6.772000     -0.595000
C         -21.961000     -0.596000     -1.373000
C         -18.774000     -4.623000      2.665000
C         -19.870000     -1.341000     -3.221000
C         -22.893000     -3.903000     -2.105000
C         -16.566000     -3.394000     -1.043000
C         -16.754000     -2.045000     -0.724000
C         -21.885000     -4.164000     -3.038000
C         -18.618000     -1.113000      2.053000
C         -20.027000      0.259000      0.036000
C         -17.163000     -2.724000      1.571000
C         -22.118000     -1.693000      2.083000
C         -21.978000     -5.816000     -1.379000
C         -20.653000     -0.041000     -1.231000
C         -21.039000     -3.257000     -3.664000
C         -18.938000     -3.283000      2.979000
C         -19.957000     -5.691000     -2.755000
C         -20.036000     -5.180000      2.618000
C         -18.009000     -5.716000     -1.606000
C         -22.961000     -4.857000     -1.087000
C         -21.309000     -5.417000     -2.601000
C         -22.795000     -2.932000      1.773000
C         -20.877000     -1.787000      2.701000
C         -16.605000     -4.444000     -0.042000
C         -21.296000     -6.511000     -0.412000
C         -18.959000     -2.360000     -3.398000
C         -17.044000     -1.725000      0.599000
C         -17.176000     -3.592000     -2.294000
C         -20.314000     -3.020000      3.137000
C         -17.786000     -5.023000      1.844000
O         -14.214000     -2.340000      6.386000
C         -15.481000     -2.031000      7.018000
H         -15.264000     -1.624000      8.013000
H         -16.043000     -2.967000      7.127000
H         -16.068000     -1.229000      6.554000
O         -14.999000     -2.724000      4.313000
C         -14.107000     -2.638000      5.092000
C         -12.667000     -2.987000      4.624000
H         -12.151000     -2.530000      5.477000
H         -12.327000     -2.368000      3.784000
C         -12.298000     -4.464000      4.474000
H         -11.208000     -4.567000      4.538000
H         -12.831000     -5.011000      5.262000
C         -12.731000     -4.895000      3.075000
H         -13.824000     -4.980000      3.026000
H         -12.521000     -4.080000      2.372000
C         -12.140000     -6.162000      2.532000
C         -12.047000     -7.227000      3.518000
C         -13.219000     -7.941000      3.890000
H         -14.106000     -7.620000      3.353000
C         -13.286000     -8.850000      4.931000
H         -14.213000     -9.314000      5.255000
C         -12.161000     -8.871000      5.768000
H         -12.219000     -9.484000      6.663000
C         -10.977000     -8.145000      5.474000
H         -10.175000     -8.105000      6.205000
C         -10.868000     -7.342000      4.308000
H         -10.041000     -6.683000      4.058000
C          -8.273000     -8.496000     -0.570000
C         -10.142000    -10.075000     -0.715000
C         -11.279000     -9.138000     -5.146000
C          -9.812000     -3.841000     -1.906000
C         -13.946000     -6.950000     -4.218000
C          -9.394000     -9.183000      0.055000
C         -11.825000     -4.054000     -3.789000
C          -9.168000     -9.382000     -3.977000
C         -13.691000     -8.161000     -0.364000
C         -11.142000     -3.706000     -1.483000
C         -12.641000     -6.626000      1.133000
C         -14.120000     -6.870000     -0.699000
C         -13.234000     -4.442000     -1.808000
C         -12.611000     -4.906000     -4.520000
C         -11.603000     -8.949000      0.659000
C         -11.945000     -7.049000     -5.600000
C         -11.219000     -6.094000      1.361000
C         -10.737000     -4.878000      0.584000
C         -13.019000     -7.685000     -5.024000
C          -8.297000     -5.970000     -4.252000
C          -9.567000     -7.449000     -5.399000
C          -8.741000     -8.139000     -4.545000
C          -8.794000     -9.707000     -2.649000
C          -9.393000     -5.127000      0.149000
C         -12.770000     -8.114000      0.704000
C          -9.884000    -10.373000     -2.072000
C         -12.110000     -3.831000     -2.419000
C         -11.515000     -9.944000     -0.355000
C         -14.439000     -6.572000     -2.015000
C          -8.019000     -5.213000     -1.950000
C         -10.421000     -9.897000     -4.252000
C         -13.414000     -5.941000      0.093000
C          -7.593000     -7.565000     -2.486000
C         -13.990000     -5.391000     -2.641000
C         -13.607000     -9.121000     -1.369000
C         -10.444000     -5.175000     -5.173000
C         -10.491000     -4.197000     -4.161000
C         -13.958000     -8.877000     -2.730000
C          -8.924000     -4.600000     -1.109000
C         -11.633000     -4.252000     -0.225000
C          -8.350000     -4.968000     -3.283000
C         -10.036000     -7.049000      1.171000
C         -12.174000    -10.328000     -2.691000
C         -12.983000     -4.743000     -0.466000
C         -14.399000     -7.547000     -3.022000
C          -7.596000     -6.536000     -1.512000
C         -12.572000     -8.960000     -4.698000
C          -8.028000     -8.777000     -1.952000
C         -10.877000     -7.914000     -5.673000
C         -12.511000    -10.027000     -1.356000
C         -13.056000     -9.531000     -3.497000
C         -10.306000     -8.421000      0.844000
C          -8.924000     -6.384000      0.570000
C          -9.349000     -6.081000     -5.208000
C         -10.874000    -10.424000     -3.055000
C         -13.696000     -5.561000     -3.982000
C          -9.455000     -4.099000     -3.213000
C         -11.750000     -5.639000     -5.420000
C          -8.080000     -7.110000     -0.314000
C          -7.954000     -7.288000     -3.776000
$end

--------------------------------------------------------------

             Standard Nuclear Orientation (Angstroms)
    I     Atom           X                Y                Z
 ----------------------------------------------------------------
    1      O      12.0458978025     2.9526484623    -4.4690734922
    2      C      12.9373635690     3.9492524087    -4.9334099663
    3      H      12.9521947285     3.8503856823    -6.0261617254
    4      H      13.9233649782     3.7266041898    -4.5071987607
    5      H      12.7085519095     4.9704999208    -4.6047570436
    6      O      12.2098504376     3.2592117391    -2.2114082179
    7      C      11.7820369168     2.6641721879    -3.1741322302
    8      C      10.7590032721     1.5074599324    -3.1368908543
    9      H      11.3847662663     0.6265659418    -3.3260427842
   10      H       9.9784646104     1.6559055498    -3.8936955162
   11      C      10.0615193206     1.2404815220    -1.7543089705
   12      H      10.7940486884     1.0052469532    -0.9722895187
   13      H       9.5727899818     2.1839827426    -1.4805041491
   14      C       9.0470020679     0.1234297669    -1.9157621234
   15      H       8.2845421467     0.3955063089    -2.6561182701
   16      H       9.5841118791    -0.7376796265    -2.3322446118
   17      C       8.5285253387    -0.1911925304    -0.5221134261
   18      C       9.4850058361    -1.0173555420     0.3471038863
   19      C      10.2488596815    -0.4327177443     1.3386324782
   20      H      10.2017751068     0.6433912980     1.4762056292
   21      C      11.1335950132    -1.2485538116     1.9972126964
   22      H      11.6891001572    -0.8574819387     2.8444982595
   23      C      11.2926781834    -2.6203253873     1.6629189797
   24      H      12.0793012195    -3.2047810671     2.1305382237
   25      C      10.5704491335    -3.1114378614     0.5810998001
   26      H      10.7962514250    -4.1449910933     0.3370607827
   27      C       9.6228008421    -2.3438777313    -0.0514728538
   28      H       9.0138651101    -2.8217002807    -0.8133389086
   29      C       4.5778903235    -2.8880682797     2.0888059847
   30      C       5.2528256307    -1.1614908553     3.7050404135
   31      C       1.5009737400     1.4344657800     3.1898108168
   32      C       3.3956336455    -0.8515665689    -2.4140854119
   33      C       2.8931607288     3.6690360075     0.9756309942
   34      C       5.5606540926    -2.0722149228     2.6738535677
   35      C       2.2785952018     1.6588941499    -2.0184832196
   36      C       1.7320611238    -0.9851428255     3.3909645318
   37      C       6.6007367297     2.1261314716     1.7291585586
   38      C       4.2089234645     0.2802319706    -2.6688534169
   39      C       7.4597648662     0.6336268027     0.1139723544
   40      C       6.2599361694     2.6871294211     0.4653697001
   41      C       4.6592439823     2.3478700047    -1.7739537626
   42      C       1.9306260408     2.5854247417    -1.0049564436
   43      C       6.9529035969    -0.2009196621     2.4410009000
   44      C       0.9394572161     2.3013482662     1.1313288643
   45      C       7.0839160951    -0.7399886765    -0.4353037297
   46      C       6.1337313774    -0.8701594573    -1.6096178147
   47      C       1.9188677051     3.0865768744     1.7623860146
   48      C       0.9325422577    -1.5792564774     0.0524938413
   49      C       0.3490555958    -0.0379447695     1.5666069593
   50      C       0.8818559843    -1.1864360668     2.2307812481
   51      C       2.8994634000    -1.7967042169     3.5426452278
   52      C       5.2365035573    -1.9251824691    -1.2663516158
   53      C       7.2312573937     0.9187306486     1.5736466784
   54      C       3.8964968549    -0.9420164294     4.0873782593
   55      C       3.6480417126     1.5374102563    -2.3445735714
   56      C       6.0857322258    -0.0102389610     3.5400262334
   57      C       5.1044146799     3.4972559034     0.3052754470
   58      C       2.9266834738    -2.6235503932    -0.9844714560
   59      C       1.9991577463     0.3310900384     3.9063997287
   60      C       6.6473111691     1.7593195413    -0.4629365191
   61      C       2.3987269245    -2.8490321198     1.3787390452
   62      C       4.2587548075     3.3467620803    -0.8053320397
   63      C       5.7555984855     2.3170531073     2.8888508786
   64      C       0.6538736882     0.7260700800    -0.6970982424
   65      C       1.5116035083     0.5299934608    -1.7846457195
   66      C       4.6470788005     3.1316809470     2.6393722411
   67      C       3.9036057146    -1.9861411602    -1.7373063683
   68      C       5.5557136640     0.2500210233    -2.1912579216
   69      C       1.8028502138    -1.7636017190    -1.0430639589
   70      C       6.6525199451    -1.7420336246     0.4923084111
   71      C       4.1161030091     1.3661261380     4.0853718696
   72      C       5.8028490885     1.5419353389    -1.5937242547
   73      C       4.2841363997     3.7458875613     1.4472044473
   74      C       3.2307187345    -3.0430185706     0.2872946422
   75      C       2.2675242999     2.5580757123     3.0104509571
   76      C       3.2135269344    -2.7303109091     2.4864882127
   77      C       0.7043227466     1.2381044744     2.0462897490
   78      C       5.4683503665     1.2392463552     3.7296154850
   79      C       3.5888904582     2.5492030095     3.4354318398
   80      C       6.5978773260    -1.4677549221     1.9105239721
   81      C       5.6052600590    -2.4757566706    -0.0515097779
   82      C       0.2927376325    -0.3448649904     0.2132318210
   83      C       3.3002734139     0.2906060935     4.3321849678
   84      C       2.9529984927     3.3614040483    -0.3644272208
   85      C       2.0732952807    -0.7326534075    -1.9491274472
   86      C       0.9387715249     2.0084722536    -0.1965156940
   87      C       4.5679541497    -3.0545237904     0.7335883507
   88      C       1.2528373312    -2.1544583722     1.2575394197
   89      O       0.0018269497    -6.7831798451    -2.9373798347
   90      C       1.3226294563    -7.2717003629    -2.5952944033
   91      H       1.4497170980    -8.2481258108    -3.0782075177
   92      H       1.3652396067    -7.4006460342    -1.5065435645
   93      H       2.1672741055    -6.6960332892    -2.9931031975
   94      O       0.2512920977    -4.6829788343    -2.1706120382
   95      C      -0.3874137091    -5.5309894133    -2.7024333900
   96      C      -1.8582162042    -5.2241122234    -3.0986548061
   97      H      -1.9820545894    -6.0829110032    -3.7693579523
   98      H      -1.9488242119    -4.3735006639    -3.7861220153
   99      C      -2.9151906004    -5.2221262425    -1.9927654889
  100      H      -3.9009961099    -5.3927415881    -2.4420793005
  101      H      -2.6285747875    -5.9980222742    -1.2716006508
  102      C      -2.9143536893    -3.8267646113    -1.3735593701
  103      H      -2.0158647237    -3.6852009357    -0.7595949538
  104      H      -2.7808927539    -3.0853067832    -2.1704046925
  105      C      -4.1069794378    -3.4386494539    -0.5511060592
  106      C      -4.5913905701    -4.5078514386     0.3075108348
  107      C      -3.8819986985    -4.8253906938     1.4981812316
  108      H      -3.0208627994    -4.1868723147     1.6682348786
  109      C      -4.1454801435    -5.9226706093     2.2988093071
  110      H      -3.5317801658    -6.1956497809     3.1523054754
  111      C      -5.0311656127    -6.8576797673     1.7438731629
  112      H      -5.1751855180    -7.7880949621     2.2858545575
  113      C      -5.7359649775    -6.6177565175     0.5351289015
  114      H      -6.3248463917    -7.4134515715     0.0887511905
  115      C      -5.5751280232    -5.4083230860    -0.1912651025
  116      H      -5.9985719769    -5.1847516062    -1.1666732281
  117      C      -8.9535969892    -0.8896707826    -0.3596509885
  118      C      -8.1233987243    -0.6968745752     1.9383976323
  119      C      -7.2010987396     3.8779876378     1.7818809565
  120      C      -5.5085996640     0.9341695119    -3.6197187807
  121      C      -3.7182098767     3.3671737751     1.1736282404
  122      C      -8.2455714477    -1.4609784662     0.7768094654
  123      C      -4.0910640523     2.9705662625    -2.4003303834
  124      C      -9.0097707513     2.5065186346     0.9273656977
  125      C      -4.0784943504    -0.5755826863     2.0160821466
  126      C      -4.2425771987     0.6455379604    -3.0906318834
  127      C      -4.0633992348    -2.0396345954     0.1303307991
  128      C      -3.1170311025    -0.1048360752     1.1122386585
  129      C      -2.8294564167     1.1020523809    -1.4118021603
  130      C      -3.9119481642     3.7024750029    -1.2556522215
  131      C      -6.1495931497    -1.8417557666     1.6492409079
  132      C      -5.6594063268     4.5497055366     0.3035127450
  133      C      -5.0076492390    -2.3545441498    -1.0385643639
  134      C      -4.9226559923    -1.5335763927    -2.3166477296
  135      C      -4.9729098909     4.0266884579     1.3735238567
  136      C      -8.1318752933     2.9622350499    -2.4634501501
  137      C      -7.8883805984     4.1030887859    -0.5256387335
  138      C      -8.8395792256     3.1270485936    -0.3516884116
  139      C      -9.3364831125     1.1289877668     0.9963058241
  140      C      -6.2577801052    -1.2430546849    -2.7532284671
  141      C      -4.7275019086    -1.7161705562     1.4975047653
  142      C      -8.6506541446     0.6041305564     2.1002752690
  143      C      -3.5754967143     1.6533527659    -2.4839540897
  144      C      -6.8294922056    -0.9193491213     2.4935561657
  145      C      -2.8496660793     1.2537038551     1.0393949758
  146      C      -7.7340256407     0.7094192424    -3.3096614661
  147      C      -8.2089485680     2.8540240296     1.9991785691
  148      C      -3.1822511545    -0.8841223648    -0.0613030850
  149      C      -9.3121083675     1.0223085091    -1.4623847640
  150      C      -2.7355239257     1.9250607326    -0.1953072198
  151      C      -4.7368142293     0.3409385193     2.8317320819
  152      C      -5.9943852546     4.1330382495    -2.0758534499
  153      C      -5.3584824358     3.2075824137    -2.9255569871
  154      C      -4.4733563190     1.7429245976     2.8226235285
  155      C      -6.5537518903     0.0037869723    -3.4150748121
  156      C      -3.9368351632    -0.6007607006    -2.4014131553
  157      C      -7.4841089473     2.0818616358    -3.3301192985
  158      C      -6.5190554193    -2.3468273300    -0.7871567089
  159      C      -6.7198062878     1.4305190319     3.2039938209
  160      C      -3.0364091898    -0.2763466094    -1.3033919515
  161      C      -3.4774648547     2.1750623581     1.8898308680
  162      C      -8.6938523502     0.1344944141    -2.3773009513
  163      C      -5.9431981020     3.5644684809     2.2547749448
  164      C      -9.4642400856     0.4386442458    -0.2055964094
  165      C      -7.0137454819     4.4586250225     0.5307742527
  166      C      -6.1253105462     0.1587748784     3.0789473440
  167      C      -5.6623696429     2.3722086808     2.9635414407
  168      C      -6.9926730921    -2.1029060838     0.5464105844
  169      C      -7.2272137604    -1.8002189896    -1.9005753572
  170      C      -7.3876310536     3.9986243146    -1.8270864149
  171      C      -7.9339553411     1.6662930583     2.6544806864
  172      C      -3.2296436571     3.2167300117    -0.1628547274
  173      C      -6.0961578830     2.1795939821    -3.5425486556
  174      C      -5.1195650969     4.4614793083    -1.0228780644
  175      C      -8.4148375760    -1.0550170012    -1.6658592119
  176      C      -9.0156029465     2.3572422873    -1.4968280977
 ----------------------------------------------------------------

    9   -5804.3019944054      7.69E-06 Convergence criterion met
 Total energy in the final basis set = -5804.3019944054

                    Orbital Energies (a.u.)
 --------------------------------------------------------------

 Alpha MOs
 -- Occupied --
-19.201 -19.189 -19.137 -19.131 -10.318 -10.315 -10.256 -10.248
-10.239 -10.238 -10.235 -10.234 -10.229 -10.228 -10.228 -10.227
-10.226 -10.225 -10.224 -10.224 -10.224 -10.223 -10.220 -10.220
-10.220 -10.219 -10.219 -10.218 -10.218 -10.218 -10.218 -10.217
-10.217 -10.217 -10.217 -10.217 -10.216 -10.216 -10.216 -10.215
-10.215 -10.215 -10.215 -10.215 -10.215 -10.215 -10.215 -10.214
-10.214 -10.214 -10.214 -10.214 -10.214 -10.213 -10.213 -10.213
-10.213 -10.213 -10.213 -10.213 -10.212 -10.212 -10.212 -10.212
-10.211 -10.211 -10.211 -10.211 -10.211 -10.211 -10.211 -10.211
-10.211 -10.211 -10.211 -10.211 -10.211 -10.210 -10.210 -10.210
-10.210 -10.210 -10.210 -10.210 -10.210 -10.210 -10.210 -10.210
-10.210 -10.209 -10.209 -10.209 -10.209 -10.209 -10.209 -10.209
-10.209 -10.209 -10.209 -10.209 -10.208 -10.208 -10.208 -10.208
-10.208 -10.208 -10.208 -10.208 -10.208 -10.208 -10.207 -10.207
-10.207 -10.207 -10.207 -10.207 -10.206 -10.206 -10.206 -10.206
-10.205 -10.205 -10.205 -10.205 -10.204 -10.204 -10.204 -10.204
-10.203 -10.203 -10.203 -10.202 -10.202 -10.201 -10.200 -10.200
-10.200 -10.199 -10.198 -10.197 -10.197 -10.197 -10.197 -10.196
-10.196 -10.195 -10.191 -10.191  -1.108  -1.097  -1.025  -1.017
 -0.978  -0.976  -0.960  -0.959  -0.958  -0.957  -0.955  -0.953
 -0.929  -0.927  -0.921  -0.921  -0.920  -0.919  -0.916  -0.916
 -0.915  -0.912  -0.893  -0.889  -0.885  -0.884  -0.880  -0.880
 -0.874  -0.871  -0.857  -0.848  -0.837  -0.836  -0.833  -0.832
 -0.831  -0.830  -0.819  -0.819  -0.804  -0.803  -0.793  -0.793
 -0.791  -0.789  -0.789  -0.788  -0.787  -0.785  -0.779  -0.777
 -0.769  -0.768  -0.765  -0.763  -0.762  -0.762  -0.760  -0.759
 -0.758  -0.751  -0.749  -0.746  -0.729  -0.729  -0.713  -0.711
 -0.710  -0.709  -0.708  -0.707  -0.706  -0.705  -0.705  -0.704
 -0.703  -0.703  -0.702  -0.701  -0.700  -0.698  -0.668  -0.666
 -0.654  -0.654  -0.652  -0.650  -0.643  -0.643  -0.629  -0.626
 -0.624  -0.622  -0.621  -0.620  -0.619  -0.617  -0.615  -0.615
 -0.614  -0.610  -0.609  -0.608  -0.608  -0.607  -0.606  -0.605
 -0.602  -0.600  -0.598  -0.596  -0.571  -0.566  -0.562  -0.559
 -0.558  -0.557  -0.555  -0.553  -0.551  -0.551  -0.548  -0.547
 -0.534  -0.533  -0.530  -0.529  -0.525  -0.523  -0.522  -0.519
 -0.519  -0.518  -0.514  -0.513  -0.512  -0.511  -0.510  -0.509
 -0.506  -0.506  -0.501  -0.496  -0.493  -0.491  -0.485  -0.484
 -0.482  -0.480  -0.479  -0.477  -0.476  -0.475  -0.474  -0.473
 -0.472  -0.470  -0.469  -0.468  -0.467  -0.466  -0.464  -0.461
 -0.461  -0.460  -0.460  -0.459  -0.457  -0.457  -0.457  -0.455
 -0.454  -0.453  -0.449  -0.448  -0.446  -0.444  -0.441  -0.440
 -0.438  -0.438  -0.437  -0.435  -0.435  -0.434  -0.432  -0.429
 -0.429  -0.429  -0.427  -0.425  -0.424  -0.423  -0.422  -0.421
 -0.420  -0.419  -0.419  -0.417  -0.417  -0.416  -0.414  -0.414
 -0.414  -0.412  -0.411  -0.411  -0.410  -0.410  -0.409  -0.408
 -0.408  -0.406  -0.405  -0.405  -0.403  -0.399  -0.396  -0.393
 -0.391  -0.387  -0.387  -0.385  -0.385  -0.384  -0.382  -0.380
 -0.378  -0.377  -0.372  -0.371  -0.369  -0.367  -0.364  -0.363
 -0.362  -0.361  -0.360  -0.358  -0.357  -0.357  -0.355  -0.354
 -0.353  -0.353  -0.351  -0.351  -0.350  -0.348  -0.348  -0.347
 -0.347  -0.347  -0.346  -0.344  -0.343  -0.342  -0.341  -0.340
 -0.339  -0.339  -0.338  -0.335  -0.335  -0.333  -0.330  -0.329
 -0.329  -0.328  -0.327  -0.326  -0.324  -0.323  -0.323  -0.319
 -0.309  -0.307  -0.301  -0.299  -0.282  -0.280  -0.269  -0.268
 -0.267  -0.266  -0.265  -0.264  -0.264  -0.262  -0.260  -0.259
 -0.258  -0.258  -0.257  -0.256  -0.255  -0.253  -0.252  -0.251
 -0.247  -0.242  -0.241  -0.239  -0.218  -0.214  -0.207  -0.207
 -0.204  -0.203  -0.203  -0.201  -0.197  -0.196

          Ground-State Mulliken Net Atomic Charges

     Atom                 Charge (a.u.)
  ----------------------------------------
      1 O                    -0.457963
      2 C                    -0.081024
      3 H                     0.127086
      4 H                     0.123055
      5 H                     0.128068
      6 O                    -0.467088
      7 C                     0.584413
      8 C                    -0.263423
      9 H                     0.131486
     10 H                     0.129437
     11 C                    -0.181201
     12 H                     0.120441
     13 H                     0.114250
     14 C                    -0.175013
     15 H                     0.109435
     16 H                     0.106985
     17 C                     0.015098
     18 C                     0.065573
     19 C                    -0.079249
     20 H                     0.104858
     21 C                    -0.108610
     22 H                     0.088344
     23 C                    -0.076296
     24 H                     0.091877
     25 C                    -0.096531
     26 H                     0.085987
     27 C                    -0.083845
     28 H                     0.098125
     29 C                    -0.019441
     30 C                    -0.009822
     31 C                     0.018041
     32 C                    -0.006632
     33 C                    -0.013898
     34 C                     0.017218
     35 C                    -0.006462
     36 C                    -0.021348
     37 C                    -0.008310
     38 C                    -0.030208
     39 C                    -0.082271
     40 C                     0.042218
     41 C                    -0.021281
     42 C                    -0.028898
     43 C                     0.004572
     44 C                    -0.003436
     45 C                    -0.104748
     46 C                     0.015656
     47 C                    -0.011507
     48 C                     0.020588
     49 C                     0.012859
     50 C                    -0.029335
     51 C                    -0.020633
     52 C                    -0.000202
     53 C                     0.017902
     54 C                     0.013564
     55 C                     0.020372
     56 C                    -0.041683
     57 C                    -0.020268
     58 C                    -0.029695
     59 C                    -0.008863
     60 C                     0.026792
     61 C                     0.055257
     62 C                    -0.025364
     63 C                    -0.026353
     64 C                     0.012673
     65 C                    -0.007141
     66 C                     0.027018
     67 C                     0.007993
     68 C                    -0.007347
     69 C                     0.028855
     70 C                     0.052795
     71 C                    -0.004330
     72 C                     0.003316
     73 C                    -0.023325
     74 C                     0.013673
     75 C                     0.011321
     76 C                    -0.023321
     77 C                     0.002427
     78 C                     0.040885
     79 C                    -0.019905
     80 C                     0.000259
     81 C                    -0.000989
     82 C                    -0.032110
     83 C                     0.009985
     84 C                     0.050710
     85 C                     0.007493
     86 C                     0.017023
     87 C                    -0.011366
     88 C                    -0.012170
     89 O                    -0.452203
     90 C                    -0.089520
     91 H                     0.128308
     92 H                     0.132956
     93 H                     0.136086
     94 O                    -0.445455
     95 C                     0.568112
     96 C                    -0.263368
     97 H                     0.108970
     98 H                     0.128228
     99 C                    -0.177353
    100 H                     0.107601
    101 H                     0.122086
    102 C                    -0.163312
    103 H                     0.128488
    104 H                     0.105269
    105 C                     0.001119
    106 C                     0.090973
    107 C                    -0.100045
    108 H                     0.089775
    109 C                    -0.084702
    110 H                     0.099411
    111 C                    -0.091298
    112 H                     0.087908
    113 C                    -0.097241
    114 H                     0.089787
    115 C                    -0.102677
    116 H                     0.095563
    117 C                    -0.036121
    118 C                     0.008361
    119 C                    -0.032769
    120 C                    -0.010377
    121 C                    -0.025377
    122 C                    -0.016793
    123 C                     0.027680
    124 C                    -0.024882
    125 C                     0.013274
    126 C                     0.003254
    127 C                    -0.100511
    128 C                     0.010079
    129 C                    -0.024941
    130 C                     0.000931
    131 C                    -0.003667
    132 C                     0.023496
    133 C                    -0.092137
    134 C                     0.022754
    135 C                     0.004350
    136 C                    -0.029658
    137 C                    -0.000340
    138 C                     0.026832
    139 C                    -0.004124
    140 C                     0.016056
    141 C                     0.018482
    142 C                    -0.000127
    143 C                     0.004051
    144 C                    -0.019465
    145 C                     0.022468
    146 C                    -0.013997
    147 C                     0.002435
    148 C                     0.061780
    149 C                     0.011457
    150 C                    -0.014864
    151 C                    -0.007053
    152 C                    -0.000538
    153 C                    -0.009372
    154 C                     0.005934
    155 C                     0.003257
    156 C                    -0.017722
    157 C                     0.012575
    158 C                     0.013133
    159 C                    -0.034635
    160 C                     0.003484
    161 C                    -0.020780
    162 C                    -0.027432
    163 C                     0.009650
    164 C                     0.018582
    165 C                     0.004785
    166 C                     0.002494
    167 C                     0.009061
    168 C                     0.028497
    169 C                    -0.019213
    170 C                    -0.003241
    171 C                     0.041309
    172 C                     0.009813
    173 C                     0.004752
    174 C                    -0.029208
    175 C                     0.019794
    176 C                     0.007941
  ----------------------------------------
  Sum of atomic charges =     0.000000

                    Cartesian Multipole Moments
 -----------------------------------------------------------------
    Charge (ESU x 10^10)
                 0.0000
    Dipole Moment (Debye)
         X       4.0886      Y      -5.7389      Z      -3.2614
       Tot       7.7645
    Quadrupole Moments (Debye-Ang)
        XX    -780.4062     XY      -5.3695     YY    -769.6813
        XZ     -24.4085     YZ       1.4315     ZZ    -794.0771

 Total job time:  824.97s(wall), 6970.01s(cpu)
        *  Thank you very much for using Q-Chem.  Have a nice day.  *
