 Q-Chem 4.4, Q-Chem, Inc., Pleasanton, CA (2016)
 Q-Chem 4.4.2 for Intel X86 Linux

User input:
--------------------------------------------------------------
$comment
SP
$end

$rem
MEM_STATIC 5000
MEM_TOTAL 20000
JOBTYPE SP
EXCHANGE B3LYP
BASIS 6-31g(d,p)
$end

$molecule
0 1
O          -4.178000      6.413000    -12.960000
C          -3.160000      7.336000    -12.494000
H          -3.583000      8.289000    -12.152000
H          -2.503000      7.688000    -13.299000
H          -2.666000      7.033000    -11.563000
O          -5.098000      7.805000    -14.456000
C          -5.060000      6.777000    -13.862000
C          -6.132000      5.754000    -14.029000
H          -5.587000      4.802000    -14.035000
H          -6.592000      5.864000    -15.019000
C          -7.279000      5.833000    -12.942000
H          -7.821000      6.757000    -13.180000
H          -7.915000      4.996000    -13.257000
C          -6.702000      5.767000    -11.459000
H          -6.035000      4.897000    -11.436000
H          -6.085000      6.668000    -11.353000
C          -7.754000      5.756000    -10.363000
C          -8.519000      7.047000    -10.194000
C          -9.790000      7.186000    -10.761000
H         -10.270000      6.352000    -11.265000
C         -10.447000      8.462000    -10.804000
H         -11.427000      8.601000    -11.252000
C          -9.906000      9.588000    -10.162000
H         -10.533000     10.452000     -9.964000
C          -8.660000      9.395000     -9.533000
H          -8.192000     10.263000     -9.078000
C          -7.925000      8.186000     -9.550000
H          -6.988000      8.098000     -9.008000
C          -9.169000      3.686000     -5.467000
C         -11.227000      3.532000     -6.692000
C         -11.119000     -1.024000     -7.066000
C          -5.224000      1.623000     -7.812000
C          -9.694000     -0.873000    -10.260000
C         -10.039000      4.171000     -6.391000
C          -6.252000     -0.564000     -9.284000
C         -10.453000      0.489000     -5.238000
C         -10.376000      3.006000    -10.537000
C          -5.529000      1.719000     -9.180000
C          -8.442000      4.424000    -10.197000
C          -9.284000      2.365000    -11.206000
C          -6.859000      1.094000    -10.909000
C          -7.452000     -1.314000     -9.544000
C         -10.412000      4.455000     -8.632000
C          -9.332000     -1.955000     -8.135000
C          -7.560000      4.944000     -9.117000
C          -6.499000      3.956000     -8.832000
C         -10.236000     -1.498000     -9.138000
C          -7.030000     -0.111000     -5.327000
C          -8.970000     -1.181000     -5.874000
C          -9.234000     -0.122000     -5.026000
C         -10.568000      1.853000     -5.072000
C          -6.248000      3.836000     -7.445000
C          -9.929000      4.165000     -9.900000
C         -11.532000      2.350000     -6.033000
C          -5.989000      0.664000     -9.947000
C         -11.490000      3.734000     -8.055000
C          -9.304000      0.999000    -11.387000
C          -6.100000      2.087000     -5.726000
C         -11.362000      0.136000     -6.269000
C          -8.129000      3.198000    -11.028000
C          -8.176000      1.967000     -4.445000
C          -8.064000      0.400000    -11.179000
C         -11.403000      2.216000     -9.966000
C          -7.109000     -1.406000     -7.376000
C          -6.062000     -0.632000     -7.876000
C         -11.408000      0.815000    -10.115000
C          -5.674000      2.660000     -6.928000
C          -6.182000      2.806000     -9.615000
C          -6.073000      0.688000     -5.906000
C          -8.161000      5.076000     -7.745000
C         -12.255000      1.311000     -8.120000
C          -6.931000      2.496000    -10.769000
C         -10.370000      0.218000    -10.830000
C          -7.188000      2.739000     -5.034000
C         -11.346000     -0.963000     -8.461000
C          -9.392000      2.565000     -4.711000
C          -9.871000     -1.612000     -6.893000
C         -12.006000      2.540000     -8.741000
C         -11.956000      0.238000     -8.985000
C          -9.536000      4.822000     -7.594000
C          -7.321000      4.439000     -6.829000
C          -7.551000     -1.193000     -6.064000
C         -12.048000      1.239000     -6.758000
C          -8.311000     -0.845000    -10.534000
C          -5.523000      0.408000     -7.201000
C          -7.911000     -1.860000     -8.376000
C          -7.816000      3.820000     -5.660000
C          -8.086000      0.573000     -4.649000
O         -14.214000     -2.340000      6.386000
C         -15.481000     -2.031000      7.018000
H         -15.264000     -1.624000      8.013000
H         -16.043000     -2.967000      7.127000
H         -16.068000     -1.229000      6.554000
O         -14.999000     -2.724000      4.313000
C         -14.107000     -2.638000      5.092000
C         -12.667000     -2.987000      4.624000
H         -12.151000     -2.530000      5.477000
H         -12.327000     -2.368000      3.784000
C         -12.298000     -4.464000      4.474000
H         -11.208000     -4.567000      4.538000
H         -12.831000     -5.011000      5.262000
C         -12.731000     -4.895000      3.075000
H         -13.824000     -4.980000      3.026000
H         -12.521000     -4.080000      2.372000
C         -12.140000     -6.162000      2.532000
C         -12.047000     -7.227000      3.518000
C         -13.219000     -7.941000      3.890000
H         -14.106000     -7.620000      3.353000
C         -13.286000     -8.850000      4.931000
H         -14.213000     -9.314000      5.255000
C         -12.161000     -8.871000      5.768000
H         -12.219000     -9.484000      6.663000
C         -10.977000     -8.145000      5.474000
H         -10.175000     -8.105000      6.205000
C         -10.868000     -7.342000      4.308000
H         -10.041000     -6.683000      4.058000
C          -8.273000     -8.496000     -0.570000
C         -10.142000    -10.075000     -0.715000
C         -11.279000     -9.138000     -5.146000
C          -9.812000     -3.841000     -1.906000
C         -13.946000     -6.950000     -4.218000
C          -9.394000     -9.183000      0.055000
C         -11.825000     -4.054000     -3.789000
C          -9.168000     -9.382000     -3.977000
C         -13.691000     -8.161000     -0.364000
C         -11.142000     -3.706000     -1.483000
C         -12.641000     -6.626000      1.133000
C         -14.120000     -6.870000     -0.699000
C         -13.234000     -4.442000     -1.808000
C         -12.611000     -4.906000     -4.520000
C         -11.603000     -8.949000      0.659000
C         -11.945000     -7.049000     -5.600000
C         -11.219000     -6.094000      1.361000
C         -10.737000     -4.878000      0.584000
C         -13.019000     -7.685000     -5.024000
C          -8.297000     -5.970000     -4.252000
C          -9.567000     -7.449000     -5.399000
C          -8.741000     -8.139000     -4.545000
C          -8.794000     -9.707000     -2.649000
C          -9.393000     -5.127000      0.149000
C         -12.770000     -8.114000      0.704000
C          -9.884000    -10.373000     -2.072000
C         -12.110000     -3.831000     -2.419000
C         -11.515000     -9.944000     -0.355000
C         -14.439000     -6.572000     -2.015000
C          -8.019000     -5.213000     -1.950000
C         -10.421000     -9.897000     -4.252000
C         -13.414000     -5.941000      0.093000
C          -7.593000     -7.565000     -2.486000
C         -13.990000     -5.391000     -2.641000
C         -13.607000     -9.121000     -1.369000
C         -10.444000     -5.175000     -5.173000
C         -10.491000     -4.197000     -4.161000
C         -13.958000     -8.877000     -2.730000
C          -8.924000     -4.600000     -1.109000
C         -11.633000     -4.252000     -0.225000
C          -8.350000     -4.968000     -3.283000
C         -10.036000     -7.049000      1.171000
C         -12.174000    -10.328000     -2.691000
C         -12.983000     -4.743000     -0.466000
C         -14.399000     -7.547000     -3.022000
C          -7.596000     -6.536000     -1.512000
C         -12.572000     -8.960000     -4.698000
C          -8.028000     -8.777000     -1.952000
C         -10.877000     -7.914000     -5.673000
C         -12.511000    -10.027000     -1.356000
C         -13.056000     -9.531000     -3.497000
C         -10.306000     -8.421000      0.844000
C          -8.924000     -6.384000      0.570000
C          -9.349000     -6.081000     -5.208000
C         -10.874000    -10.424000     -3.055000
C         -13.696000     -5.561000     -3.982000
C          -9.455000     -4.099000     -3.213000
C         -11.750000     -5.639000     -5.420000
C          -8.080000     -7.110000     -0.314000
C          -7.954000     -7.288000     -3.776000
$end

--------------------------------------------------------------

             Standard Nuclear Orientation (Angstroms)
    I     Atom           X                Y                Z
 ----------------------------------------------------------------
    1      O     -12.7732510011    -1.0727565638    -2.4246422461
    2      C     -13.3788227291    -0.3915625487    -3.5536535818
    3      H     -13.7270637837     0.6169420862    -3.2972387439
    4      H     -14.3219364846    -0.8518520478    -3.8734160270
    5      H     -12.6754999970    -0.1237118330    -4.3512744996
    6      O     -14.5161928901    -0.8335998133    -1.0364644404
    7      C     -13.4040107657    -1.1741940448    -1.2775256188
    8      C     -12.5175086103    -1.7139985662    -0.2068590007
    9      H     -11.9799295518    -2.5331899869    -0.7001126596
   10      H     -13.1306610665    -2.1654164737     0.5831194410
   11      C     -11.5736788173    -0.6332639427     0.4599370667
   12      H     -12.2522255739     0.0046371622     1.0403166661
   13      H     -11.0256720086    -1.2573929474     1.1771828566
   14      C     -10.6975017842     0.1424872504    -0.6203859837
   15      H     -10.2297470086    -0.6328563176    -1.2387433410
   16      H     -11.4234986705     0.6789208528    -1.2439992543
   17      C      -9.7074348857     1.1403774190    -0.0441709650
   18      C     -10.3243791203     2.3642833174     0.5897857869
   19      C     -10.4778866158     2.4303819953     1.9784244777
   20      H     -10.0950474014     1.6417881766     2.6199273421
   21      C     -11.2502867590     3.4749474634     2.5899430806
   22      H     -11.3984027004     3.5411307634     3.6642365408
   23      C     -11.7656579045     4.5431183811     1.8375306452
   24      H     -12.0940822968     5.4491406029     2.3376207894
   25      C     -11.5267684681     4.4866957540     0.4500313391
   26      H     -11.9629741047     5.2700995211    -0.1627297727
   27      C     -10.8609354295     3.4286314864    -0.2128120590
   28      H     -10.6766828219     3.4717935909    -1.2822348049
   29      C      -4.6667741677     3.2947416132    -0.5006744648
   30      C      -4.8469303897     2.9332954702     1.8650401041
   31      C      -1.8761109055    -0.5415444973     1.9566632075
   32      C      -5.7231058578    -0.7616527512    -3.2841699509
   33      C      -4.4360755912    -2.9243467369     1.8020789436
   34      C      -5.4011086197     3.2605401625     0.6419033984
   35      C      -4.8755231960    -2.9908010741    -1.7613310278
   36      C      -1.9197746364     1.5464204233     0.6479214572
   37      C      -7.2088150702    -0.1994334748     2.4914681628
   38      C      -6.6131251854    -1.5137739625    -2.4994124853
   39      C      -8.4783520081     0.4996838832     0.5508005243
   40      C      -7.4644741423    -1.3844962273     1.7291226300
   41      C      -6.9707043166    -2.7341529006    -0.6201098454
   42      C      -4.2124182544    -3.3657367898    -0.5407512289
   43      C      -6.9809651862     2.0833465518     1.8081514132
   44      C      -2.3615346508    -2.3810090132     0.6982415442
   45      C      -8.3600548695     1.3391930352    -0.6722915289
   46      C      -7.7347866096     0.5475935209    -1.7518746948
   47      C      -3.1192928465    -2.4777871873     1.9017823627
   48      C      -2.4064013976     0.1448316607    -2.4958968161
   49      C      -1.5189615224    -0.4447360181    -0.4778360093
   50      C      -1.6502762685     0.9288990733    -0.5563476207
   51      C      -2.7530754310     2.6446050145     0.6775422165
   52      C      -6.8017182226     1.3099235683    -2.4930941523
   53      C      -7.7274711535     0.9139232275     1.8279233484
   54      C      -3.4967488729     2.6197517366     1.9209882855
   55      C      -6.2505812900    -2.6362841675    -1.7772997770
   56      C      -5.8196211300     2.2475957551     2.6076238532
   57      C      -6.6058613412    -2.4576245313     1.8305952907
   58      C      -4.4653653987     1.1749106131    -3.2408193585
   59      C      -2.1180461044     0.8637453766     1.8761291781
   60      C      -8.2292408747    -0.9932078612     0.5795038846
   61      C      -3.0204036097     2.4938943777    -1.7787987510
   62      C      -6.3527782842    -3.0750098084     0.6081185483
   63      C      -6.0150338589    -0.1013223854     3.2465381156
   64      C      -2.8096583703    -2.0937565580    -1.6546040008
   65      C      -3.9504460647    -2.1616915327    -2.4541496690
   66      C      -5.1142504225    -1.1819752885     3.3227319723
   67      C      -5.7686533191     0.6703398286    -3.2026366423
   68      C      -7.5092721568    -0.8613705189    -1.7454275037
   69      C      -3.5943487938     0.0666143377    -3.1830314713
   70      C      -7.4033268427     2.4979842778    -0.6185948008
   71      C      -3.9462645366     0.7092725555     3.3721340281
   72      C      -7.8588661780    -1.6379983232    -0.6213944641
   73      C      -5.4179306696    -2.3519206850     2.6269704638
   74      C      -4.2034402693     2.3817800315    -2.4907704044
   75      C      -2.7784268370    -1.3570393396     2.6792067162
   76      C      -3.3168404244     3.0658878267    -0.5573386783
   77      C      -1.6558298525    -1.1764279548     0.7394630378
   78      C      -5.2909693249     1.0959432779     3.3537551021
   79      C      -3.8248873663    -0.6948215252     3.4245019106
   80      C      -6.7798194420     2.7893510946     0.6078985336
   81      C      -6.5585425297     2.4282545098    -1.7285057090
   82      C      -1.9897037853    -0.9604415430    -1.7277378189
   83      C      -3.0527801513     1.5006775355     2.6804398683
   84      C      -4.9814308192    -3.4576358933     0.6160185105
   85      C      -4.3824368836    -1.1316216461    -3.2157834138
   86      C      -2.9424209016    -2.8557309739    -0.5360830579
   87      C      -5.2269266415     2.8973508601    -1.6898438369
   88      C      -2.1844411977     1.3563286640    -1.7708556583
   89      O       8.6633621128     8.2338784110    -0.0875105317
   90      C       9.1748058584     9.2085382297     0.8551758069
   91      H       9.4839233840    10.0917180236     0.2831593675
   92      H      10.0530910770     8.7744260680     1.3491218626
   93      H       8.4460157866     9.6239287833     1.5618473849
   94      O       7.7722525682     6.8092654835     1.4082875116
   95      C       7.9994401652     7.1429345402     0.2916175709
   96      C       7.5808843903     6.2017007755    -0.8717031345
   97      H       7.6864924440     6.9458961547    -1.6702857393
   98      H       6.5039402039     5.9911808442    -0.8869863870
   99      C       8.4416591361     4.9663257085    -1.1420830169
  100      H       8.2846210725     4.6427106214    -2.1781415683
  101      H       9.4814447355     5.2450943825    -0.9290667410
  102      C       7.9384331082     3.8581714554    -0.2205578050
  103      H       8.2398978099     4.0604657382     0.8150439799
  104      H       6.8443669899     3.9105821782    -0.1675819148
  105      C       8.3362947844     2.4514620879    -0.5556605385
  106      C       9.7183636884     2.3284458608    -0.9913468390
  107      C      10.7636605906     2.3878031338    -0.0292683077
  108      H      10.4043299663     2.4980889913     0.9890133489
  109      C      12.1107576908     2.4536600857    -0.3382072406
  110      H      12.8853617171     2.5909689188     0.4106157604
  111      C      12.3939623399     2.6876881918    -1.6915959402
  112      H      13.4322690883     2.8627466390    -1.9588629161
  113      C      11.3883200823     2.6849364695    -2.6936159389
  114      H      11.6392377786     2.9788985813    -3.7084024123
  115      C      10.0241420995     2.4509497803    -2.3765754675
  116      H       9.1842813420     2.5262688331    -3.0619008999
  117      C       6.9955103794    -2.2731698317    -2.9854340678
  118      C       8.4914054868    -2.9743183354    -1.1748773570
  119      C       5.2001885790    -4.9307044051     1.4981254136
  120      C       3.1894258335     0.5294055990    -1.1194937191
  121      C       4.9181378808    -2.0645680887     3.6116833189
  122      C       8.1749006070    -2.0418314269    -2.1639985966
  123      C       2.6081443451    -0.3192753764     1.4466472422
  124      C       5.6136699414    -4.8999162594    -0.8915405155
  125      C       8.2460836598    -0.4434199885     1.9741492798
  126      C       3.7032993728     1.2610910905    -0.0393898689
  127      C       7.8735522180     1.3384432138     0.4295076212
  128      C       7.2143777419     0.3578345081     2.4806284310
  129      C       4.5366665985     1.0933056116     2.0345272220
  130      C       2.9312675919    -1.1877379450     2.4563130950
  131      C       8.9567421541    -0.8846691612    -0.3339843108
  132      C       3.5815248680    -3.5837116913     2.2591322595
  133      C       7.2891587522     1.4794354103    -0.9831839508
  134      C       5.7930953576     1.6914249669    -1.1608458408
  135      C       4.6807040482    -3.3615108916     3.0542296965
  136      C       2.7866256808    -2.9197435022    -1.6417048976
  137      C       3.4039895994    -4.3723650058    -0.0216115179
  138      C       4.2493073910    -4.5164067368    -1.0951019980
  139      C       6.6232118781    -4.3535421414    -1.7230363972
  140      C       5.3490005281     0.8680092388    -2.2481950584
  141      C       8.6834741253     0.0455354014     0.7248750075
  142      C       7.7484015870    -4.1474406511    -0.9130639935
  143      C       3.4198178677     0.8170191290     1.2060752367
  144      C       8.9775209594    -2.2753878092    -0.0316022952
  145      C       6.2181892549    -0.2143981276     3.2568882516
  146      C       3.6892009186    -0.9457688212    -2.7545026776
  147      C       6.1128835111    -5.1054500419     0.3810162322
  148      C       6.8964683320     1.3421113614     1.5220494394
  149      C       4.9052666991    -3.0653354245    -2.9256676027
  150      C       4.8543968153     0.0814233757     3.0549035497
  151      C       8.2488536930    -1.8025524986     2.2765267705
  152      C       2.1526750509    -2.3904654308     0.6837727570
  153      C       2.1324403257    -1.0240413038     0.3441955773
  154      C       7.2695663885    -2.4337482812     3.0997194935
  155      C       4.0309580504     0.2826499480    -2.2288940872
  156      C       5.0403647176     1.8390316870    -0.0380004196
  157      C       2.7225820957    -1.5631923263    -1.9602034476
  158      C       7.5486818402     0.3650883779    -2.0022484523
  159      C       7.8823055676    -3.9072685290     1.4435592423
  160      C       5.5690476374     1.6988764977     1.3120043556
  161      C       6.2413192879    -1.5735354527     3.6011043655
  162      C       4.8127904585    -1.6999910690    -3.2928309665
  163      C       5.6906150361    -4.1623082763     2.5341207222
  164      C       6.2272442399    -3.4473320529    -2.7025556186
  165      C       3.8825090559    -4.5267826960     1.3029923123
  166      C       8.6284744522    -2.7252699666     1.2632639451
  167      C       7.0063158060    -3.6413763326     2.5502264360
  168      C       8.3782077330    -0.7411723241    -1.6145797119
  169      C       6.4029541754     0.1365429904    -2.8238597497
  170      C       2.5010406834    -3.3445505358    -0.3109377529
  171      C       7.3868903245    -4.5646037666     0.3692286962
  172      C       4.0217795149    -1.0009633252     3.2758208663
  173      C       2.4260268617    -0.6093279632    -0.9685967867
  174      C       2.6472046885    -2.5274621256     1.9947316973
  175      C       6.1286577777    -1.1831430531    -3.2755878015
  176      C       3.9515875988    -3.6238697546    -2.1196368490
 ----------------------------------------------------------------

    9   -5804.2551738335      7.07E-06 Convergence criterion met
 Total energy in the final basis set = -5804.2551738335

                    Orbital Energies (a.u.)
 --------------------------------------------------------------

 Alpha MOs
 -- Occupied --
-19.201 -19.200 -19.129 -19.126 -10.314 -10.305 -10.256 -10.253
-10.239 -10.239 -10.238 -10.237 -10.234 -10.229 -10.228 -10.227
-10.226 -10.226 -10.226 -10.224 -10.224 -10.224 -10.224 -10.223
-10.223 -10.222 -10.221 -10.220 -10.220 -10.219 -10.219 -10.219
-10.218 -10.218 -10.218 -10.217 -10.217 -10.217 -10.217 -10.217
-10.217 -10.216 -10.216 -10.216 -10.216 -10.216 -10.216 -10.216
-10.216 -10.215 -10.215 -10.215 -10.215 -10.215 -10.215 -10.215
-10.215 -10.214 -10.214 -10.214 -10.214 -10.214 -10.214 -10.214
-10.214 -10.214 -10.213 -10.213 -10.213 -10.213 -10.213 -10.213
-10.213 -10.213 -10.213 -10.213 -10.213 -10.212 -10.212 -10.212
-10.212 -10.212 -10.212 -10.211 -10.211 -10.211 -10.211 -10.211
-10.211 -10.211 -10.211 -10.211 -10.211 -10.210 -10.210 -10.210
-10.210 -10.210 -10.210 -10.210 -10.210 -10.209 -10.209 -10.209
-10.209 -10.209 -10.209 -10.209 -10.209 -10.209 -10.208 -10.208
-10.208 -10.208 -10.208 -10.208 -10.208 -10.207 -10.207 -10.207
-10.207 -10.207 -10.207 -10.206 -10.206 -10.206 -10.206 -10.206
-10.205 -10.205 -10.204 -10.204 -10.204 -10.203 -10.203 -10.202
-10.202 -10.202 -10.202 -10.200 -10.200 -10.200 -10.199 -10.199
-10.197 -10.196 -10.194 -10.191  -1.113  -1.107  -1.023  -1.022
 -0.983  -0.978  -0.965  -0.964  -0.961  -0.960  -0.957  -0.955
 -0.936  -0.929  -0.928  -0.925  -0.923  -0.921  -0.920  -0.920
 -0.917  -0.916  -0.896  -0.894  -0.890  -0.885  -0.884  -0.880
 -0.873  -0.871  -0.850  -0.849  -0.842  -0.840  -0.836  -0.836
 -0.833  -0.831  -0.819  -0.818  -0.804  -0.801  -0.797  -0.796
 -0.793  -0.793  -0.791  -0.790  -0.790  -0.787  -0.785  -0.779
 -0.771  -0.769  -0.769  -0.766  -0.765  -0.763  -0.762  -0.759
 -0.751  -0.746  -0.746  -0.744  -0.733  -0.730  -0.715  -0.713
 -0.713  -0.712  -0.711  -0.710  -0.708  -0.707  -0.707  -0.706
 -0.706  -0.705  -0.705  -0.704  -0.703  -0.702  -0.674  -0.668
 -0.658  -0.657  -0.654  -0.653  -0.646  -0.643  -0.629  -0.626
 -0.626  -0.625  -0.624  -0.622  -0.621  -0.620  -0.617  -0.615
 -0.615  -0.614  -0.614  -0.611  -0.610  -0.609  -0.609  -0.607
 -0.606  -0.602  -0.602  -0.598  -0.575  -0.570  -0.563  -0.560
 -0.559  -0.557  -0.557  -0.557  -0.555  -0.552  -0.552  -0.547
 -0.534  -0.533  -0.532  -0.530  -0.526  -0.525  -0.525  -0.522
 -0.522  -0.519  -0.517  -0.516  -0.515  -0.514  -0.512  -0.510
 -0.509  -0.506  -0.502  -0.501  -0.493  -0.490  -0.485  -0.484
 -0.484  -0.482  -0.480  -0.480  -0.479  -0.477  -0.476  -0.473
 -0.472  -0.472  -0.471  -0.469  -0.468  -0.467  -0.466  -0.464
 -0.464  -0.462  -0.461  -0.461  -0.459  -0.458  -0.457  -0.456
 -0.455  -0.452  -0.452  -0.449  -0.447  -0.446  -0.441  -0.441
 -0.441  -0.438  -0.438  -0.438  -0.437  -0.435  -0.432  -0.429
 -0.429  -0.429  -0.428  -0.425  -0.424  -0.423  -0.423  -0.422
 -0.421  -0.420  -0.419  -0.418  -0.417  -0.417  -0.416  -0.415
 -0.414  -0.414  -0.414  -0.414  -0.412  -0.412  -0.411  -0.410
 -0.410  -0.409  -0.408  -0.405  -0.404  -0.401  -0.398  -0.394
 -0.393  -0.391  -0.391  -0.389  -0.387  -0.387  -0.385  -0.384
 -0.380  -0.378  -0.375  -0.371  -0.370  -0.367  -0.364  -0.364
 -0.363  -0.361  -0.360  -0.360  -0.359  -0.357  -0.357  -0.355
 -0.355  -0.353  -0.353  -0.353  -0.351  -0.350  -0.350  -0.350
 -0.348  -0.348  -0.347  -0.346  -0.346  -0.345  -0.344  -0.343
 -0.343  -0.340  -0.339  -0.338  -0.337  -0.336  -0.335  -0.330
 -0.330  -0.330  -0.329  -0.327  -0.326  -0.324  -0.324  -0.323
 -0.310  -0.307  -0.304  -0.301  -0.283  -0.281  -0.269  -0.267
 -0.267  -0.266  -0.265  -0.264  -0.264  -0.262  -0.261  -0.260
 -0.259  -0.259  -0.258  -0.257  -0.256  -0.256  -0.253  -0.253
 -0.251  -0.245  -0.242  -0.240  -0.219  -0.217  -0.211  -0.208
 -0.208  -0.207  -0.205  -0.204  -0.200  -0.197

          Ground-State Mulliken Net Atomic Charges

     Atom                 Charge (a.u.)
  ----------------------------------------
      1 O                    -0.437620
      2 C                    -0.102115
      3 H                     0.125294
      4 H                     0.138255
      5 H                     0.130095
      6 O                    -0.464510
      7 C                     0.583562
      8 C                    -0.256146
      9 H                     0.114726
     10 H                     0.125377
     11 C                    -0.198206
     12 H                     0.126530
     13 H                     0.112561
     14 C                    -0.183194
     15 H                     0.121195
     16 H                     0.110361
     17 C                     0.015507
     18 C                     0.082508
     19 C                    -0.101370
     20 H                     0.095102
     21 C                    -0.102779
     22 H                     0.090987
     23 C                    -0.075088
     24 H                     0.100859
     25 C                    -0.098707
     26 H                     0.085776
     27 C                    -0.095941
     28 H                     0.094364
     29 C                     0.024221
     30 C                     0.012023
     31 C                    -0.023115
     32 C                    -0.038486
     33 C                     0.016737
     34 C                     0.002710
     35 C                    -0.038030
     36 C                     0.018650
     37 C                     0.002757
     38 C                     0.014179
     39 C                    -0.075085
     40 C                     0.013025
     41 C                    -0.006729
     42 C                    -0.001801
     43 C                     0.034564
     44 C                    -0.033027
     45 C                    -0.087900
     46 C                     0.044839
     47 C                     0.008696
     48 C                    -0.015673
     49 C                    -0.007577
     50 C                     0.021592
     51 C                    -0.029103
     52 C                    -0.009418
     53 C                     0.003254
     54 C                    -0.007315
     55 C                     0.009364
     56 C                    -0.041071
     57 C                    -0.020104
     58 C                    -0.001068
     59 C                     0.008051
     60 C                     0.026261
     61 C                    -0.017670
     62 C                     0.012638
     63 C                     0.006217
     64 C                     0.033044
     65 C                     0.017240
     66 C                     0.015379
     67 C                     0.008367
     68 C                     0.033172
     69 C                     0.002517
     70 C                     0.011424
     71 C                     0.016157
     72 C                    -0.057322
     73 C                    -0.014547
     74 C                    -0.026580
     75 C                    -0.022606
     76 C                     0.001460
     77 C                     0.032221
     78 C                    -0.015954
     79 C                    -0.005677
     80 C                     0.008239
     81 C                     0.005752
     82 C                    -0.038828
     83 C                    -0.009745
     84 C                    -0.008551
     85 C                     0.004085
     86 C                     0.018498
     87 C                     0.009440
     88 C                     0.019084
     89 O                    -0.452605
     90 C                    -0.089264
     91 H                     0.128215
     92 H                     0.132096
     93 H                     0.136242
     94 O                    -0.445515
     95 C                     0.568042
     96 C                    -0.263568
     97 H                     0.108817
     98 H                     0.127968
     99 C                    -0.177576
    100 H                     0.107420
    101 H                     0.121953
    102 C                    -0.162406
    103 H                     0.128397
    104 H                     0.105421
    105 C                     0.001539
    106 C                     0.091942
    107 C                    -0.099399
    108 H                     0.088620
    109 C                    -0.084610
    110 H                     0.098707
    111 C                    -0.091286
    112 H                     0.087861
    113 C                    -0.097109
    114 H                     0.090001
    115 C                    -0.103174
    116 H                     0.095926
    117 C                    -0.036377
    118 C                     0.009299
    119 C                    -0.032463
    120 C                    -0.010290
    121 C                    -0.025911
    122 C                    -0.017540
    123 C                     0.028010
    124 C                    -0.024166
    125 C                     0.016149
    126 C                     0.002369
    127 C                    -0.098791
    128 C                     0.004026
    129 C                    -0.032237
    130 C                    -0.001204
    131 C                    -0.004227
    132 C                     0.023586
    133 C                    -0.092535
    134 C                     0.024082
    135 C                     0.004279
    136 C                    -0.029919
    137 C                    -0.000945
    138 C                     0.026988
    139 C                    -0.004780
    140 C                     0.015552
    141 C                     0.018752
    142 C                     0.000162
    143 C                     0.006674
    144 C                    -0.020738
    145 C                     0.015351
    146 C                    -0.012841
    147 C                     0.002123
    148 C                     0.058798
    149 C                     0.012227
    150 C                    -0.015049
    151 C                    -0.007406
    152 C                     0.001214
    153 C                    -0.006947
    154 C                     0.005919
    155 C                     0.003030
    156 C                    -0.016444
    157 C                     0.012567
    158 C                     0.012770
    159 C                    -0.034733
    160 C                     0.002252
    161 C                    -0.017166
    162 C                    -0.028155
    163 C                     0.009442
    164 C                     0.018646
    165 C                     0.005225
    166 C                     0.003569
    167 C                     0.009632
    168 C                     0.029241
    169 C                    -0.018920
    170 C                    -0.002248
    171 C                     0.041187
    172 C                     0.012516
    173 C                     0.005235
    174 C                    -0.030126
    175 C                     0.020707
    176 C                     0.007667
  ----------------------------------------
  Sum of atomic charges =     0.000000

                    Cartesian Multipole Moments
 -----------------------------------------------------------------
    Charge (ESU x 10^10)
                 0.0000
    Dipole Moment (Debye)
         X       1.6332      Y       5.1512      Z      -2.1200
       Tot       5.8049
    Quadrupole Moments (Debye-Ang)
        XX    -767.5036     XY      26.5595     YY    -772.8388
        XZ       4.6472     YZ      -6.1722     ZZ    -799.7933

 Total job time:  808.48s(wall), 6816.90s(cpu)
        *  Thank you very much for using Q-Chem.  Have a nice day.  *
