 Q-Chem 4.4, Q-Chem, Inc., Pleasanton, CA (2016)
 Q-Chem 4.4.2 for Intel X86 Linux

User input:
--------------------------------------------------------------
$comment
SP
$end

$rem
MEM_STATIC 5000
MEM_TOTAL 20000
JOBTYPE SP
EXCHANGE B3LYP
BASIS 6-31g(d,p)
$end

$molecule
0 1
O           7.360000    -10.216000     -3.394000
C           7.871000     -9.594000     -4.589000
H           8.089000    -10.390000     -5.312000
H           8.755000     -8.964000     -4.434000
H           6.989000     -9.085000     -4.998000
O           6.729000     -8.380000     -2.319000
C           6.900000     -9.563000     -2.318000
C           6.589000    -10.526000     -1.219000
H           7.546000    -10.968000     -0.915000
H           6.095000    -11.339000     -1.766000
C           5.782000     -9.971000     -0.020000
H           5.962000     -8.896000      0.106000
H           4.809000    -10.331000     -0.375000
C           6.081000    -10.766000      1.230000
H           5.961000    -11.835000      1.017000
H           7.129000    -10.639000      1.528000
C           5.172000    -10.316000      2.391000
C           5.491000     -8.875000      2.820000
C           4.701000     -7.785000      2.435000
H           3.812000     -7.978000      1.842000
C           5.054000     -6.460000      2.720000
H           4.287000     -5.715000      2.534000
C           6.193000     -6.199000      3.512000
H           6.572000     -5.250000      3.879000
C           6.977000     -7.259000      3.930000
H           7.773000     -7.102000      4.651000
C           6.655000     -8.555000      3.552000
H           7.186000     -9.426000      3.924000
C           3.180000    -11.456000      7.358000
C           1.344000    -10.331000      6.169000
C          -1.485000    -13.839000      5.811000
C           4.646000    -15.419000      4.316000
C          -0.576000    -14.292000      2.425000
C           2.696000    -10.510000      6.424000
C           2.364000    -16.414000      2.980000
C           0.024000    -13.230000      7.592000
C           1.368000    -10.738000      2.270000
C           4.471000    -15.113000      2.982000
C           3.783000    -10.885000      2.497000
C           1.837000    -11.851000      1.548000
C           2.848000    -14.430000      1.473000
C           1.001000    -16.132000      2.779000
C           2.356000     -9.921000      4.304000
C          -0.792000    -15.566000      4.372000
C           4.863000    -11.327000      3.457000
C           5.137000    -12.794000      3.545000
C          -1.269000    -14.532000      3.599000
C           2.305000    -15.774000      6.941000
C           0.082000    -15.460000      6.632000
C           0.538000    -14.525000      7.575000
C           0.872000    -12.163000      7.673000
C           5.330000    -13.119000      4.881000
C           2.528000    -10.185000      2.889000
C           0.435000    -11.129000      6.861000
C           3.302000    -15.523000      2.343000
C           1.132000     -9.897000      4.934000
C           0.942000    -12.933000      1.397000
C           4.376000    -14.648000      6.494000
C          -0.982000    -12.843000      6.664000
C           3.208000    -12.040000      1.677000
C           2.737000    -13.590000      7.972000
C           1.422000    -14.230000      1.345000
C           0.082000    -10.727000      2.906000
C           1.342000    -16.738000      4.928000
C           2.573000    -16.705000      4.319000
C          -0.749000    -11.868000      2.779000
C           5.043000    -14.434000      5.261000
C           4.614000    -13.732000      2.644000
C           3.567000    -15.786000      6.348000
C           4.566000    -11.000000      4.882000
C          -0.929000    -11.124000      4.890000
C           3.706000    -13.326000      1.724000
C          -0.279000    -12.950000      2.060000
C           3.947000    -13.541000      7.324000
C          -1.664000    -13.468000      4.420000
C           2.248000    -12.316000      7.929000
C          -0.914000    -15.101000      5.720000
C           0.016000    -10.319000      4.259000
C          -1.444000    -12.063000      4.007000
C           3.338000    -10.319000      5.204000
C           4.942000    -12.030000      5.748000
C           1.200000    -16.217000      6.237000
C          -0.732000    -11.536000      6.234000
C           0.489000    -15.072000      1.967000
C           3.729000    -16.234000      5.018000
C           0.370000    -16.328000      4.053000
C           4.302000    -12.226000      7.001000
C           1.893000    -14.730000      7.821000
O          -5.641000     -9.026000      6.900000
C          -7.015000     -9.153000      7.376000
H          -7.710000     -8.511000      6.821000
H          -7.157000     -8.925000      8.440000
H          -7.426000    -10.159000      7.229000
O          -5.314000     -6.829000      7.627000
C          -4.911000     -7.890000      7.083000
C          -3.558000     -8.062000      6.464000
H          -3.748000     -8.158000      5.388000
H          -3.122000     -9.008000      6.808000
C          -2.570000     -6.892000      6.674000
H          -2.849000     -5.977000      6.138000
H          -2.582000     -6.619000      7.736000
C          -1.055000     -7.281000      6.363000
H          -0.701000     -7.946000      7.160000
H          -0.997000     -7.932000      5.481000
C          -0.139000     -6.091000      6.142000
C          -0.381000     -5.414000      4.845000
C          -1.021000     -4.144000      4.838000
H          -1.400000     -3.613000      5.706000
C          -1.213000     -3.538000      3.609000
H          -1.599000     -2.524000      3.578000
C          -0.800000     -4.155000      2.413000
H          -0.867000     -3.582000      1.493000
C          -0.151000     -5.382000      2.424000
H           0.149000     -5.875000      1.504000
C          -0.036000     -6.034000      3.623000
H           0.412000     -7.020000      3.696000
C           4.915000     -4.186000      6.270000
C           3.596000     -2.258000      6.973000
C           4.970000     -2.438000     11.306000
C           4.022000     -8.363000      9.105000
C           2.190000     -4.111000     12.350000
C           3.762000     -3.464000      6.237000
C           3.379000     -7.427000     11.610000
C           6.235000     -2.767000      9.256000
C           0.291000     -3.522000      8.908000
C           2.672000     -8.278000      9.489000
C           0.300000     -5.393000      7.358000
C           0.023000     -4.658000      9.648000
C           1.156000     -7.045000     10.679000
C           3.234000     -6.266000     12.393000
C           1.611000     -3.282000      6.886000
C           4.599000     -4.230000     12.579000
C           1.264000     -6.133000      6.560000
C           1.972000     -7.325000      7.260000
C           3.430000     -3.496000     12.480000
C           6.765000     -6.183000      9.791000
C           6.522000     -4.332000     11.065000
C           6.863000     -3.921000      9.761000
C           5.818000     -2.695000      7.929000
C           3.341000     -7.328000      6.904000
C           0.563000     -3.908000      7.565000
C           4.611000     -1.900000      7.867000
C           2.327000     -7.768000     10.743000
C           2.328000     -2.227000      7.433000
C           0.420000     -4.733000     10.995000
C           5.595000     -7.286000      7.897000
C           5.308000     -1.987000      9.973000
C           0.134000     -5.789000      8.769000
C           6.549000     -5.020000      7.636000
C           0.936000     -5.927000     11.504000
C           1.011000     -2.416000      9.472000
C           5.421000     -6.407000     11.803000
C           4.724000     -7.518000     11.246000
C           1.458000     -2.490000     10.769000
C           4.350000     -7.902000      7.804000
C           1.652000     -7.744000      8.603000
C           6.059000     -7.301000      9.260000
C           2.417000     -5.450000      5.957000
C           3.059000     -1.306000      9.635000
C           0.722000     -6.968000      9.344000
C           1.161000     -3.643000     11.505000
C           5.859000     -6.104000      7.064000
C           3.693000     -2.298000     11.736000
C           5.951000     -3.845000      7.133000
C           5.593000     -3.598000     11.825000
C           2.069000     -1.758000      8.720000
C           2.655000     -1.775000     10.896000
C           2.503000     -4.063000      6.096000
C           3.595000     -6.192000      6.099000
C           6.438000     -5.734000     11.101000
C           4.394000     -1.444000      9.138000
C           2.013000     -5.536000     12.340000
C           5.081000     -7.995000      9.984000
C           4.466000     -5.667000     12.535000
C           4.850000     -5.559000      6.244000
C           6.991000     -5.045000      8.955000
$end

--------------------------------------------------------------

             Standard Nuclear Orientation (Angstroms)
    I     Atom           X                Y                Z
 ----------------------------------------------------------------
    1      O       6.3034992210    -8.2618228295     2.7636479792
    2      C       6.4433447999    -9.4504612927     3.5659021895
    3      H       7.4958383849    -9.7578751807     3.5256162732
    4      H       5.7898694024   -10.2801881877     3.2711070324
    5      H       6.3053636471    -9.0752781818     4.5879025979
    6      O       4.2193250810    -7.7405047340     3.3196404231
    7      C       5.1811778362    -7.5402944189     2.6388422833
    8      C       5.3650744494    -6.4651825502     1.6179566357
    9      H       5.5035671406    -6.9730509107     0.6553983242
   10      H       6.3702588891    -6.0965732966     1.8586752687
   11      C       4.2722520826    -5.3700043181     1.5613976894
   12      H       3.3079452585    -5.7643772784     1.9056117465
   13      H       4.8223395446    -4.6437097704     2.1715239176
   14      C       4.1993026622    -4.7690120129     0.1766909944
   15      H       5.2048202164    -4.4685890988    -0.1414450156
   16      H       3.8688904721    -5.5180438468    -0.5533885194
   17      C       3.2198395732    -3.5787523512     0.1514720526
   18      C       1.7753209534    -4.0426024292     0.3974233935
   19      C       1.1414906370    -3.8980247889     1.6374965510
   20      H       1.6849763359    -3.4062755961     2.4387611930
   21      C      -0.1278327799    -4.4276011941     1.9017424482
   22      H      -0.5925198488    -4.1043807171     2.8277578105
   23      C      -0.8537336445    -5.0456481535     0.8606891879
   24      H      -1.8621836922    -5.4479600709     0.8709176932
   25      C      -0.2629559183    -5.1776154533    -0.3829129631
   26      H      -0.8444978611    -5.5194537180    -1.2332432340
   27      C       1.0336673891    -4.7277724772    -0.5892943958
   28      H       1.5090560274    -4.7292262819    -1.5655062217
   29      C       1.4442259310     0.8381293171    -2.5461390242
   30      C       1.2949291708     1.4334480415    -0.1642179311
   31      C       4.5332220982     4.5857655306    -0.0466493782
   32      C       6.3469801957    -0.7291063076    -3.3303979842
   33      C       6.7784531089     2.2966690918     1.4417931643
   34      C       1.2237719627     0.5016999761    -1.1897676346
   35      C       8.0467079193     0.7687892396    -1.6422985810
   36      C       2.9398579870     4.0529476991    -1.7778971848
   37      C       3.8416943225    -0.3963330860     2.1882944041
   38      C       6.8625504173    -1.3328039583    -2.2018797109
   39      C       3.7024378930    -2.2232396454     0.5919288224
   40      C       5.1403734749    -0.8180717455     1.8483194605
   41      C       7.2464324920    -0.9433599678     0.0517100767
   42      C       8.0031992046     1.7066477995    -0.5952922232
   43      C       1.9621196792    -0.4364419400     0.6895017433
   44      C       6.7311694243     3.8023465549    -0.3446112217
   45      C       3.4617909666    -2.5077956361    -0.8724758160
   46      C       4.6019298265    -2.2674651533    -1.8090833320
   47      C       6.3466409916     3.5144554877     0.9451448087
   48      C       5.2752569272     2.5909614893    -3.9009153459
   49      C       5.3134748409     4.1718182128    -2.2775739120
   50      C       3.9853042304     3.9950427248    -2.6972443260
   51      C       1.9714051298     3.0905824021    -1.7881976070
   52      C       4.0998532051    -1.6720859772    -2.9585235014
   53      C       2.9730328322    -1.2010386764     1.3930295877
   54      C       1.6068483151     2.7505983139    -0.4955344070
   55      C       7.6255972925    -0.5716995520    -1.3178765724
   56      C       1.6511603482     0.8722479544     0.9832483257
   57      C       6.1634432995     0.1525679273     1.9240608605
   58      C       4.4917290649     0.3472845617    -4.2306484706
   59      C       3.2034948907     4.3084151551    -0.4037716585
   60      C       5.1479385159    -1.8248090280     0.8899741082
   61      C       2.8725087280     2.1183904038    -3.7495262444
   62      C       7.2322504481     0.1058339323     1.0461199668
   63      C       3.5413725105     0.9699256339     2.5069743680
   64      C       7.2622952956     2.6631884699    -2.5025964316
   65      C       7.5141320304     1.3427521299    -2.7860697657
   66      C       4.5958030095     1.9168768024     2.5014239304
   67      C       4.9798077601    -0.8708583270    -3.6931718756
   68      C       5.9123555448    -2.0140999194    -1.3804057200
   69      C       5.5532887299     1.2659332320    -4.2347348090
   70      C       2.4002389796    -1.6538091293    -1.4804046153
   71      C       2.7958841797     2.8940741652     1.5807532399
   72      C       6.1505231961    -1.8405419747    -0.0579633546
   73      C       5.8672614460     1.4868906226     2.1741773424
   74      C       3.1344866569     0.7913089547    -3.9874913517
   75      C       5.0279824192     3.9384956624     1.1536909662
   76      C       1.8770209922     2.1321653878    -2.8152562525
   77      C       5.5904833149     4.4350368519    -0.9334670512
   78      C       2.4416263944     1.5755253904     1.8548728306
   79      C       4.0964769660     3.1500597749     1.9925356729
   80      C       1.7247188318    -0.6828963154    -0.6579510680
   81      C       2.7341620953    -1.2382388400    -2.7719264647
   82      C       6.0988404845     3.2769166735    -3.0268068804
   83      C       2.3605091123     3.5151305701     0.3809088781
   84      C       7.6213581544     1.4207235751     0.7528667995
   85      C       6.6676195387     0.6044359453    -3.6721193201
   86      C       7.4751021168     2.9103456998    -1.1713806112
   87      C       2.2184769527    -0.0375362070    -3.3290682965
   88      C       3.9404502812     3.0638578908    -3.7313859644
   89      O       0.1872003979     7.1504055811     3.9730449873
   90      C       0.0958524375     8.5494461911     4.3791507885
   91      H      -0.0786307816     8.6608219158     5.4563532088
   92      H      -0.6878297195     9.1262961642     3.8718733641
   93      H       1.0279481347     9.1031288944     4.2142293669
   94      O      -2.0479210050     6.6099927743     4.3907210730
   95      C      -0.8894351595     6.3154332287     3.9967525212
   96      C      -0.4701593212     4.9488811729     3.5494302098
   97      H       0.2299376416     4.6005460277     4.3185978568
   98      H       0.0878890780     5.0330858088     2.6087710986
   99      C      -1.6040594795     3.9058092002     3.4252718803
  100      H      -2.0361554665     3.6068107278     4.3876932909
  101      H      -2.4306266086     4.3620805192     2.8674903241
  102      C      -1.1902126157     2.6209434621     2.5760853235
  103      H      -1.1157258471     2.9155542826     1.5223271986
  104      H      -0.1578573217     2.3245389410     2.8029683482
  105      C      -2.0919196725     1.4181741816     2.7864836163
  106      C      -1.8984553530     0.7811023077     4.1115545520
  107      C      -2.9028993933     0.9377055062     5.1060979688
  108      H      -3.8113112371     1.5250398376     5.0120112794
  109      C      -2.6924398156     0.3136270389     6.3229684767
  110      H      -3.4867715363     0.3235557548     7.0626248415
  111      C      -1.5290035097    -0.4389974336     6.5712553380
  112      H      -1.4736676531    -1.0034233701     7.4973111167
  113      C      -0.5626389800    -0.6133663501     5.5901406267
  114      H       0.3483735178    -1.1725088737     5.7821428847
  115      C      -0.7141008135     0.0722792370     4.4141816810
  116      H       0.0300192423     0.0241943336     3.6253837445
  117      C      -4.0037354829    -3.2125635996     0.7642193140
  118      C      -5.9149115206    -2.3370881168     2.0020007293
  119      C      -8.3018362358    -1.2710600915    -1.7210812807
  120      C      -2.1339539286     0.1218014958    -2.6516157742
  121      C      -7.3694777489     2.0065858319    -1.6503009717
  122      C      -4.5154437082    -2.4904249657     1.7978790673
  123      C      -4.2901465427     1.6184100208    -3.4735441980
  124      C      -6.9363356091    -3.2275570154    -1.2536480497
  125      C      -5.7958875110     1.6941077904     1.9865461844
  126      C      -2.3485041179     1.3947492551    -2.0941633383
  127      C      -3.3795009774     1.4583925046     2.0800150255
  128      C      -5.2683930405     2.6062289488     1.0922841557
  129      C      -3.9546258819     2.8723011322    -1.4072438890
  130      C      -5.6804774523     1.7906809510    -3.3344841804
  131      C      -4.9166416672    -0.4572125593     2.6845658825
  132      C      -7.5325429024     0.1775427913    -3.2307737842
  133      C      -2.3709238656     0.4857704731     1.6920993215
  134      C      -1.8277095528     0.5934724250     0.2410836428
  135      C      -8.0157658555     0.8767391341    -2.1386483098
  136      C      -4.4630025380    -2.4161602193    -3.5904064366
  137      C      -6.6935504774    -2.1191269848    -3.3788570387
  138      C      -6.3092742440    -3.1615201060    -2.5120431271
  139      C      -6.2193958584    -3.5619948693    -0.1072839209
  140      C      -1.6974426559    -0.7047926152    -0.3052170262
  141      C      -4.7310739175     0.9181178009     2.5256570703
  142      C      -6.7716682554    -2.8308671064     1.0121647799
  143      C      -3.4606746102     2.1510037322    -2.4720481912
  144      C      -6.1327096459    -1.0783329284     2.4361485755
  145      C      -5.9931383185     2.9678226778    -0.0573406776
  146      C      -2.4181179429    -2.0753373334    -2.2210884484
  147      C      -7.9337871977    -2.3368216128    -0.8137630977
  148      C      -3.8463513138     2.4057827068     1.0505512970
  149      C      -4.1829927603    -3.6383101864    -1.4758866371
  150      C      -5.3294117432     3.1392218372    -1.2743297332
  151      C      -7.0636614691     1.0642702110     1.7503559757
  152      C      -5.3484098434    -0.2546905181    -4.2603009315
  153      C      -4.0817520918     0.3611738536    -4.0442726559
  154      C      -7.7635538934     1.3598424415     0.6056806283
  155      C      -1.7917447335    -0.9228139174    -1.7547448217
  156      C      -2.2286981012     1.6402113454    -0.6672972336
  157      C      -3.2048686280    -1.7780496215    -3.3898199726
  158      C      -2.6521625697    -0.9545253859     1.7692979604
  159      C      -8.1791423217    -0.8544475758     1.0242722876
  160      C      -3.2363279003     2.5464196297    -0.2434744720
  161      C      -7.2182502128     2.2986652597    -0.2778178788
  162      C      -2.9303759313    -3.0433627313    -1.2406663035
  163      C      -8.5916439434    -0.0510764879    -1.2083625475
  164      C      -4.8300676341    -3.7340073390    -0.2255370209
  165      C      -7.6775239472    -1.1922770705    -2.9888026231
  166      C      -7.2346089041    -0.3645417508     1.9673936508
  167      C      -8.4879431184     0.2350503329     0.1930476641
  168      C      -3.8750207467    -1.3550253378     2.3121641201
  169      C      -2.1872715342    -1.6375537231     0.6398022252
  170      C      -5.5578410024    -1.6294635156    -4.0454526247
  171      C      -7.8560852788    -2.1557057660     0.5236334261
  172      C      -6.1837093967     2.5564249163    -2.2450146812
  173      C      -2.9927967619    -0.4183644700    -3.6516936297
  174      C      -6.3200023043     0.6779273134    -3.8340603064
  175      C      -2.8576756984    -2.7774666910     0.1419109898
  176      C      -4.9353529320    -3.3418456254    -2.6080584157
 ----------------------------------------------------------------

    9   -5804.2693097324      8.88E-06 Convergence criterion met
 Total energy in the final basis set = -5804.2693097324

                    Orbital Energies (a.u.)
 --------------------------------------------------------------

 Alpha MOs
 -- Occupied --
-19.198 -19.182 -19.134 -19.129 -10.321 -10.310 -10.250 -10.249
-10.243 -10.243 -10.239 -10.237 -10.235 -10.234 -10.232 -10.231
-10.231 -10.231 -10.230 -10.230 -10.228 -10.228 -10.228 -10.226
-10.226 -10.225 -10.224 -10.223 -10.223 -10.222 -10.222 -10.222
-10.222 -10.221 -10.221 -10.221 -10.220 -10.220 -10.220 -10.220
-10.220 -10.220 -10.220 -10.219 -10.219 -10.219 -10.219 -10.219
-10.219 -10.219 -10.218 -10.218 -10.218 -10.218 -10.218 -10.217
-10.217 -10.217 -10.217 -10.217 -10.217 -10.217 -10.217 -10.217
-10.216 -10.216 -10.216 -10.216 -10.216 -10.216 -10.216 -10.216
-10.215 -10.215 -10.215 -10.215 -10.215 -10.215 -10.215 -10.215
-10.215 -10.215 -10.215 -10.215 -10.215 -10.215 -10.214 -10.214
-10.214 -10.214 -10.214 -10.214 -10.214 -10.214 -10.214 -10.213
-10.213 -10.212 -10.212 -10.212 -10.212 -10.212 -10.212 -10.212
-10.212 -10.212 -10.212 -10.212 -10.211 -10.211 -10.211 -10.210
-10.210 -10.210 -10.210 -10.210 -10.210 -10.210 -10.210 -10.210
-10.209 -10.209 -10.209 -10.209 -10.209 -10.209 -10.208 -10.208
-10.208 -10.205 -10.204 -10.203 -10.203 -10.201 -10.200 -10.199
-10.199 -10.198 -10.197 -10.197 -10.197 -10.197 -10.197 -10.195
-10.194 -10.194 -10.194 -10.194  -1.100  -1.084  -1.013  -0.993
 -0.988  -0.982  -0.970  -0.968  -0.968  -0.963  -0.962  -0.956
 -0.940  -0.939  -0.934  -0.930  -0.924  -0.924  -0.923  -0.923
 -0.919  -0.917  -0.905  -0.899  -0.895  -0.887  -0.885  -0.883
 -0.877  -0.875  -0.857  -0.856  -0.846  -0.842  -0.838  -0.838
 -0.837  -0.833  -0.824  -0.818  -0.811  -0.804  -0.800  -0.799
 -0.797  -0.796  -0.794  -0.793  -0.791  -0.790  -0.786  -0.781
 -0.776  -0.773  -0.769  -0.768  -0.767  -0.765  -0.764  -0.761
 -0.757  -0.753  -0.748  -0.743  -0.739  -0.734  -0.720  -0.719
 -0.715  -0.714  -0.713  -0.713  -0.712  -0.710  -0.709  -0.709
 -0.707  -0.707  -0.705  -0.705  -0.704  -0.703  -0.676  -0.671
 -0.662  -0.659  -0.656  -0.654  -0.648  -0.648  -0.634  -0.631
 -0.631  -0.629  -0.627  -0.624  -0.623  -0.622  -0.621  -0.618
 -0.618  -0.615  -0.614  -0.612  -0.611  -0.608  -0.607  -0.607
 -0.606  -0.604  -0.604  -0.600  -0.566  -0.566  -0.564  -0.563
 -0.562  -0.562  -0.559  -0.558  -0.557  -0.556  -0.555  -0.553
 -0.538  -0.538  -0.537  -0.533  -0.531  -0.528  -0.526  -0.526
 -0.523  -0.522  -0.520  -0.520  -0.518  -0.518  -0.514  -0.513
 -0.509  -0.506  -0.506  -0.496  -0.494  -0.492  -0.489  -0.488
 -0.485  -0.484  -0.483  -0.483  -0.479  -0.479  -0.476  -0.476
 -0.473  -0.471  -0.471  -0.470  -0.469  -0.468  -0.468  -0.467
 -0.466  -0.465  -0.464  -0.463  -0.462  -0.461  -0.460  -0.458
 -0.458  -0.456  -0.455  -0.453  -0.452  -0.447  -0.446  -0.446
 -0.443  -0.442  -0.441  -0.439  -0.439  -0.437  -0.437  -0.433
 -0.432  -0.431  -0.430  -0.429  -0.429  -0.428  -0.427  -0.426
 -0.424  -0.422  -0.422  -0.421  -0.421  -0.420  -0.419  -0.418
 -0.418  -0.417  -0.415  -0.415  -0.415  -0.414  -0.412  -0.411
 -0.410  -0.410  -0.409  -0.407  -0.405  -0.401  -0.399  -0.397
 -0.396  -0.394  -0.392  -0.391  -0.388  -0.387  -0.385  -0.381
 -0.380  -0.374  -0.373  -0.373  -0.371  -0.370  -0.369  -0.368
 -0.366  -0.365  -0.364  -0.363  -0.362  -0.362  -0.360  -0.359
 -0.358  -0.356  -0.355  -0.354  -0.353  -0.353  -0.352  -0.352
 -0.349  -0.348  -0.348  -0.347  -0.347  -0.345  -0.344  -0.343
 -0.343  -0.342  -0.341  -0.338  -0.338  -0.334  -0.334  -0.333
 -0.332  -0.331  -0.330  -0.329  -0.329  -0.326  -0.325  -0.323
 -0.317  -0.308  -0.298  -0.297  -0.289  -0.288  -0.275  -0.271
 -0.270  -0.269  -0.268  -0.267  -0.267  -0.266  -0.265  -0.264
 -0.263  -0.262  -0.261  -0.260  -0.259  -0.257  -0.256  -0.254
 -0.249  -0.246  -0.245  -0.241  -0.225  -0.221  -0.215  -0.213
 -0.211  -0.209  -0.209  -0.204  -0.198  -0.194

          Ground-State Mulliken Net Atomic Charges

     Atom                 Charge (a.u.)
  ----------------------------------------
      1 O                    -0.473311
      2 C                    -0.076840
      3 H                     0.125252
      4 H                     0.130558
      5 H                     0.129212
      6 O                    -0.467527
      7 C                     0.586262
      8 C                    -0.283119
      9 H                     0.129949
     10 H                     0.135221
     11 C                    -0.167383
     12 H                     0.145675
     13 H                     0.110841
     14 C                    -0.188158
     15 H                     0.103197
     16 H                     0.109153
     17 C                     0.017323
     18 C                     0.102268
     19 C                    -0.118959
     20 H                     0.089741
     21 C                    -0.096099
     22 H                     0.099681
     23 C                    -0.086916
     24 H                     0.098427
     25 C                    -0.078143
     26 H                     0.096948
     27 C                    -0.111738
     28 H                     0.082694
     29 C                    -0.025901
     30 C                     0.030494
     31 C                    -0.011965
     32 C                     0.014650
     33 C                     0.003947
     34 C                    -0.009762
     35 C                    -0.011495
     36 C                     0.000591
     37 C                    -0.003412
     38 C                    -0.023149
     39 C                    -0.069927
     40 C                     0.011557
     41 C                    -0.033726
     42 C                    -0.015169
     43 C                    -0.006460
     44 C                     0.011066
     45 C                    -0.113834
     46 C                     0.049565
     47 C                     0.009529
     48 C                     0.013625
     49 C                     0.009422
     50 C                     0.000208
     51 C                     0.010525
     52 C                    -0.015966
     53 C                    -0.022501
     54 C                    -0.012421
     55 C                    -0.000767
     56 C                     0.013546
     57 C                    -0.001764
     58 C                     0.001478
     59 C                     0.000297
     60 C                     0.048579
     61 C                     0.001728
     62 C                    -0.013724
     63 C                    -0.020390
     64 C                    -0.005019
     65 C                     0.013358
     66 C                    -0.017091
     67 C                    -0.009975
     68 C                     0.008774
     69 C                    -0.018168
     70 C                     0.031846
     71 C                     0.011027
     72 C                     0.013732
     73 C                     0.023430
     74 C                     0.017497
     75 C                    -0.010850
     76 C                     0.013525
     77 C                    -0.011047
     78 C                     0.006064
     79 C                    -0.023963
     80 C                     0.034394
     81 C                     0.010828
     82 C                    -0.007543
     83 C                    -0.011558
     84 C                    -0.002284
     85 C                    -0.002790
     86 C                     0.016917
     87 C                    -0.016426
     88 C                    -0.017647
     89 O                    -0.465997
     90 C                    -0.088975
     91 H                     0.128876
     92 H                     0.134074
     93 H                     0.126782
     94 O                    -0.494286
     95 C                     0.606259
     96 C                    -0.264762
     97 H                     0.143910
     98 H                     0.135698
     99 C                    -0.178291
    100 H                     0.118655
    101 H                     0.119203
    102 C                    -0.206077
    103 H                     0.108253
    104 H                     0.104077
    105 C                     0.022308
    106 C                     0.075197
    107 C                    -0.098822
    108 H                     0.102624
    109 C                    -0.094254
    110 H                     0.089512
    111 C                    -0.086555
    112 H                     0.087125
    113 C                    -0.087224
    114 H                     0.094557
    115 C                    -0.097201
    116 H                     0.090231
    117 C                     0.016903
    118 C                    -0.028194
    119 C                     0.009474
    120 C                    -0.004590
    121 C                     0.005945
    122 C                    -0.003527
    123 C                     0.000469
    124 C                    -0.001031
    125 C                     0.004631
    126 C                    -0.007952
    127 C                    -0.063492
    128 C                     0.007034
    129 C                     0.011628
    130 C                     0.005147
    131 C                     0.008288
    132 C                    -0.018253
    133 C                    -0.088575
    134 C                     0.020228
    135 C                     0.010704
    136 C                    -0.015701
    137 C                    -0.007502
    138 C                     0.010247
    139 C                    -0.024200
    140 C                     0.008395
    141 C                    -0.007730
    142 C                     0.010178
    143 C                     0.018448
    144 C                     0.031653
    145 C                     0.001329
    146 C                    -0.030339
    147 C                     0.003025
    148 C                     0.047531
    149 C                     0.004546
    150 C                    -0.015452
    151 C                    -0.028673
    152 C                     0.004364
    153 C                    -0.002886
    154 C                     0.025638
    155 C                     0.016796
    156 C                    -0.032226
    157 C                     0.010165
    158 C                     0.038348
    159 C                    -0.023281
    160 C                    -0.013376
    161 C                     0.006936
    162 C                    -0.011389
    163 C                    -0.023762
    164 C                    -0.017283
    165 C                     0.012789
    166 C                    -0.011031
    167 C                     0.001825
    168 C                     0.007951
    169 C                     0.010707
    170 C                     0.001075
    171 C                     0.012671
    172 C                    -0.024334
    173 C                    -0.008572
    174 C                    -0.005572
    175 C                    -0.007409
    176 C                     0.006655
  ----------------------------------------
  Sum of atomic charges =     0.000000

                    Cartesian Multipole Moments
 -----------------------------------------------------------------
    Charge (ESU x 10^10)
                 0.0000
    Dipole Moment (Debye)
         X       4.0416      Y      -1.7317      Z       1.3327
       Tot       4.5945
    Quadrupole Moments (Debye-Ang)
        XX    -812.2659     XY     -10.7189     YY    -776.9836
        XZ       8.8527     YZ       2.6033     ZZ    -804.4063

 Total job time:  859.75s(wall), 7312.48s(cpu)
        *  Thank you very much for using Q-Chem.  Have a nice day.  *
