 Q-Chem 4.4, Q-Chem, Inc., Pleasanton, CA (2016)
 Q-Chem 4.4.2 for Intel X86 Linux

User input:
--------------------------------------------------------------
$comment
SP
$end

$rem
MEM_STATIC 5000
MEM_TOTAL 20000
JOBTYPE SP
EXCHANGE B3LYP
BASIS 6-31g(d,p)
$end

$molecule
0 1
O         -19.420000     -1.551000     -7.245000
C         -19.356000     -3.046000     -7.141000
H         -19.947000     -3.353000     -6.269000
H         -18.351000     -3.486000     -7.127000
H         -19.817000     -3.441000     -8.055000
O         -21.638000     -1.404000     -6.572000
C         -20.601000     -0.885000     -6.928000
C         -20.432000      0.643000     -7.048000
H         -19.765000      1.021000     -6.264000
H         -21.451000      1.027000     -6.916000
C         -20.015000      1.161000     -8.431000
H         -19.013000      0.783000     -8.670000
H         -20.755000      0.843000     -9.176000
C         -20.007000      2.629000     -8.424000
H         -21.028000      2.942000     -8.677000
H         -19.713000      3.038000     -7.449000
C         -19.215000      3.235000     -9.657000
C         -19.251000      2.372000    -10.917000
C         -20.503000      2.031000    -11.466000
H         -21.389000      2.571000    -11.144000
C         -20.667000      1.054000    -12.511000
H         -21.671000      0.809000    -12.844000
C         -19.523000      0.390000    -13.031000
H         -19.704000     -0.363000    -13.793000
C         -18.341000      0.632000    -12.378000
H         -17.495000      0.012000    -12.658000
C         -18.140000      1.631000    -11.424000
H         -17.179000      1.776000    -10.938000
C         -14.757000      5.830000    -11.447000
C         -16.509000      6.619000    -12.914000
C         -16.758000     10.805000    -11.068000
C         -15.962000      6.449000     -6.599000
C         -19.570000     10.070000     -8.967000
C         -15.938000      5.562000    -12.153000
C         -17.562000      8.714000     -6.225000
C         -14.814000      9.382000    -11.634000
C         -20.045000      6.601000    -10.913000
C         -17.333000      6.344000     -6.524000
C         -19.319000      4.679000     -9.793000
C         -20.423000      6.788000     -9.585000
C         -19.294000      7.231000     -7.021000
C         -18.185000      9.766000     -6.923000
C         -18.148000      5.465000    -11.887000
C         -17.302000     11.011000     -8.853000
C         -17.971000      4.044000     -9.406000
C         -17.351000      4.524000     -8.121000
C         -18.509000     10.811000     -9.561000
C         -14.093000      8.726000     -8.301000
C         -15.011000     10.469000     -9.427000
C         -14.327000      9.598000    -10.352000
C         -14.694000      8.099000    -12.270000
C         -15.922000      4.631000     -8.265000
C         -19.283000      5.457000    -11.019000
C         -15.902000      7.898000    -12.865000
C         -18.129000      7.456000     -6.322000
C         -17.845000      6.519000    -12.762000
C         -20.523000      8.051000     -8.997000
C         -14.278000      6.372000     -8.077000
C         -16.061000      9.983000    -11.875000
C         -19.887000      5.681000     -8.847000
C         -13.607000      7.354000    -10.210000
C         -19.979000      8.272000     -7.689000
C         -19.804000      7.672000    -11.767000
C         -15.913000      9.965000     -7.151000
C         -16.141000      8.828000     -6.306000
C         -19.870000      8.972000    -11.162000
C         -15.285000      5.626000     -7.517000
C         -18.017000      5.315000     -7.228000
C         -14.408000      7.650000     -7.514000
C         -16.818000      4.216000    -10.307000
C         -18.125000      8.939000    -12.618000
C         -19.241000      5.953000     -7.594000
C         -20.183000      9.114000     -9.800000
C         -13.916000      6.243000     -9.419000
C         -18.187000     10.673000    -10.922000
C         -14.083000      7.070000    -11.502000
C         -16.249000     11.044000     -9.784000
C         -18.706000      7.634000    -12.653000
C         -18.836000      9.745000    -11.720000
C         -16.961000      4.772000    -11.607000
C         -15.610000      4.558000     -9.606000
C         -14.897000      9.875000     -8.158000
C         -16.729000      9.073000    -12.683000
C         -19.436000      9.557000     -7.633000
C         -15.355000      7.724000     -6.532000
C         -17.144000     10.504000     -7.522000
C         -14.626000      5.306000    -10.192000
C         -13.678000      8.600000     -9.608000
O         -12.028000      8.808000     -5.644000
C         -11.163000      7.819000     -6.294000
H         -11.736000      6.950000     -6.639000
H         -10.457000      7.481000     -5.526000
H         -10.534000      8.236000     -7.091000
O         -10.217000     10.160000     -5.351000
C         -11.394000      9.900000     -5.152000
C         -12.298000     10.724000     -4.183000
H         -12.060000     10.506000     -3.135000
H         -13.292000     10.324000     -4.418000
C         -12.290000     12.230000     -4.506000
H         -13.050000     12.817000     -3.977000
H         -11.325000     12.613000     -4.153000
C         -12.438000     12.610000     -6.045000
H         -11.808000     11.933000     -6.636000
H         -13.481000     12.463000     -6.351000
C         -12.049000     14.061000     -6.435000
C         -10.641000     14.450000     -6.064000
C          -9.598000     13.857000     -6.819000
H          -9.863000     13.158000     -7.606000
C          -8.255000     14.108000     -6.500000
H          -7.485000     13.575000     -7.051000
C          -7.915000     14.899000     -5.438000
H          -6.870000     15.019000     -5.168000
C          -9.001000     15.484000     -4.685000
H          -8.766000     16.069000     -3.801000
C         -10.345000     15.227000     -5.014000
H         -11.107000     15.708000     -4.408000
C         -13.657000     19.407000     -6.374000
C         -12.416000     19.221000     -8.477000
C         -15.962000     19.449000    -11.308000
C         -17.307000     15.934000     -6.329000
C         -16.180000     16.107000    -11.817000
C         -12.634000     18.844000     -7.178000
C         -18.161000     15.443000     -8.887000
C         -15.428000     20.651000     -9.231000
C         -12.548000     15.445000     -9.949000
C         -16.848000     14.794000     -6.978000
C         -12.701000     14.728000     -7.649000
C         -13.640000     14.558000     -9.813000
C         -16.243000     14.022000     -8.959000
C         -17.966000     15.787000    -10.225000
C         -11.826000     17.013000     -8.226000
C         -17.628000     17.952000    -11.222000
C         -13.148000     15.193000     -6.307000
C         -14.601000     15.048000     -6.015000
C         -16.535000     17.431000    -11.985000
C         -18.029000     19.168000     -7.335000
C         -17.669000     19.694000     -9.553000
C         -16.782000     20.444000     -8.741000
C         -14.370000     20.586000     -8.357000
C         -15.062000     16.239000     -5.420000
C         -12.043000     15.681000     -8.621000
C         -13.279000     20.114000     -9.080000
C         -17.284000     14.529000     -8.234000
C         -11.966000     18.092000     -9.164000
C         -14.718000     14.664000    -10.719000
C         -16.743000     18.020000     -5.619000
C         -15.057000     20.157000    -10.482000
C         -13.785000     14.113000     -8.507000
C         -15.807000     20.029000     -6.572000
C         -15.983000     14.364000    -10.290000
C         -12.677000     16.568000    -10.883000
C         -18.769000     17.646000     -9.081000
C         -18.593000     16.576000     -8.186000
C         -13.766000     16.611000    -11.741000
C         -16.377000     16.655000     -5.541000
C         -15.540000     14.389000     -6.839000
C         -17.878000     18.093000     -6.468000
C         -12.975000     16.643000     -6.163000
C         -13.249000     18.732000    -11.085000
C         -15.123000     13.829000     -8.084000
C         -14.860000     15.680000    -11.700000
C         -15.726000     18.987000     -5.633000
C         -15.522000     18.313000    -12.064000
C         -14.496000     20.325000     -7.028000
C         -17.320000     19.215000    -10.813000
C         -12.321000     17.863000    -10.497000
C         -14.142000     17.936000    -11.946000
C         -12.218000     17.489000     -6.987000
C         -14.051000     17.200000     -5.484000
C         -18.408000     18.934000     -8.677000
C         -13.730000     19.856000    -10.385000
C         -16.891000     15.231000    -10.949000
C         -18.201000     16.840000     -6.873000
C         -18.353000     17.134000    -10.348000
C         -14.395000     18.571000     -5.573000
C         -16.979000     20.105000     -7.394000
$end

--------------------------------------------------------------

             Standard Nuclear Orientation (Angstroms)
    I     Atom           X                Y                Z
 ----------------------------------------------------------------
    1      O      12.9750340265     1.6181995865     2.0614906814
    2      C      14.3795529133     2.1390755378     1.9843418645
    3      H      14.7642433400     2.2359276695     3.0073506328
    4      H      14.5209639640     3.0614397534     1.4072212804
    5      H      14.9619051071     1.3831438548     1.4427006428
    6      O      13.3928037386     0.1965218164     3.8498873895
    7      C      12.6383875963     0.6760398426     3.0298966902
    8      C      11.1390373427     0.3211219566     2.9688466199
    9      H      10.5267363484     1.1729961008     3.2879499493
   10      H      11.0428898106    -0.5167200328     3.6702861774
   11      C      10.6433791852    -0.2516724429     1.6342562082
   12      H      10.7474503755     0.5124022110     0.8536358712
   13      H      11.2152209068    -1.1563454675     1.3927758489
   14      C       9.2354572353    -0.6473809483     1.7619572720
   15      H       9.2400423412    -1.6783601075     2.1380954781
   16      H       8.6808895661     0.0063628880     2.4470964525
   17      C       8.5390714125    -0.8663143596     0.3541561685
   18      C       9.4805294443    -1.3472886194    -0.7485611733
   19      C      10.1999015778    -2.5421034636    -0.5482932989
   20      H       9.9016702183    -3.2139030366     0.2517213197
   21      C      11.2679632983    -2.9746271735    -1.4117847010
   22      H      11.8086294817    -3.8818036775    -1.1595132822
   23      C      11.6299396922    -2.1735706968    -2.5286166540
   24      H      12.4646250660    -2.5262014447    -3.1280879899
   25      C      11.0160263556    -0.9495731941    -2.6125066328
   26      H      11.3984034470    -0.2641807662    -3.3625339520
   27      C       9.9242667111    -0.5438527694    -1.8431108857
   28      H       9.4784318502     0.4409668716    -1.9531270284
   29      C       4.9693404442     0.9521208666    -3.3555881815
   30      C       4.8225326121    -1.4532143309    -3.5477444926
   31      C       0.7303711141    -1.7944025301    -1.5154753454
   32      C       4.3051469570     2.4894589795     1.3913822775
   33      C       2.0375028284    -2.6576348770     1.7106688852
   34      C       5.6122983109    -0.2929719736    -3.3185746575
   35      C       2.5493631963     0.8058579130     2.7744266854
   36      C       1.6009382662    -0.1774634840    -3.1744032989
   37      C       5.6524268327    -3.1408335383     0.0537604697
   38      C       4.7793922419     1.4777847798     2.1963032197
   39      C       7.1971333091    -1.4222072229     0.4222241583
   40      C       5.4670760593    -2.7623471819     1.3818531505
   41      C       4.5155372097    -0.5874794720     2.9341128783
   42      C       1.7735246122    -0.3594767206     2.6257435212
   43      C       6.2954595335    -1.8641342420    -1.8941432375
   44      C       0.4986163108    -1.0656019507     0.6431669193
   45      C       7.3989021451     0.0293334263    -0.0493869956
   46      C       6.6600707079     1.0907394465     0.7210481850
   47      C       1.0838610987    -2.3511083540     0.6986180258
   48      C       1.7500598375     2.4011262074    -0.8532604855
   49      C       0.4304074287     0.5771915870    -1.1368605920
   50      C       1.1519150217     0.8503363795    -2.3562623780
   51      C       2.8489442497    -0.0769312577    -3.8796403771
   52      C       6.1736088220     2.1097786382    -0.1728980994
   53      C       6.5450804565    -2.2814071840    -0.5505340359
   54      C       3.4259667448    -1.3009650827    -3.7297196140
   55      C       3.9187582072     0.6530364137     2.8963483548
   56      C       5.2758467188    -2.3964149891    -2.6975216753
   57      C       4.2366866797    -2.8678981328     2.0344739987
   58      C       4.0357601207     3.0288328999    -0.7679638056
   59      C       1.3914991356    -1.4598187755    -2.6396218885
   60      C       6.3163262716    -1.6285158772     1.6067745801
   61      C       3.0883378139     2.1167785015    -2.8258271992
   62      C       3.7649022480    -1.7822403358     2.8434286314
   63      C       4.6319701956    -3.7152186082    -0.6966980856
   64      C       0.9723670019     1.2532536447     1.2077109925
   65      C       2.0531463391     1.8512071873     1.9378791821
   66      C       3.3553187582    -3.7948447102    -0.0453903309
   67      C       4.9820650946     2.7476492625     0.1857697308
   68      C       6.0128250119     0.8363627372     1.8970802844
   69      C       2.8014209634     2.8817485846    -0.1184054565
   70      C       6.9900784719     0.3973667199    -1.4162113073
   71      C       3.0250672996    -3.2074330683    -2.2160887294
   72      C       5.7720564171    -0.5066406147     2.3184453052
   73      C       3.1921780929    -3.3339757516     1.2714854895
   74      C       4.1712018721     2.6140061169    -2.0939439231
   75      C       1.2405947584    -2.8054328363    -0.6220154679
   76      C       3.6002361445     1.1109733304    -3.6641660668
   77      C       0.2530676422    -0.7545044294    -0.7057523458
   78      C       4.4381410577    -3.3242980823    -2.0389556644
   79      C       2.3755189750    -3.4987232668    -1.0099386582
   80      C       6.6063251238    -0.5822958843    -2.3715016034
   81      C       6.2692248364     1.6405633869    -1.4658206129
   82      C       0.8611656986     1.5274716896    -0.1947310683
   83      C       2.5152977464    -2.1785638570    -3.0239006807
   84      C       2.3797473643    -1.6783119824     2.7028766990
   85      C       2.9109033832     2.6526878644     1.2240377587
   86      C       0.8287164968    -0.0706453183     1.6202386500
   87      C       5.3295566317     1.8887828957    -2.4284039810
   88      C       1.8650102850     2.0464908104    -2.1789188615
   89      O       0.8768304047     5.4654043114     0.2322200804
   90      C       1.6380992214     6.0648472965    -0.8677725997
   91      H       2.6575744343     5.6637052956    -0.9154211618
   92      H       1.7016573972     7.1366733588    -0.6449425063
   93      H       1.1313110813     6.0087093282    -1.8397568123
   94      O      -0.9437578904     6.6813813544    -0.4004979378
   95      C      -0.3853029074     5.9336632262     0.3879027425
   96      C      -1.0045254519     5.5240483306     1.7604667948
   97      H      -0.9495373214     6.3469945805     2.4831062451
   98      H      -0.3264718235     4.7213729892     2.0754534187
   99      C      -2.4212029407     4.9368151669     1.6169011156
  100      H      -2.8166695010     4.4649950347     2.5240956716
  101      H      -3.0848214965     5.7860347871     1.4145167066
  102      C      -2.6151080577     3.8707647575     0.4503839361
  103      H      -2.0922740812     4.2308759110    -0.4448671964
  104      H      -2.1596934443     2.9205300443     0.7549254270
  105      C      -4.0791415777     3.5626291185     0.0374913588
  106      C      -4.8728020685     4.7696311698    -0.3922470191
  107      C      -4.5311223445     5.3424526215    -1.6431081428
  108      H      -3.7227482517     4.8948951591    -2.2126857441
  109      C      -5.1703253248     6.5077927148    -2.0923441797
  110      H      -4.8274764162     6.9605063541    -3.0186783454
  111      C      -6.1105613886     7.1399455365    -1.3271880164
  112      H      -6.5376741715     8.0794756825    -1.6650974355
  113      C      -6.4324974979     6.5343078458    -0.0551069934
  114      H      -7.1315568702     7.0429189153     0.6018075931
  115      C      -5.7864374706     5.3643520778     0.3858419178
  116      H      -6.0863340470     4.9624975053     1.3490739490
  117      C      -8.7555401066     0.8492112989     1.4295263927
  118      C      -8.7454989123     0.7263146791    -1.0163030362
  119      C      -7.7439194526    -3.6877604537    -1.4080176102
  120      C      -4.4233488007    -1.0461005788     3.1691140955
  121      C      -4.4420501282    -3.2150203268    -1.9994098125
  122      C      -8.4329309910     1.3710782217     0.1514449112
  123      C      -3.5025937785    -2.9874062283     1.4669673438
  124      C      -9.2162665858    -2.4593842226     0.1305449507
  125      C      -4.9714670056     0.8586600244    -2.4933107807
  126      C      -3.4050949480    -0.7247328979     2.2795277281
  127      C      -4.4352506362     2.1978051360    -0.5576815871
  128      C      -3.8311577416     0.3168045513    -1.8578452594
  129      C      -2.6680755963    -1.1205569676     0.2334349196
  130      C      -3.7739362127    -3.6625884168     0.2765441855
  131      C      -6.8166220262     1.9400129479    -1.3208280282
  132      C      -5.8564512996    -4.5413335267    -0.5519580441
  133      C      -4.8687392778     2.4526645229     0.8437934539
  134      C      -4.3516383815     1.5063772284     1.8707525668
  135      C      -5.5968771879    -3.9533518252    -1.8306909322
  136      C      -7.2345052226    -3.0617681712     3.0061425369
  137      C      -7.6521424786    -4.1397847732     1.0088295098
  138      C      -8.6838327165    -3.2017989620     1.2626224788
  139      C      -9.5204541891    -1.1271294415     0.2720797527
  140      C      -5.4136341931     1.1397100432     2.7208978904
  141      C      -5.4484724774     1.9203670046    -1.6450483991
  142      C      -9.3105742930    -0.5323313924    -0.9680652832
  143      C      -2.9254828594    -1.6844798839     1.4508450581
  144      C      -7.7320991109     1.0166947641    -1.9316227884
  145      C      -3.5579922458    -1.0601207450    -2.0115115876
  146      C      -6.6357453231    -0.7883092607     3.6300232667
  147      C      -8.7415696816    -2.7162795865    -1.1560574047
  148      C      -3.4743228317     1.0418116634    -0.7301398305
  149      C      -8.7383809725    -1.1279122043     2.4968952217
  150      C      -2.9561064788    -1.7400554762    -0.9869686237
  151      C      -5.9324431377    -0.0659487590    -3.1030233944
  152      C      -5.4264656882    -4.1826589132     1.8283492671
  153      C      -4.5259831752    -3.2570089734     2.3844108040
  154      C      -5.5999441828    -1.4078063242    -3.2161459823
  155      C      -5.4371916725    -0.0793311421     3.3768747451
  156      C      -3.3916323657     0.4956172024     1.6433089045
  157      C      -6.3199640407    -2.1698223214     3.5521846852
  158      C      -6.3166327684     2.2672828008     0.9934699616
  159      C      -7.8282947328    -1.2264000726    -2.7713858239
  160      C      -2.8670151445     0.2965584529     0.3308050434
  161      C      -4.4090150027    -1.9911866576    -2.6624013890
  162      C      -7.8420488268    -0.2608313422     3.1440470302
  163      C      -6.7152732427    -3.4411853471    -2.3758604135
  164      C      -9.3469289972    -0.4253840001     1.4243298746
  165      C      -7.1849518189    -4.4231241046    -0.2719100073
  166      C      -7.3029529822     0.0686734899    -2.8656700377
  167      C      -6.7468111182    -2.1832812534    -3.0666104793
  168      C      -7.2672648428     2.1787313900    -0.0342451287
  169      C      -6.6083472452     1.6366851668     2.1960984528
  170      C      -6.7931676641    -4.0322821541     2.0773342852
  171      C      -8.8294039315    -1.5327285919    -1.8286874573
  172      C      -3.4791357976    -3.0577407170    -0.9628867224
  173      C      -4.9972121608    -2.3004386699     3.2845471812
  174      C      -4.9456741013    -4.4078453291     0.5022197380
  175      C      -7.8178213807     0.9373742704     2.4285518586
  176      C      -8.4174749244    -2.5246404427     2.4620593743
 ----------------------------------------------------------------

    9   -5804.2725852142      8.36E-06 Convergence criterion met
 Total energy in the final basis set = -5804.2725852142

                    Orbital Energies (a.u.)
 --------------------------------------------------------------

 Alpha MOs
 -- Occupied --
-19.202 -19.191 -19.141 -19.137 -10.321 -10.320 -10.252 -10.248
-10.247 -10.244 -10.242 -10.240 -10.236 -10.236 -10.233 -10.231
-10.228 -10.226 -10.226 -10.224 -10.223 -10.222 -10.222 -10.221
-10.221 -10.221 -10.220 -10.220 -10.220 -10.220 -10.219 -10.219
-10.219 -10.218 -10.218 -10.218 -10.218 -10.218 -10.218 -10.218
-10.217 -10.217 -10.217 -10.216 -10.216 -10.216 -10.216 -10.216
-10.215 -10.215 -10.215 -10.215 -10.215 -10.215 -10.215 -10.215
-10.214 -10.214 -10.214 -10.214 -10.213 -10.213 -10.213 -10.213
-10.213 -10.213 -10.213 -10.213 -10.213 -10.213 -10.213 -10.213
-10.212 -10.212 -10.212 -10.212 -10.212 -10.212 -10.212 -10.212
-10.212 -10.211 -10.211 -10.211 -10.211 -10.211 -10.211 -10.211
-10.211 -10.211 -10.211 -10.211 -10.211 -10.211 -10.210 -10.210
-10.210 -10.210 -10.210 -10.210 -10.210 -10.210 -10.210 -10.209
-10.209 -10.209 -10.209 -10.209 -10.209 -10.209 -10.209 -10.208
-10.208 -10.208 -10.208 -10.207 -10.207 -10.207 -10.207 -10.207
-10.207 -10.207 -10.206 -10.206 -10.206 -10.206 -10.206 -10.206
-10.205 -10.205 -10.205 -10.205 -10.204 -10.204 -10.203 -10.203
-10.203 -10.203 -10.201 -10.201 -10.200 -10.199 -10.198 -10.195
-10.194 -10.192 -10.190 -10.190  -1.098  -1.079  -1.010  -1.007
 -0.987  -0.981  -0.969  -0.966  -0.964  -0.963  -0.961  -0.958
 -0.938  -0.933  -0.929  -0.927  -0.925  -0.925  -0.923  -0.922
 -0.919  -0.917  -0.898  -0.895  -0.891  -0.886  -0.885  -0.883
 -0.879  -0.871  -0.857  -0.851  -0.844  -0.843  -0.838  -0.838
 -0.837  -0.834  -0.828  -0.819  -0.814  -0.802  -0.799  -0.796
 -0.796  -0.795  -0.793  -0.793  -0.791  -0.789  -0.788  -0.780
 -0.773  -0.771  -0.769  -0.768  -0.767  -0.765  -0.764  -0.763
 -0.748  -0.748  -0.743  -0.736  -0.735  -0.731  -0.718  -0.718
 -0.715  -0.714  -0.713  -0.712  -0.711  -0.710  -0.709  -0.708
 -0.706  -0.706  -0.704  -0.703  -0.702  -0.698  -0.679  -0.669
 -0.662  -0.659  -0.657  -0.654  -0.649  -0.645  -0.633  -0.630
 -0.629  -0.624  -0.624  -0.621  -0.621  -0.619  -0.619  -0.618
 -0.616  -0.616  -0.613  -0.611  -0.611  -0.610  -0.609  -0.607
 -0.606  -0.605  -0.603  -0.600  -0.567  -0.566  -0.565  -0.562
 -0.561  -0.559  -0.559  -0.558  -0.555  -0.555  -0.553  -0.551
 -0.538  -0.535  -0.534  -0.531  -0.530  -0.526  -0.524  -0.523
 -0.523  -0.521  -0.518  -0.517  -0.516  -0.516  -0.512  -0.510
 -0.509  -0.505  -0.505  -0.497  -0.494  -0.491  -0.490  -0.487
 -0.484  -0.484  -0.482  -0.480  -0.479  -0.478  -0.477  -0.476
 -0.472  -0.471  -0.470  -0.469  -0.468  -0.467  -0.466  -0.465
 -0.465  -0.464  -0.463  -0.463  -0.462  -0.460  -0.458  -0.457
 -0.456  -0.455  -0.453  -0.452  -0.450  -0.447  -0.446  -0.445
 -0.443  -0.442  -0.441  -0.440  -0.436  -0.436  -0.434  -0.434
 -0.432  -0.431  -0.428  -0.428  -0.425  -0.425  -0.423  -0.422
 -0.421  -0.420  -0.420  -0.420  -0.419  -0.418  -0.418  -0.417
 -0.416  -0.416  -0.415  -0.414  -0.413  -0.413  -0.412  -0.412
 -0.411  -0.410  -0.408  -0.408  -0.405  -0.402  -0.401  -0.399
 -0.396  -0.393  -0.393  -0.387  -0.385  -0.384  -0.383  -0.382
 -0.381  -0.378  -0.376  -0.373  -0.372  -0.369  -0.368  -0.366
 -0.365  -0.363  -0.362  -0.361  -0.361  -0.360  -0.358  -0.357
 -0.357  -0.356  -0.354  -0.353  -0.353  -0.352  -0.352  -0.351
 -0.351  -0.349  -0.348  -0.347  -0.347  -0.347  -0.346  -0.344
 -0.343  -0.341  -0.340  -0.339  -0.337  -0.336  -0.334  -0.333
 -0.333  -0.332  -0.329  -0.329  -0.328  -0.326  -0.324  -0.322
 -0.321  -0.306  -0.303  -0.300  -0.288  -0.285  -0.275  -0.272
 -0.270  -0.269  -0.268  -0.267  -0.265  -0.264  -0.263  -0.263
 -0.262  -0.261  -0.260  -0.259  -0.258  -0.255  -0.255  -0.254
 -0.252  -0.245  -0.244  -0.241  -0.222  -0.219  -0.212  -0.211
 -0.208  -0.208  -0.203  -0.202  -0.199  -0.195

          Ground-State Mulliken Net Atomic Charges

     Atom                 Charge (a.u.)
  ----------------------------------------
      1 O                    -0.487788
      2 C                    -0.092356
      3 H                     0.141666
      4 H                     0.129974
      5 H                     0.129811
      6 O                    -0.458613
      7 C                     0.591547
      8 C                    -0.260218
      9 H                     0.128254
     10 H                     0.130359
     11 C                    -0.177177
     12 H                     0.122913
     13 H                     0.117340
     14 C                    -0.173125
     15 H                     0.111924
     16 H                     0.114704
     17 C                     0.005076
     18 C                     0.082724
     19 C                    -0.122869
     20 H                     0.088507
     21 C                    -0.097139
     22 H                     0.095650
     23 C                    -0.071783
     24 H                     0.098336
     25 C                    -0.094243
     26 H                     0.088636
     27 C                    -0.097539
     28 H                     0.095179
     29 C                     0.007731
     30 C                    -0.008878
     31 C                    -0.010285
     32 C                    -0.023213
     33 C                    -0.022734
     34 C                    -0.012117
     35 C                    -0.006760
     36 C                    -0.006935
     37 C                     0.015194
     38 C                    -0.011893
     39 C                    -0.086982
     40 C                     0.001622
     41 C                     0.015233
     42 C                     0.008138
     43 C                     0.005662
     44 C                     0.021015
     45 C                    -0.060138
     46 C                     0.032881
     47 C                    -0.001631
     48 C                     0.016870
     49 C                    -0.007174
     50 C                    -0.013342
     51 C                    -0.026219
     52 C                    -0.018772
     53 C                     0.070434
     54 C                     0.021947
     55 C                     0.027787
     56 C                     0.014961
     57 C                    -0.023727
     58 C                    -0.002950
     59 C                     0.055420
     60 C                     0.016412
     61 C                     0.017911
     62 C                    -0.011007
     63 C                    -0.030548
     64 C                    -0.022636
     65 C                    -0.026512
     66 C                    -0.000936
     67 C                    -0.002604
     68 C                    -0.023573
     69 C                     0.016870
     70 C                    -0.009499
     71 C                    -0.011240
     72 C                    -0.016225
     73 C                     0.038267
     74 C                    -0.023254
     75 C                    -0.003681
     76 C                    -0.013381
     77 C                    -0.017622
     78 C                    -0.007805
     79 C                    -0.001387
     80 C                    -0.014373
     81 C                     0.030817
     82 C                     0.007821
     83 C                    -0.014635
     84 C                    -0.013113
     85 C                     0.024313
     86 C                     0.003381
     87 C                     0.012811
     88 C                    -0.010517
     89 O                    -0.457835
     90 C                    -0.095771
     91 H                     0.127148
     92 H                     0.127826
     93 H                     0.138664
     94 O                    -0.473196
     95 C                     0.593980
     96 C                    -0.262646
     97 H                     0.137887
     98 H                     0.126057
     99 C                    -0.186636
    100 H                     0.106707
    101 H                     0.128900
    102 C                    -0.190430
    103 H                     0.120475
    104 H                     0.110913
    105 C                     0.003120
    106 C                     0.107349
    107 C                    -0.090178
    108 H                     0.091180
    109 C                    -0.083601
    110 H                     0.089851
    111 C                    -0.076399
    112 H                     0.093295
    113 C                    -0.111315
    114 H                     0.087104
    115 C                    -0.106182
    116 H                     0.092322
    117 C                    -0.013464
    118 C                     0.032535
    119 C                    -0.031934
    120 C                    -0.023586
    121 C                     0.015787
    122 C                    -0.009733
    123 C                    -0.003079
    124 C                    -0.009752
    125 C                    -0.032663
    126 C                     0.028619
    127 C                    -0.088974
    128 C                     0.024121
    129 C                    -0.003246
    130 C                     0.013170
    131 C                     0.016010
    132 C                     0.001636
    133 C                    -0.095345
    134 C                     0.031075
    135 C                     0.018916
    136 C                    -0.016853
    137 C                     0.030506
    138 C                    -0.040445
    139 C                     0.042221
    140 C                    -0.018506
    141 C                     0.020143
    142 C                    -0.035138
    143 C                    -0.003276
    144 C                    -0.004636
    145 C                     0.015612
    146 C                    -0.006019
    147 C                     0.028390
    148 C                     0.069053
    149 C                    -0.001899
    150 C                     0.002962
    151 C                     0.007510
    152 C                    -0.019559
    153 C                    -0.000480
    154 C                    -0.002073
    155 C                    -0.001688
    156 C                    -0.003293
    157 C                     0.013927
    158 C                     0.046319
    159 C                    -0.016014
    160 C                    -0.051699
    161 C                    -0.020063
    162 C                    -0.014209
    163 C                     0.006471
    164 C                    -0.016268
    165 C                     0.000669
    166 C                    -0.006782
    167 C                    -0.010816
    168 C                    -0.021667
    169 C                     0.013229
    170 C                     0.006003
    171 C                    -0.001098
    172 C                    -0.033243
    173 C                     0.013404
    174 C                    -0.011989
    175 C                     0.010209
    176 C                     0.007454
  ----------------------------------------
  Sum of atomic charges =     0.000000

                    Cartesian Multipole Moments
 -----------------------------------------------------------------
    Charge (ESU x 10^10)
                 0.0000
    Dipole Moment (Debye)
         X       5.5709      Y       3.3745      Z      -1.1563
       Tot       6.6151
    Quadrupole Moments (Debye-Ang)
        XX    -774.5958     XY       3.6217     YY    -794.4234
        XZ     -28.6320     YZ       3.7596     ZZ    -814.9487

 Total job time:  855.71s(wall), 7266.24s(cpu)
        *  Thank you very much for using Q-Chem.  Have a nice day.  *
