 Q-Chem 4.4, Q-Chem, Inc., Pleasanton, CA (2016)
 Q-Chem 4.4.2 for Intel X86 Linux

User input:
--------------------------------------------------------------
$comment
SP
$end

$rem
MEM_STATIC 5000
MEM_TOTAL 20000
JOBTYPE SP
EXCHANGE B3LYP
BASIS 6-31g(d,p)
$end

$molecule
0 1
O          10.411000     12.500000      9.085000
C          11.719000     13.031000      8.992000
H          12.404000     12.178000      9.079000
H          11.964000     13.876000      9.646000
H          11.876000     13.515000      8.020000
O           9.356000     14.428000      8.616000
C           9.371000     13.236000      8.803000
C           8.070000     12.470000      8.844000
H           7.956000     12.070000      7.829000
H           7.254000     13.197000      8.947000
C           7.889000     11.419000      9.888000
H           8.647000     10.630000      9.811000
H           8.038000     11.892000     10.867000
C           6.452000     10.870000      9.897000
H           5.790000     11.639000     10.314000
H           6.124000     10.642000      8.875000
C           6.348000      9.600000     10.752000
C           6.544000      9.926000     12.134000
C           5.429000     10.025000     13.026000
H           4.473000      9.902000     12.525000
C           5.545000     10.515000     14.329000
H           4.691000     10.587000     14.997000
C           6.766000     10.571000     14.919000
H           6.835000     10.951000     15.934000
C           7.892000     10.540000     14.075000
H           8.857000     10.654000     14.560000
C           7.780000     10.125000     12.733000
H           8.622000      9.874000     12.094000
C           8.341000      4.532000     11.334000
C           6.119000      4.410000     12.410000
C           4.247000      1.987000      9.048000
C           8.025000      6.418000      6.610000
C           2.731000      4.683000      7.516000
C           7.275000      5.103000     12.138000
C           5.552000      5.586000      5.611000
C           6.444000      1.783000     10.105000
C           3.576000      6.988000     10.667000
C           6.935000      7.257000      6.601000
C           5.459000      8.490000     10.304000
C           3.540000      7.498000      9.320000
C           4.762000      7.417000      6.874000
C           4.410000      4.894000      5.823000
C           5.494000      6.583000     12.062000
C           4.136000      2.810000      6.878000
C           6.918000      8.352000     10.224000
C           7.488000      8.104000      8.858000
C           3.071000      3.331000      7.667000
C           8.164000      2.942000      7.209000
C           6.201000      1.821000      7.622000
C           7.000000      1.829000      8.805000
C           7.024000      2.531000     11.086000
C           8.524000      7.108000      8.859000
C           4.792000      7.497000     11.259000
C           6.013000      3.104000     11.846000
C           5.732000      6.852000      6.041000
C           5.023000      5.283000     12.304000
C           2.977000      6.770000      8.304000
C           9.230000      5.005000      7.953000
C           5.020000      1.837000     10.223000
C           4.600000      8.318000      9.065000
C           8.817000      3.195000      9.577000
C           3.539000      6.752000      7.029000
C           3.098000      5.776000     10.927000
C           6.166000      3.439000      5.800000
C           6.672000      4.722000      5.571000
C           2.530000      5.006000      9.875000
C           8.814000      6.326000      7.732000
C           6.659000      8.110000      7.702000
C           8.733000      4.231000      6.890000
C           7.618000      7.227000     10.976000
C           3.665000      3.531000     11.318000
C           5.286000      8.228000      7.846000
C           2.421000      5.498000      8.579000
C           9.314000      4.455000      9.240000
C           3.179000      2.854000      8.970000
C           8.228000      3.203000     10.863000
C           4.748000      1.880000      7.721000
C           3.807000      4.888000     11.750000
C           2.937000      3.684000     10.102000
C           6.900000      6.483000     11.931000
C           8.559000      6.570000     10.144000
C           6.953000      2.565000      6.613000
C           4.788000      2.665000     11.325000
C           3.400000      5.447000      6.537000
C           7.914000      5.132000      6.122000
C           4.814000      3.571000      5.938000
C           8.930000      5.272000     10.348000
C           8.199000      2.484000      8.550000
O          -5.641000     -9.026000      6.900000
C          -7.015000     -9.153000      7.376000
H          -7.710000     -8.511000      6.821000
H          -7.157000     -8.925000      8.440000
H          -7.426000    -10.159000      7.229000
O          -5.314000     -6.829000      7.627000
C          -4.911000     -7.890000      7.083000
C          -3.558000     -8.062000      6.464000
H          -3.748000     -8.158000      5.388000
H          -3.122000     -9.008000      6.808000
C          -2.570000     -6.892000      6.674000
H          -2.849000     -5.977000      6.138000
H          -2.582000     -6.619000      7.736000
C          -1.055000     -7.281000      6.363000
H          -0.701000     -7.946000      7.160000
H          -0.997000     -7.932000      5.481000
C          -0.139000     -6.091000      6.142000
C          -0.381000     -5.414000      4.845000
C          -1.021000     -4.144000      4.838000
H          -1.400000     -3.613000      5.706000
C          -1.213000     -3.538000      3.609000
H          -1.599000     -2.524000      3.578000
C          -0.800000     -4.155000      2.413000
H          -0.867000     -3.582000      1.493000
C          -0.151000     -5.382000      2.424000
H           0.149000     -5.875000      1.504000
C          -0.036000     -6.034000      3.623000
H           0.412000     -7.020000      3.696000
C           4.915000     -4.186000      6.270000
C           3.596000     -2.258000      6.973000
C           4.970000     -2.438000     11.306000
C           4.022000     -8.363000      9.105000
C           2.190000     -4.111000     12.350000
C           3.762000     -3.464000      6.237000
C           3.379000     -7.427000     11.610000
C           6.235000     -2.767000      9.256000
C           0.291000     -3.522000      8.908000
C           2.672000     -8.278000      9.489000
C           0.300000     -5.393000      7.358000
C           0.023000     -4.658000      9.648000
C           1.156000     -7.045000     10.679000
C           3.234000     -6.266000     12.393000
C           1.611000     -3.282000      6.886000
C           4.599000     -4.230000     12.579000
C           1.264000     -6.133000      6.560000
C           1.972000     -7.325000      7.260000
C           3.430000     -3.496000     12.480000
C           6.765000     -6.183000      9.791000
C           6.522000     -4.332000     11.065000
C           6.863000     -3.921000      9.761000
C           5.818000     -2.695000      7.929000
C           3.341000     -7.328000      6.904000
C           0.563000     -3.908000      7.565000
C           4.611000     -1.900000      7.867000
C           2.327000     -7.768000     10.743000
C           2.328000     -2.227000      7.433000
C           0.420000     -4.733000     10.995000
C           5.595000     -7.286000      7.897000
C           5.308000     -1.987000      9.973000
C           0.134000     -5.789000      8.769000
C           6.549000     -5.020000      7.636000
C           0.936000     -5.927000     11.504000
C           1.011000     -2.416000      9.472000
C           5.421000     -6.407000     11.803000
C           4.724000     -7.518000     11.246000
C           1.458000     -2.490000     10.769000
C           4.350000     -7.902000      7.804000
C           1.652000     -7.744000      8.603000
C           6.059000     -7.301000      9.260000
C           2.417000     -5.450000      5.957000
C           3.059000     -1.306000      9.635000
C           0.722000     -6.968000      9.344000
C           1.161000     -3.643000     11.505000
C           5.859000     -6.104000      7.064000
C           3.693000     -2.298000     11.736000
C           5.951000     -3.845000      7.133000
C           5.593000     -3.598000     11.825000
C           2.069000     -1.758000      8.720000
C           2.655000     -1.775000     10.896000
C           2.503000     -4.063000      6.096000
C           3.595000     -6.192000      6.099000
C           6.438000     -5.734000     11.101000
C           4.394000     -1.444000      9.138000
C           2.013000     -5.536000     12.340000
C           5.081000     -7.995000      9.984000
C           4.466000     -5.667000     12.535000
C           4.850000     -5.559000      6.244000
C           6.991000     -5.045000      8.955000
$end

--------------------------------------------------------------

             Standard Nuclear Orientation (Angstroms)
    I     Atom           X                Y                Z
 ----------------------------------------------------------------
    1      O      13.2930906988     0.1231131707     1.7182117612
    2      C      14.2707631787     0.8118263025     2.4740587986
    3      H      13.7599123633     1.6706913387     2.9276944388
    4      H      15.2110092013     1.0606378863     1.9682957979
    5      H      14.6689514465     0.1731163628     3.2722973071
    6      O      14.6068799556    -1.6241355780     1.1973954802
    7      C      13.5394704740    -1.0624313219     1.2317950033
    8      C      12.3432238628    -1.6898469414     0.5562347279
    9      H      11.8220201207    -2.2217251937     1.3616372260
   10      H      12.7090450943    -2.4843305111    -0.1070636093
   11      C      11.4235347081    -0.8163067254    -0.2301477171
   12      H      10.9814675476    -0.0252569842     0.3877769811
   13      H      12.0211820350    -0.3074789581    -0.9971437900
   14      C      10.3708169125    -1.6405345173    -0.9909925040
   15      H      10.8683347976    -2.1549353180    -1.8224741755
   16      H       9.9247271745    -2.3939047763    -0.3295628414
   17      C       9.2590965541    -0.7420142423    -1.5490965805
   18      C       9.7837953982     0.0923255563    -2.5898579476
   19      C       9.5450270701    -0.2200266925    -3.9661267288
   20      H       9.0116557609    -1.1565745553    -4.1019911731
   21      C      10.1809466754     0.4496523241    -5.0142208421
   22      H       9.9929030255     0.2028770695    -6.0555976036
   23      C      10.7639876972     1.6538122003    -4.7858808341
   24      H      11.2496186436     2.1607518603    -5.6144704581
   25      C      11.0745800008     1.9771973923    -3.4516666689
   26      H      11.6013961710     2.9141154384    -3.2964400678
   27      C      10.5047457342     1.2596865714    -2.3810593036
   28      H      10.5271434334     1.5811118594    -1.3435285199
   29      C       5.4360600515     2.9068871074    -0.1119786871
   30      C       4.5908654431     1.9892190929    -2.2458660995
   31      C       1.2850905622    -0.4402641595    -0.2842798629
   32      C       6.5304976330    -0.8002005204     3.2095775294
   33      C       3.0111337840    -3.4288982975    -0.3346463765
   34      C       5.6394663108     2.4033722778    -1.4587940828
   35      C       4.7117528926    -2.8579382545     2.6959268822
   36      C       2.0540926189     1.8364119738     0.1751280398
   37      C       5.7925502144    -1.8180061032    -2.7062702884
   38      C       6.8819802833    -1.8989508893     2.4603715675
   39      C       7.8516824654    -1.2342299185    -1.5432390166
   40      C       6.0998485284    -2.8258981470    -1.7236582722
   41      C       6.2267380463    -3.3586877442     0.9564154759
   42      C       3.6628897266    -3.2977441455     1.9648804834
   43      C       6.3071958118     0.5316194403    -2.6499345568
   44      C       1.7611364394    -2.1025675445     1.2677116896
   45      C       8.2748366546    -0.1819785988    -0.6116636346
   46      C       8.1166453771    -0.4853372566     0.8496060341
   47      C       1.9174212989    -2.5957105392    -0.0591538008
   48      C       3.4601304259     0.9378604363     3.3222155536
   49      C       1.7253506444     0.1851678574     2.0166229712
   50      C       2.1674477480     1.4531557034     1.5321531855
   51      C       3.0692173871     2.5544181831    -0.3836686927
   52      C       7.5995906015     0.6279549736     1.5969665690
   53      C       6.7894732806    -0.7837703447    -2.5491022380
   54      C       3.2907162307     2.0637655294    -1.6636094084
   55      C       5.9889291925    -2.9434532970     2.2698237532
   56      C       4.9606720204     0.8164480954    -2.9258898365
   57      C       5.1057646222    -3.5597012195    -1.1299081244
   58      C       5.8418263875     1.3792145734     3.0418731340
   59      C       1.5714159166     0.8627543563    -0.7541889380
   60      C       7.2300639796    -2.5176726312    -1.0246339054
   61      C       4.2002395516     2.7083595071     1.7680554839
   62      C       5.1654278171    -3.9002544476     0.2200017993
   63      C       4.5260389330    -1.5601449525    -3.0136540893
   64      C       2.9977369139    -1.5115142135     3.2170962660
   65      C       4.3434789627    -1.7572503224     3.5054677327
   66      C       3.4875875878    -2.3032154913    -2.3878002901
   67      C       6.8703803461     0.4616482917     2.7828617967
   68      C       7.6788507791    -1.7641540017     1.2929756569
   69      C       4.8256839354     0.6821598121     3.7183516457
   70      C       7.5926664107     1.1799562318    -0.6417680438
   71      C       2.7261413239    -0.0922676544    -2.6670998592
   72      C       7.2772421082    -2.7095169872     0.3630357120
   73      C       3.7559879072    -3.3268636375    -1.4857655117
   74      C       5.5096671882     2.4010450676     2.1410636605
   75      C       1.6631618959    -1.5742043174    -0.9695818292
   76      C       4.1222661988     3.0396894713     0.3951310100
   77      C       1.2340898036    -0.8223679917     1.0849442181
   78      C       4.0724725877    -0.2375588282    -3.1302624688
   79      C       2.4553250993    -1.3882120183    -2.1386722122
   80      C       6.7393658592     1.5016956622    -1.7138906616
   81      C       7.2594660463     1.6089617450     0.6675393253
   82      C       2.5857809118    -0.1439495207     3.1517275948
   83      C       2.3623028263     1.0390003582    -1.8931565594
   84      C       3.8614106286    -3.8073785719     0.7252970038
   85      C       5.2550645389    -0.6918752369     3.7251326240
   86      C       2.6163561803    -2.4504990651     2.3020945257
   87      C       6.2329344957     2.4756752805     0.9106475792
   88      C       3.1994997927     1.9222712337     2.3361744515
   89      O     -12.8371166524    -4.7380483925    -2.6853069504
   90      C     -13.4276887176    -5.3979727424    -3.8456110003
   91      H     -13.1652359738    -6.4616710069    -3.8992632074
   92      H     -13.1569273484    -4.9575750683    -4.8135893934
   93      H     -14.5239247494    -5.4078835035    -3.8185123015
   94      O     -10.6172154199    -4.8872569174    -3.4008782843
   95      C     -11.4955907039    -4.5257900902    -2.5751273575
   96      C     -11.2029403748    -3.8546241602    -1.2685110866
   97      H     -11.4809959792    -4.5894552595    -0.5031351422
   98      H     -11.8664132069    -2.9889019514    -1.1515629859
   99      C      -9.7285242212    -3.4536517227    -1.0351399008
  100      H      -9.0543178826    -4.3081963485    -0.9026208625
  101      H      -9.3669371641    -2.9376623644    -1.9326513393
  102      C      -9.5393730631    -2.4044164252     0.1508593108
  103      H      -9.9270806382    -1.4346864569    -0.1838892886
  104      H     -10.2105103215    -2.6415496097     0.9865815333
  105      C      -8.1211378117    -2.3164507504     0.6845894031
  106      C      -7.7340385841    -3.5046622946     1.4829687079
  107      C      -6.8146927759    -4.4382674182     0.9300367428
  108      H      -6.3780396056    -4.3956577345    -0.0632126840
  109      C      -6.4661790358    -5.5242431030     1.7134497788
  110      H      -5.6870752161    -6.1948136432     1.3649022373
  111      C      -7.0044575689    -5.7038269678     3.0017354057
  112      H      -6.6046969013    -6.5057692909     3.6151666724
  113      C      -7.8804746765    -4.7772993118     3.5503623552
  114      H      -8.3181731767    -4.9213550908     4.5337834021
  115      C      -8.3039315326    -3.7473123858     2.7530285334
  116      H      -9.0290392149    -3.0178066430     3.0998270631
  117      C      -4.4250027226     0.6860040074     3.2364859196
  118      C      -3.0845465823    -0.5605827341     1.6239249651
  119      C      -2.2515468872     3.0455603312    -1.0212609830
  120      C      -8.2898162612     3.2588445384     1.0626158881
  121      C      -4.7366914605     2.2816254366    -3.2252856940
  122      C      -4.2075851860    -0.4288871100     2.4871332582
  123      C      -7.4042790462     3.9262600008    -1.4543168566
  124      C      -2.2925562538     2.8686329293     1.4031937859
  125      C      -5.2983386935    -1.3281534431    -1.6585901826
  126      C      -8.6867406556     2.4835803516    -0.0412851336
  127      C      -7.1802447802    -1.5428447517    -0.1368940490
  128      C      -6.3624364546    -0.6647631617    -2.2395628922
  129      C      -8.0062067715     1.6393005253    -2.0559092195
  130      C      -6.3093628165     3.8539785812    -2.3363422795
  131      C      -4.7932486725    -1.6594719651     0.6916430202
  132      C      -3.8987946886     4.1914745110    -1.9922858916
  133      C      -7.5770795004    -1.0465939188     1.1707593132
  134      C      -8.3233194636     0.3152342268     1.1967981110
  135      C      -3.6836853315     3.0217727793    -2.6998477781
  136      C      -5.1651885409     4.8277564773     1.7852928131
  137      C      -3.4212776077     4.7191305005     0.3516606936
  138      C      -3.0558079215     4.0440636202     1.5333267275
  139      C      -2.5307337167     1.7607220223     2.2130128511
  140      C      -7.8408449292     1.0903219423     2.2772440176
  141      C      -5.6946910920    -1.7810587415    -0.3684698135
  142      C      -2.2701769489     0.5629539299     1.4447812666
  143      C      -8.2142734436     2.7857553455    -1.3207795676
  144      C      -3.4913401367    -1.2121917872     0.5147317240
  145      C      -6.1324871874     0.4416671582    -3.0765684368
  146      C      -6.8313209313     3.2792906349     2.7847933847
  147      C      -1.8536902158     2.3364645326     0.1759972253
  148      C      -7.4533071104    -0.6845532476    -1.3048262636
  149      C      -4.4157868139     2.9731177583     3.2142652668
  150      C      -6.9748696442     1.5537690178    -3.0087875387
  151      C      -3.9466423053    -0.8875626498    -1.8548772856
  152      C      -5.6658767302     5.1300232581    -0.5732241214
  153      C      -7.0125933586     4.7119309870    -0.3684506478
  154      C      -3.7020855885     0.2249726959    -2.6229600395
  155      C      -7.8831262183     2.5577148930     2.2269725471
  156      C      -8.6838398782     1.0313211933    -0.0027244970
  157      C      -6.5189385193     4.4211008810     1.9650516018
  158      C      -6.5748719954    -0.8258710403     2.2225998561
  159      C      -2.1266474498     0.2695605707    -0.9595239594
  160      C      -8.2471763061     0.5126132762    -1.2502917383
  161      C      -4.7933154401     0.8714554764    -3.2150676526
  162      C      -5.7366890954     2.5412356232     3.4311407708
  163      C      -2.5650591398     2.3295074038    -2.1276999884
  164      C      -3.6215686680     1.8126559110     3.0968606775
  165      C      -3.0206911190     4.2278635773    -0.9043585242
  166      C      -3.0199708731    -0.8136233796    -0.7352143715
  167      C      -2.5741267473     0.8954780162    -2.1348058956
  168      C      -5.2543845725    -1.1950825506     1.9571157198
  169      C      -6.7891895048     0.3785844989     2.9021341519
  170      C      -4.7356895002     5.1984078828     0.4803874105
  171      C      -1.7964007334     0.9870833479     0.2339483572
  172      C      -6.1128145405     2.6754879217    -3.1103439207
  173      C      -7.4510651592     4.4014634290     0.9195611439
  174      C      -5.2727894431     4.6013625690    -1.8228037549
  175      C      -5.7122940397     1.1316894972     3.4216223799
  176      C      -4.1257943641     4.0769001850     2.4184520139
 ----------------------------------------------------------------

    9   -5804.2806393249      8.14E-06 Convergence criterion met
 Total energy in the final basis set = -5804.2806393249

                    Orbital Energies (a.u.)
 --------------------------------------------------------------

 Alpha MOs
 -- Occupied --
-19.205 -19.201 -19.136 -19.126 -10.323 -10.311 -10.252 -10.250
-10.240 -10.237 -10.236 -10.235 -10.234 -10.232 -10.232 -10.229
-10.228 -10.228 -10.226 -10.225 -10.225 -10.225 -10.223 -10.223
-10.222 -10.222 -10.221 -10.221 -10.220 -10.220 -10.219 -10.219
-10.219 -10.219 -10.218 -10.218 -10.217 -10.217 -10.217 -10.217
-10.217 -10.217 -10.217 -10.217 -10.217 -10.217 -10.216 -10.216
-10.216 -10.216 -10.216 -10.216 -10.216 -10.216 -10.215 -10.215
-10.215 -10.215 -10.215 -10.215 -10.215 -10.215 -10.214 -10.214
-10.214 -10.214 -10.214 -10.214 -10.214 -10.214 -10.214 -10.214
-10.214 -10.214 -10.214 -10.214 -10.213 -10.213 -10.213 -10.213
-10.213 -10.213 -10.212 -10.212 -10.212 -10.212 -10.212 -10.212
-10.212 -10.212 -10.212 -10.211 -10.211 -10.211 -10.211 -10.211
-10.211 -10.211 -10.211 -10.211 -10.211 -10.210 -10.210 -10.210
-10.210 -10.210 -10.209 -10.209 -10.209 -10.209 -10.209 -10.209
-10.209 -10.209 -10.209 -10.209 -10.208 -10.208 -10.208 -10.208
-10.208 -10.207 -10.207 -10.206 -10.206 -10.204 -10.204 -10.204
-10.204 -10.204 -10.203 -10.203 -10.203 -10.202 -10.199 -10.199
-10.199 -10.198 -10.198 -10.197 -10.197 -10.196 -10.196 -10.195
-10.194 -10.193 -10.192 -10.192  -1.121  -1.086  -1.018  -0.995
 -0.986  -0.981  -0.968  -0.967  -0.966  -0.963  -0.961  -0.955
 -0.939  -0.939  -0.930  -0.928  -0.926  -0.923  -0.922  -0.919
 -0.918  -0.916  -0.900  -0.898  -0.892  -0.884  -0.882  -0.880
 -0.879  -0.875  -0.858  -0.857  -0.844  -0.843  -0.839  -0.837
 -0.836  -0.832  -0.823  -0.817  -0.811  -0.802  -0.799  -0.797
 -0.795  -0.795  -0.792  -0.790  -0.790  -0.789  -0.789  -0.780
 -0.775  -0.772  -0.770  -0.768  -0.766  -0.766  -0.765  -0.760
 -0.757  -0.754  -0.745  -0.745  -0.735  -0.734  -0.718  -0.715
 -0.714  -0.713  -0.712  -0.711  -0.710  -0.709  -0.708  -0.708
 -0.707  -0.706  -0.706  -0.705  -0.703  -0.702  -0.677  -0.671
 -0.662  -0.658  -0.655  -0.653  -0.647  -0.647  -0.631  -0.630
 -0.629  -0.628  -0.626  -0.623  -0.622  -0.621  -0.619  -0.618
 -0.617  -0.615  -0.614  -0.613  -0.611  -0.610  -0.608  -0.607
 -0.605  -0.605  -0.603  -0.599  -0.583  -0.567  -0.565  -0.565
 -0.561  -0.560  -0.558  -0.557  -0.556  -0.555  -0.552  -0.552
 -0.538  -0.537  -0.532  -0.531  -0.529  -0.527  -0.525  -0.523
 -0.522  -0.521  -0.519  -0.519  -0.517  -0.515  -0.513  -0.512
 -0.511  -0.506  -0.503  -0.499  -0.495  -0.493  -0.492  -0.487
 -0.486  -0.485  -0.482  -0.480  -0.479  -0.479  -0.478  -0.476
 -0.473  -0.473  -0.470  -0.468  -0.468  -0.467  -0.466  -0.465
 -0.464  -0.464  -0.463  -0.463  -0.461  -0.460  -0.459  -0.458
 -0.457  -0.455  -0.452  -0.452  -0.448  -0.448  -0.445  -0.443
 -0.442  -0.441  -0.441  -0.438  -0.437  -0.436  -0.434  -0.431
 -0.431  -0.430  -0.429  -0.428  -0.426  -0.425  -0.422  -0.422
 -0.421  -0.420  -0.420  -0.420  -0.419  -0.418  -0.418  -0.417
 -0.416  -0.415  -0.415  -0.414  -0.414  -0.412  -0.412  -0.412
 -0.410  -0.409  -0.406  -0.406  -0.405  -0.399  -0.397  -0.395
 -0.394  -0.394  -0.390  -0.390  -0.387  -0.386  -0.384  -0.381
 -0.375  -0.374  -0.373  -0.372  -0.371  -0.369  -0.367  -0.366
 -0.365  -0.364  -0.362  -0.361  -0.361  -0.358  -0.358  -0.357
 -0.357  -0.356  -0.354  -0.354  -0.353  -0.352  -0.351  -0.351
 -0.350  -0.349  -0.348  -0.345  -0.345  -0.345  -0.342  -0.342
 -0.341  -0.341  -0.339  -0.339  -0.338  -0.336  -0.335  -0.334
 -0.333  -0.331  -0.331  -0.329  -0.329  -0.327  -0.325  -0.323
 -0.314  -0.309  -0.303  -0.300  -0.288  -0.288  -0.271  -0.270
 -0.269  -0.268  -0.268  -0.267  -0.266  -0.265  -0.264  -0.263
 -0.261  -0.260  -0.258  -0.258  -0.257  -0.257  -0.255  -0.254
 -0.248  -0.247  -0.242  -0.241  -0.223  -0.220  -0.215  -0.209
 -0.208  -0.207  -0.206  -0.204  -0.202  -0.194

          Ground-State Mulliken Net Atomic Charges

     Atom                 Charge (a.u.)
  ----------------------------------------
      1 O                    -0.424803
      2 C                    -0.097338
      3 H                     0.125471
      4 H                     0.134170
      5 H                     0.127649
      6 O                    -0.477815
      7 C                     0.585834
      8 C                    -0.259895
      9 H                     0.125693
     10 H                     0.130452
     11 C                    -0.184056
     12 H                     0.112466
     13 H                     0.119108
     14 C                    -0.179687
     15 H                     0.116990
     16 H                     0.105433
     17 C                     0.006846
     18 C                     0.099499
     19 C                    -0.104441
     20 H                     0.082779
     21 C                    -0.089211
     22 H                     0.088023
     23 C                    -0.079093
     24 H                     0.090917
     25 C                    -0.103536
     26 H                     0.088859
     27 C                    -0.099431
     28 H                     0.089855
     29 C                    -0.000262
     30 C                    -0.006130
     31 C                     0.038438
     32 C                     0.010490
     33 C                     0.007232
     34 C                    -0.007117
     35 C                     0.016214
     36 C                    -0.018283
     37 C                    -0.000064
     38 C                     0.004165
     39 C                    -0.109285
     40 C                     0.038959
     41 C                    -0.022153
     42 C                     0.030557
     43 C                     0.009690
     44 C                     0.009716
     45 C                    -0.054714
     46 C                     0.008050
     47 C                    -0.018117
     48 C                     0.001485
     49 C                    -0.031316
     50 C                     0.018457
     51 C                     0.031007
     52 C                    -0.008299
     53 C                     0.020066
     54 C                     0.014243
     55 C                    -0.015757
     56 C                     0.013809
     57 C                    -0.017141
     58 C                     0.012772
     59 C                    -0.008218
     60 C                     0.014926
     61 C                    -0.014428
     62 C                    -0.014778
     63 C                     0.007234
     64 C                    -0.004811
     65 C                    -0.012609
     66 C                     0.006169
     67 C                     0.003594
     68 C                    -0.016330
     69 C                    -0.038174
     70 C                     0.022327
     71 C                    -0.024392
     72 C                     0.019645
     73 C                    -0.004481
     74 C                     0.003073
     75 C                     0.003823
     76 C                    -0.017591
     77 C                    -0.040270
     78 C                    -0.012097
     79 C                    -0.002435
     80 C                    -0.025500
     81 C                     0.029509
     82 C                    -0.002640
     83 C                    -0.006731
     84 C                    -0.006576
     85 C                    -0.002479
     86 C                     0.019989
     87 C                    -0.001410
     88 C                     0.019553
     89 O                    -0.466697
     90 C                    -0.089328
     91 H                     0.129410
     92 H                     0.134656
     93 H                     0.126851
     94 O                    -0.493320
     95 C                     0.607643
     96 C                    -0.263609
     97 H                     0.143466
     98 H                     0.133975
     99 C                    -0.176883
    100 H                     0.119916
    101 H                     0.120854
    102 C                    -0.197848
    103 H                     0.107433
    104 H                     0.099297
    105 C                     0.018380
    106 C                     0.076774
    107 C                    -0.099357
    108 H                     0.103123
    109 C                    -0.093871
    110 H                     0.089993
    111 C                    -0.086794
    112 H                     0.087326
    113 C                    -0.082870
    114 H                     0.094223
    115 C                    -0.094464
    116 H                     0.087009
    117 C                     0.022203
    118 C                    -0.028666
    119 C                     0.007699
    120 C                    -0.011215
    121 C                     0.006204
    122 C                    -0.001370
    123 C                     0.000164
    124 C                    -0.001398
    125 C                     0.004295
    126 C                    -0.008490
    127 C                    -0.059760
    128 C                     0.007212
    129 C                     0.010739
    130 C                     0.004744
    131 C                     0.008210
    132 C                    -0.018918
    133 C                    -0.085358
    134 C                     0.016790
    135 C                     0.011515
    136 C                    -0.015712
    137 C                    -0.007458
    138 C                     0.009951
    139 C                    -0.022752
    140 C                     0.003407
    141 C                    -0.009454
    142 C                     0.010901
    143 C                     0.019727
    144 C                     0.031911
    145 C                     0.001004
    146 C                    -0.019408
    147 C                     0.002848
    148 C                     0.044211
    149 C                     0.011136
    150 C                    -0.016404
    151 C                    -0.028793
    152 C                     0.004792
    153 C                    -0.003030
    154 C                     0.027628
    155 C                     0.007768
    156 C                    -0.036837
    157 C                     0.010099
    158 C                     0.039242
    159 C                    -0.018113
    160 C                    -0.012305
    161 C                     0.005943
    162 C                    -0.015979
    163 C                    -0.022971
    164 C                    -0.016611
    165 C                     0.012868
    166 C                    -0.013550
    167 C                    -0.000676
    168 C                     0.007867
    169 C                     0.004974
    170 C                     0.002011
    171 C                     0.018321
    172 C                    -0.023704
    173 C                    -0.005801
    174 C                    -0.005226
    175 C                    -0.010769
    176 C                     0.007712
  ----------------------------------------
  Sum of atomic charges =     0.000000

                    Cartesian Multipole Moments
 -----------------------------------------------------------------
    Charge (ESU x 10^10)
                 0.0000
    Dipole Moment (Debye)
         X      -2.0056      Y      -1.1659      Z       0.6990
       Tot       2.4229
    Quadrupole Moments (Debye-Ang)
        XX    -749.1894     XY      54.8030     YY    -801.5198
        XZ      -3.8423     YZ      -4.6224     ZZ    -798.3974

 Total job time:  824.72s(wall), 6930.71s(cpu)
        *  Thank you very much for using Q-Chem.  Have a nice day.  *
