 Q-Chem 4.4, Q-Chem, Inc., Pleasanton, CA (2016)
 Q-Chem 4.4.2 for Intel X86 Linux

User input:
--------------------------------------------------------------
$comment
SP
$end

$rem
MEM_STATIC 5000
MEM_TOTAL 20000
JOBTYPE SP
EXCHANGE B3LYP
BASIS 6-31g(d,p)
$end

$molecule
0 1
O         -20.243000    -21.675000      5.638000
C         -20.781000    -23.011000      5.846000
H         -21.360000    -23.348000      4.977000
H         -21.391000    -23.075000      6.755000
H         -19.908000    -23.673000      5.908000
O         -22.394000    -20.872000      5.753000
C         -21.186000    -20.712000      5.671000
C         -20.507000    -19.345000      5.669000
H         -19.982000    -19.186000      4.718000
H         -19.778000    -19.394000      6.487000
C         -21.440000    -18.144000      5.886000
H         -22.387000    -18.286000      5.352000
H         -21.663000    -18.116000      6.960000
C         -20.741000    -16.811000      5.380000
H         -19.779000    -16.637000      5.877000
H         -20.401000    -16.999000      4.354000
C         -21.592000    -15.559000      5.474000
C         -21.921000    -15.245000      6.945000
C         -20.945000    -14.650000      7.766000
H         -19.984000    -14.344000      7.362000
C         -21.391000    -14.258000      9.076000
H         -20.719000    -13.717000      9.736000
C         -22.710000    -14.426000      9.538000
H         -23.053000    -14.038000     10.492000
C         -23.601000    -15.108000      8.754000
H         -24.567000    -15.331000      9.196000
C         -23.150000    -15.601000      7.517000
H         -23.804000    -16.243000      6.935000
C         -25.951000    -12.680000      3.694000
C         -24.355000    -10.904000      4.280000
C         -23.406000     -9.737000     -0.015000
C         -23.964000    -16.027000      0.439000
C         -20.491000    -11.669000     -0.223000
C         -24.945000    -12.182000      4.548000
C         -22.125000    -14.706000     -1.219000
C         -25.508000    -10.290000      1.027000
C         -20.575000    -12.331000      3.776000
C         -22.573000    -16.088000      0.751000
C         -21.423000    -14.485000      4.434000
C         -20.057000    -13.283000      2.876000
C         -20.625000    -15.043000      0.764000
C         -21.545000    -13.434000     -1.412000
C         -22.710000    -12.331000      4.996000
C         -22.557000    -11.252000     -1.480000
C         -22.704000    -15.248000      4.413000
C         -23.055000    -15.997000      3.111000
C         -21.518000    -10.787000     -0.622000
C         -25.914000    -13.292000     -0.750000
C         -24.922000    -11.337000     -1.074000
C         -25.835000    -11.154000     -0.043000
C         -25.762000    -10.671000      2.326000
C         -24.388000    -15.844000      2.750000
C         -21.452000    -12.988000      4.665000
C         -24.769000    -10.189000      3.169000
C         -21.680000    -15.491000     -0.086000
C         -22.978000    -10.975000      4.587000
C         -19.818000    -12.934000      1.514000
C         -25.846000    -15.027000      1.017000
C         -24.316000     -9.554000      1.049000
C         -20.516000    -14.580000      3.261000
C         -26.652000    -12.801000      1.524000
C         -19.990000    -13.843000      0.460000
C         -20.814000    -11.020000      3.377000
C         -23.786000    -13.308000     -1.874000
C         -23.501000    -14.634000     -1.528000
C         -20.572000    -10.661000      2.056000
C         -24.885000    -15.938000      1.477000
C         -22.128000    -16.027000      2.117000
C         -25.663000    -14.649000     -0.321000
C         -23.931000    -14.436000      4.553000
C         -22.494000     -9.720000      2.611000
C         -20.894000    -15.408000      2.123000
C         -20.073000    -11.617000      1.115000
C         -26.466000    -14.124000      1.880000
C         -22.045000     -9.894000      0.270000
C         -26.366000    -11.938000      2.597000
C         -23.735000    -10.649000     -1.081000
C         -22.024000    -10.362000      3.729000
C         -21.550000     -9.820000      1.595000
C         -23.911000    -13.045000      4.922000
C         -24.907000    -14.879000      3.611000
C         -24.940000    -12.643000     -1.497000
C         -23.834000     -9.552000      2.339000
C         -20.496000    -13.002000     -0.565000
C         -24.473000    -15.268000     -0.670000
C         -22.560000    -12.585000     -1.850000
C         -25.956000    -13.982000      3.196000
C         -26.420000    -12.364000      0.225000
O         -21.953000    -25.113000     -8.672000
C         -22.956000    -25.114000     -9.707000
H         -23.591000    -26.007000     -9.652000
H         -22.654000    -25.159000    -10.761000
H         -23.751000    -24.387000     -9.497000
O         -21.032000    -23.189000     -9.616000
C         -21.011000    -24.082000     -8.773000
C         -19.987000    -24.250000     -7.750000
H         -19.391000    -25.108000     -8.083000
H         -20.560000    -24.514000     -6.852000
C         -19.173000    -23.000000     -7.403000
H         -18.645000    -22.556000     -8.255000
H         -19.762000    -22.153000     -7.029000
C         -18.115000    -23.349000     -6.397000
H         -18.308000    -24.277000     -5.844000
H         -17.139000    -23.538000     -6.861000
C         -17.908000    -22.153000     -5.458000
C         -17.061000    -21.090000     -6.035000
C         -17.545000    -19.888000     -6.704000
H         -18.608000    -19.720000     -6.849000
C         -16.648000    -19.050000     -7.345000
H         -17.088000    -18.243000     -7.924000
C         -15.310000    -19.317000     -7.346000
H         -14.572000    -18.682000     -7.827000
C         -14.820000    -20.428000     -6.627000
H         -13.743000    -20.512000     -6.514000
C         -15.667000    -21.265000     -5.930000
H         -15.275000    -22.131000     -5.405000
C         -16.323000    -20.077000     -0.625000
C         -18.021000    -18.579000     -1.343000
C         -21.234000    -19.608000      1.655000
C         -18.235000    -24.908000     -0.595000
C         -22.928000    -21.665000     -0.619000
C         -16.927000    -19.395000     -1.630000
C         -20.955000    -24.675000     -0.069000
C         -18.798000    -19.462000      1.864000
C         -20.744000    -20.303000     -3.749000
C         -19.172000    -24.972000     -1.685000
C         -19.012000    -21.833000     -4.504000
C         -21.302000    -21.669000     -3.771000
C         -21.133000    -24.101000     -2.440000
C         -22.029000    -23.780000      0.175000
C         -18.397000    -19.510000     -3.386000
C         -22.068000    -21.777000      1.567000
C         -17.712000    -22.376000     -3.972000
C         -17.715000    -23.686000     -3.145000
C         -22.669000    -21.079000      0.591000
C         -18.250000    -22.844000      2.270000
C         -19.944000    -21.407000      2.708000
C         -18.766000    -20.697000      2.559000
C         -17.734000    -19.024000      1.020000
C         -16.849000    -23.483000     -2.067000
C         -19.347000    -20.407000     -4.030000
C         -18.432000    -18.266000     -0.015000
C         -20.529000    -24.806000     -1.404000
C         -18.923000    -18.616000     -2.422000
C         -22.224000    -21.971000     -2.762000
C         -16.757000    -23.494000      0.397000
C         -20.015000    -18.884000      1.463000
C         -20.287000    -22.588000     -4.164000
C         -16.677000    -21.204000      1.367000
C         -22.175000    -23.203000     -2.188000
C         -21.202000    -19.307000     -2.778000
C         -20.493000    -23.627000      1.829000
C         -20.030000    -24.607000      0.981000
C         -22.196000    -19.662000     -1.863000
C         -17.073000    -24.151000     -0.839000
C         -18.944000    -24.379000     -2.934000
C         -17.763000    -23.815000      1.363000
C         -16.876000    -21.394000     -3.116000
C         -20.785000    -18.320000     -0.786000
C         -20.139000    -23.804000     -3.422000
C         -22.606000    -20.986000     -1.785000
C         -16.328000    -22.193000      0.392000
C         -22.171000    -19.775000      0.580000
C         -16.705000    -19.945000      0.727000
C         -21.178000    -20.874000      2.266000
C         -20.302000    -18.495000     -2.120000
C         -21.907000    -19.069000     -0.579000
C         -17.166000    -20.039000     -2.903000
C         -16.346000    -22.146000     -2.007000
C         -19.591000    -22.727000      2.511000
C         -19.824000    -18.233000      0.239000
C         -22.629000    -23.036000     -0.859000
C         -18.633000    -24.667000      0.711000
C         -21.713000    -23.139000      1.355000
C         -16.094000    -21.495000     -0.774000
C         -17.696000    -21.554000      2.349000
$end

--------------------------------------------------------------

             Standard Nuclear Orientation (Angstroms)
    I     Atom           X                Y                Z
 ----------------------------------------------------------------
    1      O       0.4180646160     6.6546688088     0.3866812382
    2      C       1.1736275677     7.4204470226     1.3666365195
    3      H       1.7026525149     6.7614906587     2.0665508827
    4      H       0.5411967066     8.1272951361     1.9169763694
    5      H       1.9489942095     7.9457474457     0.7947247813
    6      O      -0.9862651462     6.0057088816     2.0871352753
    7      C      -0.6659956718     6.0468854770     0.9092898050
    8      C      -1.5075045593     5.4625947266    -0.2221699209
    9      H      -0.9554762711     4.6586638963    -0.7264188566
   10      H      -1.6579693297     6.2969714134    -0.9179729803
   11      C      -2.8713226603     4.8923380473     0.1959048415
   12      H      -2.7939020474     4.3608029602     1.1517319701
   13      H      -3.5338757995     5.7540910562     0.3455513900
   14      C      -3.4137821752     3.9007606461    -0.9194596425
   15      H      -3.4917099232     4.3871228077    -1.8993107097
   16      H      -2.6125294091     3.1790763585    -1.1214145726
   17      C      -4.7253008177     3.2133927915    -0.5908485000
   18      C      -5.8560829247     4.2507650071    -0.4648774209
   19      C      -6.4293242887     4.8016685339    -1.6261446781
   20      H      -6.1355719670     4.4567535280    -2.6136244056
   21      C      -7.5751098590     5.6445008809    -1.4128630292
   22      H      -8.1224156887     6.0378660961    -2.2646758819
   23      C      -8.1264888550     5.9121799417    -0.1456779112
   24      H      -9.0471052927     6.4713105968    -0.0109660512
   25      C      -7.4764614128     5.4500772698     0.9667907153
   26      H      -7.8568001320     5.7845308670     1.9268595930
   27      C      -6.2885614800     4.7209748172     0.7826104684
   28      H      -5.6974511808     4.4476431076     1.6512199265
   29      C      -7.4879344484    -0.4417699309     2.4857669936
   30      C      -8.6540418903    -0.5882850481     0.3262497432
   31      C      -6.9851692818    -4.6712323221    -0.7935362966
   32      C      -2.4934988067    -1.1984171839     2.0075405248
   33      C      -4.3949552032    -3.4099588162    -2.7867982389
   34      C      -7.9927703662     0.1908691754     1.3306633370
   35      C      -2.0395432900    -2.9806065992    -0.1122828822
   36      C      -7.8021222409    -3.8411942717     1.3168195259
   37      C      -6.0145470854     0.3040021471    -2.6428638848
   38      C      -2.1473616456    -0.6823367634     0.7230966509
   39      C      -4.9600797446     1.8154784604    -1.0951811067
   40      C      -4.6232856963     0.1032243631    -2.7361807031
   41      C      -2.3226794094    -0.8900953231    -1.4707579620
   42      C      -2.7390089885    -3.6946819657    -1.1085143350
   43      C      -7.3686396240     1.0006010099    -0.7121105548
   44      C      -4.7456519560    -5.0146259807    -0.9635184802
   45      C      -4.7789637085     1.9798155474     0.3757918038
   46      C      -3.6236209996     1.1976624653     1.0336867660
   47      C      -5.2158173202    -4.3566974027    -2.1373943324
   48      C      -4.6534124587    -3.8974528315     2.8714997766
   49      C      -5.6805462315    -5.0022257780     1.2480657775
   50      C      -6.6712553508    -4.3646298107     1.9842626421
   51      C      -8.2739487643    -2.5869306704     1.6350655791
   52      C      -3.9965250567     0.6027491056     2.2327028871
   53      C      -6.2617588949     1.2509762380    -1.6263869335
   54      C      -8.7648032397    -1.9576068776     0.4983882071
   55      C      -1.8753478395    -1.5523571867    -0.2885850937
   56      C      -8.3021107636    -0.0736173732    -0.9412993353
   57      C      -4.0982110372    -1.1907127250    -3.0259899756
   58      C      -4.2064740744    -1.5113590646     3.3654032246
   59      C      -7.9922843566    -4.0051613563    -0.0615843209
   60      C      -3.9652645454     1.0120142681    -1.8517463790
   61      C      -6.4822034948    -2.3329901556     3.2774318915
   62      C      -2.8890134920    -1.6532734898    -2.4868612012
   63      C      -6.9084632473    -0.7344109107    -2.8829788920
   64      C      -3.3397741989    -4.5056299816     0.9488736880
   65      C      -2.3908684316    -3.4973175842     1.1540588579
   66      C      -6.4118307547    -1.9981347140    -3.1810465292
   67      C      -3.4170835118    -0.5086858439     2.7852731081
   68      C      -2.7673650774     0.5164232944     0.2268385847
   69      C      -3.7353664162    -2.8084557574     3.1159743895
   70      C      -5.8959529495     1.4940329442     1.2129437003
   71      C      -8.0798700296    -2.3071420853    -1.7633902162
   72      C      -2.8436504960     0.4046186305    -1.1470730762
   73      C      -5.0021430894    -2.2346924121    -3.2534284462
   74      C      -5.5738698721    -1.3334054669     3.5731031276
   75      C      -6.5597352613    -4.1343427618    -2.0137618882
   76      C      -7.6275181095    -1.8130052755     2.6483339993
   77      C      -5.8195564801    -5.1673538783    -0.1068404412
   78      C      -8.0112240844    -0.9598624152    -2.0146136720
   79      C      -7.1516339812    -2.9690059463    -2.5594467896
   80      C      -7.1712451600     1.1079121740     0.6689009367
   81      C      -5.3777123240     0.7637139733     2.3239116813
   82      C      -4.4425520766    -4.7045250753     1.7615185639
   83      C      -8.5137689812    -2.8352262039    -0.5672853448
   84      C      -3.1742483884    -3.0278377768    -2.2791207986
   85      C      -2.6713310042    -2.6033228411     2.2517920426
   86      C      -3.5095119445    -4.6559448152    -0.4564645448
   87      C      -6.2091841583    -0.2076625174     2.9889810777
   88      C      -6.0614746654    -3.6190188844     2.9591374352
   89      O      10.0835750494    -4.0219989223     3.8661522068
   90      C      10.2963692890    -5.0586908573     4.8445301724
   91      H      10.7540486856    -4.6617976556     5.7592456234
   92      H      10.9879588110    -5.8823642530     4.6267893397
   93      H       9.3527000173    -5.3736625676     5.3081411379
   94      O       9.3840350312    -5.6484242212     2.3474232941
   95      C       9.6444703453    -4.4789253874     2.6175805171
   96      C       9.5771011802    -3.3637499340     1.6820731127
   97      H      10.6218048882    -3.1185454263     1.4568223371
   98      H       9.1191262011    -2.5593796421     2.2717139796
   99      C       8.6879201535    -3.5714427018     0.4525505160
  100      H       8.9659508962    -4.4348085612    -0.1631785632
  101      H       7.6325212668    -3.7751958853     0.6735116670
  102      C       8.7823205872    -2.3739054478    -0.4475573017
  103      H       9.1518323986    -1.4667202336     0.0471325085
  104      H       9.4996484604    -2.5174032691    -1.2651403847
  105      C       7.4210793150    -2.1482869733    -1.1192004384
  106      C       7.1763860626    -3.0403038049    -2.2701731506
  107      C       6.4285248812    -4.2916108282    -2.2307347602
  108      H       6.0198465899    -4.6680186539    -1.2977196461
  109      C       6.4101097253    -5.1163892226    -3.3430006827
  110      H       5.9381961747    -6.0849054454    -3.2038463549
  111      C       7.0647135076    -4.7702636073    -4.4889609554
  112      H       7.0676719880    -5.3819955524    -5.3861818171
  113      C       7.7170672673    -3.5215317954    -4.5694931492
  114      H       8.0816204748    -3.2124701540    -5.5448576250
  115      C       7.7218086815    -2.6418163115    -3.5065419808
  116      H       8.2523450692    -1.6969364538    -3.5770983114
  117      C       3.7768922116     1.1553980712    -3.5657194926
  118      C       2.4194030698    -0.4794395683    -2.5039939525
  119      C       0.5731165493     2.0743859360     0.7270144626
  120      C       6.9010042663     3.3170617108    -0.0213804598
  121      C       2.8165277314     0.9150435416     3.1549750225
  122      C       3.5727782089    -0.1374500106    -3.2095645946
  123      C       5.5360777153     3.2144167467     2.3984965043
  124      C       1.1596033276     2.5642474851    -1.6000355845
  125      C       4.1296174512    -2.0820842265     0.7644059418
  126      C       7.2140213642     2.2759806516     0.9211350704
  127      C       6.3003128905    -1.6754850069    -0.2522097105
  128      C       5.0232783322    -1.4994756976     1.7840831122
  129      C       6.2786262419     0.8846473934     2.4584752181
  130      C       4.3502846174     2.7992239777     3.0584561194
  131      C       4.0995032789    -1.8023690210    -1.7235409106
  132      C       2.0374171661     2.9627020050     2.3000940108
  133      C       6.8769058185    -0.7437891497    -1.2853391434
  134      C       7.4637571120     0.6188898898    -0.8395259599
  135      C       1.8064997585     1.6868559827     2.6463238161
  136      C       3.7715671958     4.7033313486    -0.8893816770
  137      C       1.8534067983     4.0807539813     0.1399419414
  138      C       1.7690957986     3.7826081894    -1.2083850746
  139      C       1.6165169627     1.7956875984    -2.7121604114
  140      C       7.0247806605     1.5683445302    -1.7663941064
  141      C       4.8241186980    -2.0464791314    -0.4837071522
  142      C       1.3375279114     0.4241052325    -2.2951233353
  143      C       6.4843694755     2.2154115443     2.1093713703
  144      C       2.7171629825    -1.5192713451    -1.6043813079
  145      C       4.4202976558    -0.6370757956     2.7071485015
  146      C       5.7644639876     3.6791020948    -1.9566186765
  147      C       0.5141876643     1.7391879834    -0.6626512235
  148      C       6.2867775192    -1.2079405478     1.1943271789
  149      C       3.4894277730     3.3584784556    -2.9120299515
  150      C       5.0969202482     0.4798014559     3.0872380600
  151      C       2.6864869500    -1.8337693173     0.7827106482
  152      C       3.8696196742     4.3688768409     1.5016735072
  153      C       5.2370359465     4.2176367404     1.4674365358
  154      C       2.1505467548    -1.0357794612     1.7962521109
  155      C       6.8247319103     2.9120425486    -1.3678465775
  156      C       7.4851041389     0.9529698298     0.5472493998
  157      C       5.1710540183     4.5012928407    -0.9466186835
  158      C       5.9360897271    -0.3808007062    -2.4596731980
  159      C       1.0031570260    -0.5758873302    -0.0541019196
  160      C       6.8952411065     0.0590971157     1.4691209602
  161      C       3.0078985443    -0.3660651095     2.6585691037
  162      C       4.8929145151     3.0859519611    -2.8313994695
  163      C       0.9587368850     1.0980409333     1.7065706847
  164      C       2.8334985506     2.1752988974    -3.3186108022
  165      C       1.2591325441     3.2409343365     1.1114099414
  166      C       2.0042887914    -1.5427886240    -0.3801495793
  167      C       1.1060043369    -0.1999584489     1.2538865768
  168      C       4.6680283758    -0.9302578003    -2.6954937041
  169      C       6.1154400959     1.0239001297    -2.7260075871
  170      C       3.1066404003     4.6361028402     0.3036831512
  171      C       0.7144312352     0.4022353395    -1.0244773422
  172      C       4.1143319663     1.4510982344     3.3894777602
  173      C       5.8913411873     4.2403574635     0.2027320563
  174      C       3.3320587443     3.5268486157     2.4780119294
  175      C       5.0401416347     1.7812960466    -3.2529598091
  176      C       2.9059211861     4.2068266740    -1.8800365584
 ----------------------------------------------------------------

    9   -5804.2844281091      8.52E-06 Convergence criterion met
 Total energy in the final basis set = -5804.2844281091

                    Orbital Energies (a.u.)
 --------------------------------------------------------------

 Alpha MOs
 -- Occupied --
-19.199 -19.196 -19.141 -19.137 -10.318 -10.315 -10.245 -10.244
-10.243 -10.242 -10.241 -10.239 -10.238 -10.238 -10.238 -10.236
-10.235 -10.233 -10.233 -10.232 -10.230 -10.228 -10.227 -10.226
-10.226 -10.226 -10.225 -10.225 -10.224 -10.223 -10.223 -10.222
-10.221 -10.221 -10.221 -10.220 -10.220 -10.220 -10.220 -10.220
-10.219 -10.219 -10.219 -10.219 -10.219 -10.219 -10.219 -10.219
-10.218 -10.218 -10.218 -10.218 -10.217 -10.217 -10.217 -10.217
-10.217 -10.216 -10.216 -10.216 -10.216 -10.216 -10.216 -10.216
-10.216 -10.216 -10.216 -10.216 -10.215 -10.215 -10.215 -10.215
-10.215 -10.214 -10.214 -10.214 -10.214 -10.214 -10.213 -10.213
-10.213 -10.213 -10.213 -10.213 -10.213 -10.213 -10.212 -10.212
-10.212 -10.212 -10.212 -10.212 -10.212 -10.212 -10.212 -10.212
-10.211 -10.211 -10.211 -10.211 -10.211 -10.211 -10.210 -10.210
-10.210 -10.210 -10.209 -10.209 -10.208 -10.208 -10.208 -10.208
-10.208 -10.208 -10.207 -10.207 -10.207 -10.207 -10.207 -10.207
-10.207 -10.206 -10.206 -10.206 -10.205 -10.205 -10.205 -10.205
-10.204 -10.203 -10.203 -10.203 -10.203 -10.202 -10.202 -10.202
-10.201 -10.199 -10.198 -10.198 -10.196 -10.196 -10.195 -10.195
-10.194 -10.193 -10.192 -10.192  -1.100  -1.086  -1.012  -1.009
 -0.982  -0.981  -0.963  -0.962  -0.961  -0.961  -0.960  -0.958
 -0.935  -0.932  -0.926  -0.924  -0.924  -0.923  -0.923  -0.920
 -0.919  -0.918  -0.898  -0.894  -0.889  -0.889  -0.883  -0.879
 -0.871  -0.870  -0.854  -0.851  -0.842  -0.840  -0.836  -0.835
 -0.835  -0.834  -0.826  -0.820  -0.813  -0.800  -0.796  -0.795
 -0.794  -0.793  -0.792  -0.792  -0.791  -0.789  -0.785  -0.781
 -0.771  -0.771  -0.767  -0.767  -0.766  -0.765  -0.763  -0.762
 -0.756  -0.747  -0.745  -0.739  -0.734  -0.733  -0.717  -0.715
 -0.714  -0.712  -0.711  -0.711  -0.710  -0.709  -0.708  -0.707
 -0.706  -0.705  -0.703  -0.702  -0.701  -0.700  -0.673  -0.668
 -0.660  -0.655  -0.655  -0.654  -0.649  -0.644  -0.632  -0.631
 -0.628  -0.628  -0.624  -0.623  -0.621  -0.620  -0.616  -0.616
 -0.615  -0.612  -0.612  -0.611  -0.611  -0.609  -0.607  -0.607
 -0.605  -0.605  -0.600  -0.600  -0.566  -0.563  -0.562  -0.560
 -0.560  -0.559  -0.558  -0.557  -0.555  -0.552  -0.552  -0.551
 -0.536  -0.534  -0.534  -0.531  -0.530  -0.528  -0.525  -0.524
 -0.521  -0.520  -0.519  -0.517  -0.516  -0.515  -0.514  -0.509
 -0.507  -0.505  -0.502  -0.498  -0.496  -0.496  -0.488  -0.486
 -0.485  -0.483  -0.482  -0.481  -0.479  -0.476  -0.475  -0.474
 -0.472  -0.472  -0.469  -0.469  -0.468  -0.466  -0.466  -0.465
 -0.463  -0.463  -0.462  -0.462  -0.461  -0.459  -0.459  -0.457
 -0.456  -0.454  -0.453  -0.452  -0.449  -0.449  -0.447  -0.444
 -0.442  -0.440  -0.439  -0.438  -0.436  -0.436  -0.434  -0.432
 -0.429  -0.429  -0.427  -0.427  -0.426  -0.425  -0.424  -0.421
 -0.421  -0.420  -0.419  -0.419  -0.419  -0.418  -0.417  -0.416
 -0.416  -0.416  -0.414  -0.414  -0.413  -0.413  -0.410  -0.410
 -0.409  -0.408  -0.408  -0.405  -0.401  -0.399  -0.398  -0.397
 -0.396  -0.391  -0.390  -0.388  -0.385  -0.384  -0.383  -0.380
 -0.377  -0.375  -0.373  -0.372  -0.369  -0.368  -0.366  -0.366
 -0.365  -0.364  -0.363  -0.362  -0.360  -0.360  -0.358  -0.357
 -0.355  -0.354  -0.354  -0.354  -0.353  -0.352  -0.351  -0.350
 -0.349  -0.349  -0.348  -0.348  -0.344  -0.344  -0.343  -0.342
 -0.342  -0.341  -0.340  -0.340  -0.339  -0.338  -0.334  -0.333
 -0.332  -0.331  -0.330  -0.329  -0.327  -0.326  -0.325  -0.323
 -0.310  -0.307  -0.305  -0.302  -0.288  -0.287  -0.274  -0.273
 -0.271  -0.271  -0.268  -0.267  -0.265  -0.264  -0.264  -0.263
 -0.262  -0.261  -0.260  -0.258  -0.257  -0.255  -0.254  -0.252
 -0.246  -0.246  -0.243  -0.241  -0.223  -0.220  -0.214  -0.213
 -0.211  -0.208  -0.205  -0.200  -0.200  -0.194

          Ground-State Mulliken Net Atomic Charges

     Atom                 Charge (a.u.)
  ----------------------------------------
      1 O                    -0.459929
      2 C                    -0.092801
      3 H                     0.132823
      4 H                     0.134451
      5 H                     0.121087
      6 O                    -0.485837
      7 C                     0.616854
      8 C                    -0.271763
      9 H                     0.132673
     10 H                     0.130662
     11 C                    -0.175858
     12 H                     0.126151
     13 H                     0.115654
     14 C                    -0.196958
     15 H                     0.108638
     16 H                     0.106206
     17 C                     0.014334
     18 C                     0.092183
     19 C                    -0.109913
     20 H                     0.097415
     21 C                    -0.103637
     22 H                     0.084553
     23 C                    -0.070252
     24 H                     0.090694
     25 C                    -0.082525
     26 H                     0.094644
     27 C                    -0.112575
     28 H                     0.093871
     29 C                     0.005018
     30 C                     0.003660
     31 C                    -0.020872
     32 C                    -0.016568
     33 C                    -0.003508
     34 C                    -0.014859
     35 C                    -0.017928
     36 C                     0.005524
     37 C                     0.021094
     38 C                     0.005308
     39 C                    -0.078079
     40 C                     0.005855
     41 C                    -0.006725
     42 C                     0.010877
     43 C                    -0.008467
     44 C                    -0.014584
     45 C                    -0.086062
     46 C                     0.004473
     47 C                    -0.003953
     48 C                    -0.046616
     49 C                     0.019576
     50 C                    -0.001428
     51 C                     0.000053
     52 C                     0.040635
     53 C                     0.019720
     54 C                    -0.001449
     55 C                     0.009983
     56 C                    -0.035376
     57 C                     0.012380
     58 C                     0.019843
     59 C                    -0.027495
     60 C                    -0.000492
     61 C                     0.024087
     62 C                    -0.039110
     63 C                    -0.013307
     64 C                     0.014631
     65 C                    -0.023323
     66 C                    -0.003016
     67 C                    -0.013173
     68 C                     0.035582
     69 C                     0.006029
     70 C                     0.035603
     71 C                     0.032297
     72 C                     0.002629
     73 C                    -0.000850
     74 C                    -0.027398
     75 C                     0.025029
     76 C                    -0.005767
     77 C                    -0.005734
     78 C                    -0.008506
     79 C                    -0.012679
     80 C                     0.019822
     81 C                    -0.013269
     82 C                     0.031100
     83 C                     0.014873
     84 C                     0.010381
     85 C                    -0.001419
     86 C                    -0.007140
     87 C                    -0.015031
     88 C                    -0.003857
     89 O                    -0.479150
     90 C                    -0.086726
     91 H                     0.112841
     92 H                     0.130671
     93 H                     0.121781
     94 O                    -0.475362
     95 C                     0.610572
     96 C                    -0.267206
     97 H                     0.145570
     98 H                     0.141453
     99 C                    -0.170033
    100 H                     0.129921
    101 H                     0.118280
    102 C                    -0.188736
    103 H                     0.105492
    104 H                     0.113799
    105 C                     0.000718
    106 C                     0.064035
    107 C                    -0.104318
    108 H                     0.096645
    109 C                    -0.082385
    110 H                     0.092921
    111 C                    -0.076557
    112 H                     0.090357
    113 C                    -0.098962
    114 H                     0.088594
    115 C                    -0.087616
    116 H                     0.092063
    117 C                    -0.010186
    118 C                     0.024373
    119 C                    -0.029914
    120 C                    -0.000303
    121 C                     0.007112
    122 C                     0.013902
    123 C                    -0.007122
    124 C                     0.010915
    125 C                    -0.007480
    126 C                    -0.008310
    127 C                    -0.074541
    128 C                    -0.016395
    129 C                     0.001784
    130 C                    -0.006546
    131 C                    -0.016185
    132 C                     0.009088
    133 C                    -0.108300
    134 C                     0.016207
    135 C                     0.012752
    136 C                     0.014581
    137 C                     0.024697
    138 C                     0.006750
    139 C                    -0.021424
    140 C                     0.021404
    141 C                     0.036898
    142 C                    -0.028494
    143 C                     0.008260
    144 C                    -0.001341
    145 C                     0.002164
    146 C                    -0.026388
    147 C                     0.005380
    148 C                     0.020956
    149 C                    -0.009726
    150 C                     0.002698
    151 C                    -0.003162
    152 C                    -0.013034
    153 C                    -0.013874
    154 C                    -0.041451
    155 C                    -0.020250
    156 C                    -0.009764
    157 C                     0.003920
    158 C                     0.055851
    159 C                     0.025175
    160 C                     0.007647
    161 C                     0.037803
    162 C                     0.044076
    163 C                     0.018169
    164 C                     0.002271
    165 C                    -0.012441
    166 C                    -0.004824
    167 C                     0.005780
    168 C                    -0.004669
    169 C                    -0.016643
    170 C                     0.003130
    171 C                    -0.001091
    172 C                    -0.025288
    173 C                     0.012819
    174 C                     0.011444
    175 C                    -0.007895
    176 C                    -0.048493
  ----------------------------------------
  Sum of atomic charges =     0.000000

                    Cartesian Multipole Moments
 -----------------------------------------------------------------
    Charge (ESU x 10^10)
                 0.0000
    Dipole Moment (Debye)
         X       3.9113      Y       2.4766      Z      -1.4938
       Tot       4.8645
    Quadrupole Moments (Debye-Ang)
        XX    -776.5260     XY     -15.9350     YY    -798.0632
        XZ       5.0250     YZ      -4.5131     ZZ    -798.2235

 Total job time:  847.88s(wall), 7181.06s(cpu)
        *  Thank you very much for using Q-Chem.  Have a nice day.  *
