 Q-Chem 4.4, Q-Chem, Inc., Pleasanton, CA (2016)
 Q-Chem 4.4.2 for Intel X86 Linux

User input:
--------------------------------------------------------------
$comment
SP
$end

$rem
MEM_STATIC 5000
MEM_TOTAL 20000
JOBTYPE SP
EXCHANGE B3LYP
BASIS 6-31g(d,p)
$end

$molecule
0 1
O         -18.180000     20.423000      9.928000
C         -17.054000     20.067000     10.771000
H         -17.277000     20.079000     11.845000
H         -16.210000     20.737000     10.566000
H         -16.609000     19.093000     10.532000
O         -17.327000     19.467000      8.059000
C         -18.240000     20.062000      8.586000
C         -19.571000     20.579000      7.900000
H         -19.778000     21.537000      8.392000
H         -20.456000     19.957000      8.083000
C         -19.541000     20.763000      6.347000
H         -18.613000     21.336000      6.227000
H         -19.440000     19.783000      5.864000
C         -20.722000     21.504000      5.778000
H         -21.629000     21.008000      6.146000
H         -20.694000     22.465000      6.306000
C         -20.684000     21.573000      4.263000
C         -19.419000     22.230000      3.917000
C         -18.177000     21.508000      3.802000
H         -18.128000     20.431000      3.932000
C         -16.937000     22.202000      3.504000
H         -16.001000     21.692000      3.298000
C         -16.986000     23.628000      3.420000
H         -16.154000     24.247000      3.100000
C         -18.188000     24.313000      3.660000
H         -18.217000     25.396000      3.728000
C         -19.380000     23.601000      3.865000
H         -20.263000     24.178000      4.125000
C         -23.400000     22.728000     -0.444000
C         -21.860000     20.985000     -1.069000
C         -24.789000     17.698000     -1.653000
C         -26.142000     21.045000      3.615000
C         -24.078000     16.183000      1.467000
C         -22.121000     22.143000     -0.327000
C         -26.429000     18.267000      3.335000
C         -25.001000     19.946000     -2.257000
C         -20.933000     18.591000      1.957000
C         -25.258000     20.211000      4.366000
C         -21.205000     20.450000      3.434000
C         -21.651000     18.140000      3.065000
C         -24.188000     18.299000      4.270000
C         -26.038000     17.222000      2.502000
C         -20.811000     20.767000      0.929000
C         -26.014000     16.883000      0.122000
C         -21.957000     21.756000      3.519000
C         -23.395000     21.767000      3.950000
C         -24.710000     16.400000      0.228000
C         -27.284000     20.728000      0.345000
C         -26.814000     18.917000     -1.020000
C         -26.272000     20.030000     -1.601000
C         -24.076000     21.001000     -2.046000
C         -24.261000     22.545000      3.099000
C         -20.651000     19.932000      2.108000
C         -22.758000     20.428000     -1.971000
C         -25.460000     18.813000      4.204000
C         -21.007000     20.126000     -0.321000
C         -22.607000     17.133000      2.841000
C         -26.198000     22.355000      1.730000
C         -24.281000     18.747000     -2.323000
C         -21.914000     19.215000      3.948000
C         -25.643000     22.186000     -0.588000
C         -23.845000     17.146000      3.514000
C         -21.132000     18.019000      0.711000
C         -27.455000     18.539000      1.331000
C         -27.270000     19.123000      2.584000
C         -21.955000     16.932000      0.514000
C         -25.626000     22.165000      2.950000
C         -23.916000     20.522000      4.439000
C         -27.131000     21.382000      1.549000
C         -22.127000     22.519000      2.165000
C         -22.098000     18.247000     -1.315000
C         -23.208000     19.301000      4.481000
C         -22.713000     16.496000      1.591000
C         -25.432000     22.794000      0.613000
C         -23.951000     16.823000     -0.890000
C         -24.389000     22.079000     -1.232000
C         -26.015000     17.735000     -1.045000
C         -21.171000     18.747000     -0.399000
C         -22.620000     17.122000     -0.749000
C         -21.504000     22.010000      0.953000
C         -23.477000     22.988000      1.976000
C         -27.491000     19.338000      0.188000
C         -22.933000     19.035000     -2.105000
C         -24.777000     16.573000      2.647000
C         -27.076000     20.526000      2.691000
C         -26.656000     17.347000      1.292000
C         -24.062000     23.132000      0.721000
C         -26.581000     21.151000     -0.758000
O         -22.393000     28.688000     -0.303000
C         -21.582000     27.706000      0.443000
H         -21.722000     26.680000      0.079000
H         -21.824000     27.694000      1.512000
H         -20.526000     27.972000      0.304000
O         -24.272000     27.467000      0.008000
C         -23.756000     28.480000     -0.384000
C         -24.564000     29.689000     -0.929000
H         -24.346000     30.595000     -0.351000
H         -25.656000     29.581000     -0.912000
C         -24.315000     30.025000     -2.436000
H         -24.853000     30.942000     -2.706000
H         -23.253000     30.108000     -2.695000
C         -24.860000     28.843000     -3.336000
H         -24.818000     27.877000     -2.817000
H         -25.952000     28.836000     -3.441000
C         -24.140000     28.799000     -4.667000
C         -24.609000     29.996000     -5.432000
C         -23.749000     31.095000     -5.737000
H         -22.717000     31.037000     -5.404000
C         -24.203000     32.106000     -6.576000
H         -23.464000     32.885000     -6.735000
C         -25.576000     32.173000     -7.002000
H         -25.890000     32.965000     -7.675000
C         -26.443000     31.115000     -6.707000
H         -27.456000     31.119000     -7.098000
C         -25.971000     30.022000     -5.926000
H         -26.699000     29.225000     -5.802000
C         -22.045000     25.945000     -8.969000
C         -20.312000     27.638000     -8.530000
C         -17.274000     24.762000     -6.736000
C         -23.184000     23.347000     -4.697000
C         -18.219000     25.585000     -3.443000
C         -21.703000     27.256000     -8.594000
C         -20.837000     23.174000     -3.158000
C         -18.743000     24.541000     -8.632000
C         -20.352000     28.637000     -4.657000
C         -23.006000     24.280000     -3.625000
C         -22.704000     28.300000     -4.614000
C         -20.664000     27.941000     -3.456000
C         -21.483000     25.411000     -2.397000
C         -19.497000     23.536000     -3.069000
C         -21.412000     28.595000     -6.762000
C         -17.755000     23.589000     -4.852000
C         -23.742000     27.484000     -5.387000
C         -24.025000     26.060000     -4.943000
C         -17.514000     24.917000     -4.507000
C         -20.855000     22.163000     -7.074000
C         -18.668000     22.765000     -6.986000
C         -19.166000     23.266000     -8.195000
C         -19.682000     25.388000     -9.184000
C         -24.061000     25.190000     -6.048000
C         -21.501000     28.848000     -5.368000
C         -19.329000     26.702000     -8.848000
C         -21.808000     24.131000     -2.836000
C         -20.146000     28.529000     -7.457000
C         -19.715000     27.050000     -2.869000
C         -23.030000     23.139000     -6.998000
C         -17.778000     25.262000     -7.949000
C         -22.024000     27.654000     -3.444000
C         -21.507000     23.690000     -8.792000
C         -20.156000     25.803000     -2.345000
C         -19.079000     28.528000     -5.244000
C         -19.734000     22.070000     -4.852000
C         -21.001000     22.321000     -4.288000
C         -18.157000     27.663000     -4.675000
C         -23.679000     23.832000     -5.946000
C         -23.329000     25.610000     -3.783000
C         -22.117000     22.270000     -6.420000
C         -23.500000     27.260000     -6.883000
C         -17.992000     27.551000     -6.990000
C         -22.440000     26.343000     -3.054000
C         -18.497000     26.917000     -3.504000
C         -22.752000     23.901000     -8.148000
C         -17.192000     25.636000     -5.648000
C         -21.043000     25.002000     -9.313000
C         -17.675000     23.515000     -6.252000
C         -18.959000     28.460000     -6.641000
C         -17.539000     27.014000     -5.744000
C         -22.377000     27.848000     -7.517000
C         -23.749000     25.904000     -7.203000
C         -19.665000     22.058000     -6.277000
C         -18.176000     26.647000     -8.057000
C         -19.169000     24.894000     -2.707000
C         -22.152000     22.421000     -5.021000
C         -18.797000     22.913000     -4.161000
C         -23.092000     25.262000     -8.272000
C         -20.511000     22.898000     -8.190000
$end

--------------------------------------------------------------

             Standard Nuclear Orientation (Angstroms)
    I     Atom           X                Y                Z
 ----------------------------------------------------------------
    1      O     -10.4788697837    -6.6330319722     0.8210394270
    2      C     -11.2786626461    -7.7140720073     0.2761129918
    3      H     -12.1418416295    -7.9886520158     0.8948834352
    4      H     -10.6488483058    -8.5977153178     0.1155845005
    5      H     -11.6417628057    -7.5297555379    -0.7427136436
    6      O      -9.5048984231    -6.1032885397    -1.1551836587
    7      C      -9.6340982536    -5.8666011535     0.0249051028
    8      C      -8.8775510887    -4.7607657388     0.8700148134
    9      H      -8.7072918483    -5.2312248917     1.8459026023
   10      H      -9.4640565250    -3.8570983113     1.0773660937
   11      C      -7.5301289063    -4.2226876142     0.2856430188
   12      H      -7.0199722393    -5.1645261448     0.0477494346
   13      H      -7.7287549777    -3.6622024083    -0.6364708667
   14      C      -6.7204201339    -3.3846736881     1.2394288247
   15      H      -7.3797498699    -2.5969334095     1.6252248234
   16      H      -6.5593082237    -4.0573861131     2.0906573168
   17      C      -5.4718488938    -2.8170635764     0.5911089812
   18      C      -4.7061539540    -3.9695208799     0.1041352421
   19      C      -4.9561743080    -4.5805069400    -1.1769810122
   20      H      -5.7043482051    -4.1896903985    -1.8601561365
   21      C      -4.2082299113    -5.7497101437    -1.6031066367
   22      H      -4.2812580957    -6.1759621011    -2.5989018733
   23      C      -3.2864636506    -6.3163041409    -0.6691627396
   24      H      -2.5968559873    -7.1198338261    -0.9069994813
   25      C      -3.1550709871    -5.7722300766     0.6186060209
   26      H      -2.5591573394    -6.2637290103     1.3812787702
   27      C      -3.8363280159    -4.5943393810     0.9625469605
   28      H      -3.7618928628    -4.2625175913     1.9943278034
   29      C      -1.2391952809     0.7668977385     0.9172909653
   30      C      -1.6762655807     0.5901118659    -1.4444859734
   31      C      -3.4115032332     4.6260732397    -2.0959704921
   32      C      -5.6849048000     2.0080868489     3.2671102059
   33      C      -6.7502149780     3.4489395206    -2.1460313776
   34      C      -1.5883393339    -0.0311469121    -0.1931045344
   35      C      -7.1567262136     3.5986229773     1.4832970008
   36      C      -1.5936979339     4.0351967885    -0.7507147866
   37      C      -5.4533314964    -0.3243062394    -2.2475137420
   38      C      -6.7175928490     1.3713364037     2.5127115951
   39      C      -5.5283159216    -1.5565794581    -0.2012307581
   40      C      -6.6595344532    -0.0134035122    -1.6190211635
   41      C      -7.7122132961     1.4228493622     0.5587575063
   42      C      -7.0945093126     4.1040337480     0.1873479239
   43      C      -3.3167744289    -0.9712270453    -1.3401762259
   44      C      -5.4051448740     5.2248392830    -1.1048361754
   45      C      -4.8659650640    -1.5831041845     1.1548491733
   46      C      -5.3099771238    -0.6289240503     2.2254189104
   47      C      -5.6822465607     4.3657807255    -2.1679326198
   48      C      -3.3625185686     4.4110444419     2.3028125349
   49      C      -3.3327717312     5.4186041847     0.2176783689
   50      C      -2.1600388674     4.7310810443     0.3663510349
   51      C      -1.0566131673     2.7419794574    -0.5220230988
   52      C      -4.2301745281     0.0602199113     2.8876484434
   53      C      -4.7446595337    -1.2121907900    -1.4664560783
   54      C      -1.3622176312     1.9251126496    -1.6667556134
   55      C      -7.4458329908     2.2260683682     1.6406155198
   56      C      -2.7239528120    -0.0096375998    -2.1979088584
   57      C      -7.1597122886     1.2881897926    -1.8029722490
   58      C      -3.4020277829     2.2464504755     3.3312686510
   59      C      -2.2091239937     4.0311211668    -2.0083280635
   60      C      -6.7338088768    -0.6543243099    -0.3587883116
   61      C      -1.6196710607     2.8449959578     1.8565965449
   62      C      -7.7798388967     1.9827817770    -0.7452733480
   63      C      -4.8223654713     0.6070187246    -3.0561030609
   64      C      -5.4772032163     5.1200063087     1.3980253155
   65      C      -6.1075591909     4.1914679815     2.2261303331
   66      C      -5.3821818213     1.8280756059    -3.3616071474
   67      C      -4.4431450176     1.3728525226     3.3989851214
   68      C      -6.4874929343     0.1394203688     1.9361260314
   69      C      -3.9141813437     3.4967346319     3.1748485170
   70      C      -3.3430919799    -1.2292837820     1.1621766883
   71      C      -3.1473424077     2.1098044871    -3.2165670398
   72      C      -7.2029099109     0.1099028683     0.7190901787
   73      C      -6.5577186048     2.1767616178    -2.7126692954
   74      C      -2.1922901485     1.9066850305     2.6617462105
   75      C      -4.4818747315     4.0391531767    -2.8442135644
   76      C      -1.0779953379     2.1679114499     0.7399744152
   77      C      -3.9646122608     5.3273660077    -1.0584889948
   78      C      -3.5046618733     0.7716361795    -3.0433233388
   79      C      -4.3138757930     2.7931125319    -3.3919380097
   80      C      -2.6394413877    -0.9908442855    -0.0884937122
   81      C      -3.0119065863    -0.2930960081     2.2071889787
   82      C      -4.0902913071     5.2640666497     1.4412453848
   83      C      -2.1076731583     2.7446144512    -2.5395344252
   84      C      -7.5057996332     3.3373485219    -0.9419797683
   85      C      -5.3331938203     3.3636446539     3.0820279970
   86      C      -6.1039377548     5.0390672015     0.1090572480
   87      C      -1.9716467127     0.6259655090     2.1014944980
   88      C      -2.1782775288     4.1225082918     1.6671498495
   89      O       2.3132940053    -2.7643457968     4.3033903387
   90      C       1.1899742535    -3.2748056103     3.4933628614
   91      H       0.8509531123    -2.5523318153     2.7397925054
   92      H       0.3148896975    -3.5214999253     4.1056029571
   93      H       1.5399880515    -4.1722202975     2.9667223575
   94      O       1.1896572167    -0.8582570735     4.7750566895
   95      C       2.1499972721    -1.5587352779     4.9571727596
   96      C       3.2504725373    -1.2359713990     6.0042389797
   97      H       3.3530024056    -2.0550955451     6.7260195969
   98      H       3.0898641312    -0.3303799849     6.6030094955
   99      C       4.6693188375    -0.9585305310     5.4077092309
  100      H       5.3956750186    -0.8324468410     6.2199546380
  101      H       5.0049674148    -1.7287375362     4.7034825618
  102      C       4.6319535585     0.3768970620     4.5595429855
  103      H       3.6409049906     0.5619993864     4.1261368647
  104      H       4.6291326824     1.2877676109     5.1709715471
  105      C       5.7174835963     0.3791856742     3.5043101680
  106      C       7.0110709118     0.5303591463     4.2403627737
  107      C       7.9798980343    -0.5170568528     4.3090630764
  108      H       7.7578483569    -1.4458736416     3.7920811488
  109      C       9.2214278371    -0.2635390069     4.8804565053
  110      H       9.8724250233    -1.1321156896     4.8759609712
  111      C       9.4971902535     0.9696794133     5.5690938684
  112      H      10.4854258040     1.1418486974     5.9844698840
  113      C       8.5604740193     2.0083768146     5.5272799361
  114      H       8.7975348856     2.9704696290     5.9714032998
  115      C       7.3170197224     1.8014974182     4.8651497927
  116      H       6.6838292874     2.6839741265     4.8355908278
  117      C       7.5757065147     1.7877989329    -1.5557650560
  118      C       8.3764699821    -0.5258825571    -1.2951603129
  119      C       5.4470314812    -2.3832171086    -4.2426939316
  120      C       2.5301842030     2.0828682386    -0.6882699800
  121      C       3.2542219328    -3.3713426147    -1.6679323370
  122      C       8.0927808009     0.7729517950    -0.7317326118
  123      C       1.3791428288    -0.3353847526    -1.5450168654
  124      C       6.7105560319    -0.3347392193    -4.3368323753
  125      C       5.8966498716    -2.5498757223     1.1035213848
  126      C       2.2533208012     1.0782872205     0.2943391157
  127      C       5.4827929537    -0.5551552511     2.3270959404
  128      C       4.4995086532    -2.4888563883     1.3651204228
  129      C       2.0727676313    -1.1442920910     0.6606938027
  130      C       1.6270854346    -1.5952547059    -2.0796355753
  131      C       7.4648167152    -0.8187001300     0.7868625472
  132      C       3.2070904090    -2.2577177734    -3.8910408212
  133      C       5.5278271095     0.9533878493     2.0759015153
  134      C       4.2961771198     1.6324284372     1.5041120586
  135      C       3.7506562677    -3.1878219960    -3.0077898420
  136      C       3.8815560084     1.7577376392    -3.9354703645
  137      C       4.3384635953    -0.2797452264    -4.8259848391
  138      C       5.5636710998     0.3910994059    -4.7284140943
  139      C       7.5887679530     0.2571225696    -3.4523678794
  140      C       4.6478772626     2.5100460352     0.4623273585
  141      C       6.5024833569    -1.4403087394     1.6251245852
  142      C       8.1394737080    -0.7515930171    -2.6502974109
  143      C       1.6265069753    -0.1302586586    -0.1815256609
  144      C       8.0726191608    -1.5025256920    -0.3325550638
  145      C       3.5677340727    -3.0834006686     0.4610384410
  146      C       4.2454097218     3.0092016313    -1.9378654607
  147      C       6.6743652464    -1.7055155637    -4.1439141525
  148      C       4.2149474497    -1.2887425726     2.0061077479
  149      C       6.1175768038     2.3010238800    -3.2925021978
  150      C       2.3672068409    -2.3919900444     0.1373847459
  151      C       6.3932438330    -3.2647505631    -0.0007102030
  152      C       2.1436863713    -0.0096499510    -3.6931395366
  153      C       1.7513313719     0.6462675004    -2.5089875821
  154      C       5.4894033643    -3.8421322246    -0.8792162212
  155      C       3.7777757364     2.7751205715    -0.6207935138
  156      C       3.1555060318     0.8023315453     1.2983825783
  157      C       3.3313307997     2.4370033972    -2.8095666165
  158      C       6.6001935657     1.4832250798     1.1187919642
  159      C       7.2743906783    -2.9617951266    -2.0783079120
  160      C       3.0842677095    -0.5327776207     1.5657018935
  161      C       4.0838947540    -3.7240579531    -0.6469211227
  162      C       5.6392022631     2.9242936627    -2.1126824757
  163      C       5.1147089430    -3.2919785300    -3.2337051261
  164      C       7.3565885022     1.5609844257    -2.9385634780
  165      C       4.2813033857    -1.7068623070    -4.6083278877
  166      C       7.4716912575    -2.7494878819    -0.7369768137
  167      C       5.9947149505    -3.5962194948    -2.1559593944
  168      C       7.5425790008     0.5936262737     0.5448994169
  169      C       6.0192952475     2.4218572649     0.2329794755
  170      C       3.2742774799     0.5324483843    -4.3738914297
  171      C       7.5642917348    -1.9675608159    -3.0359177035
  172      C       2.1817420247    -2.6147299011    -1.2218370014
  173      C       2.3076608301     1.8163815660    -2.0691914846
  174      C       2.1724965313    -1.4163620274    -3.3991495559
  175      C       6.5317527822     2.6337644673    -1.0628046936
  176      C       5.2370258220     1.6186139430    -4.1531012023
 ----------------------------------------------------------------

    9   -5804.2954579582      8.83E-06 Convergence criterion met
 Total energy in the final basis set = -5804.2954579582

                    Orbital Energies (a.u.)
 --------------------------------------------------------------

 Alpha MOs
 -- Occupied --
-19.190 -19.188 -19.141 -19.137 -10.326 -10.320 -10.246 -10.245
-10.244 -10.244 -10.240 -10.239 -10.237 -10.237 -10.235 -10.233
-10.230 -10.228 -10.227 -10.226 -10.226 -10.226 -10.225 -10.225
-10.224 -10.224 -10.222 -10.222 -10.222 -10.222 -10.222 -10.221
-10.221 -10.221 -10.220 -10.220 -10.220 -10.220 -10.219 -10.219
-10.219 -10.219 -10.218 -10.218 -10.218 -10.218 -10.217 -10.217
-10.217 -10.217 -10.217 -10.216 -10.216 -10.216 -10.216 -10.216
-10.216 -10.216 -10.216 -10.215 -10.215 -10.215 -10.215 -10.215
-10.215 -10.215 -10.215 -10.215 -10.215 -10.215 -10.214 -10.214
-10.214 -10.214 -10.214 -10.214 -10.214 -10.214 -10.214 -10.214
-10.214 -10.213 -10.213 -10.213 -10.213 -10.213 -10.213 -10.213
-10.213 -10.213 -10.213 -10.213 -10.212 -10.212 -10.212 -10.212
-10.212 -10.212 -10.212 -10.212 -10.211 -10.211 -10.211 -10.211
-10.211 -10.211 -10.211 -10.210 -10.210 -10.210 -10.210 -10.210
-10.210 -10.210 -10.210 -10.210 -10.210 -10.209 -10.209 -10.209
-10.209 -10.209 -10.209 -10.209 -10.208 -10.208 -10.207 -10.207
-10.207 -10.207 -10.206 -10.206 -10.206 -10.205 -10.205 -10.203
-10.202 -10.202 -10.202 -10.202 -10.201 -10.200 -10.199 -10.198
-10.198 -10.196 -10.193 -10.192  -1.088  -1.086  -1.008  -1.008
 -0.982  -0.978  -0.966  -0.962  -0.960  -0.959  -0.957  -0.956
 -0.936  -0.928  -0.927  -0.924  -0.923  -0.921  -0.920  -0.920
 -0.916  -0.916  -0.894  -0.892  -0.891  -0.886  -0.882  -0.881
 -0.872  -0.870  -0.850  -0.845  -0.839  -0.839  -0.838  -0.836
 -0.835  -0.833  -0.821  -0.816  -0.806  -0.799  -0.796  -0.795
 -0.794  -0.794  -0.793  -0.791  -0.788  -0.787  -0.782  -0.782
 -0.770  -0.769  -0.766  -0.765  -0.765  -0.763  -0.762  -0.760
 -0.750  -0.744  -0.739  -0.733  -0.732  -0.726  -0.715  -0.714
 -0.712  -0.711  -0.711  -0.710  -0.709  -0.708  -0.708  -0.707
 -0.707  -0.705  -0.704  -0.703  -0.702  -0.701  -0.672  -0.668
 -0.657  -0.656  -0.655  -0.652  -0.646  -0.643  -0.631  -0.627
 -0.626  -0.626  -0.625  -0.624  -0.621  -0.621  -0.618  -0.615
 -0.613  -0.613  -0.610  -0.610  -0.609  -0.609  -0.608  -0.607
 -0.603  -0.601  -0.600  -0.599  -0.564  -0.563  -0.562  -0.562
 -0.561  -0.559  -0.558  -0.557  -0.555  -0.552  -0.551  -0.550
 -0.537  -0.535  -0.534  -0.531  -0.527  -0.526  -0.525  -0.522
 -0.520  -0.518  -0.517  -0.516  -0.516  -0.515  -0.513  -0.512
 -0.504  -0.504  -0.500  -0.498  -0.492  -0.491  -0.488  -0.485
 -0.482  -0.481  -0.480  -0.478  -0.477  -0.474  -0.473  -0.471
 -0.471  -0.470  -0.468  -0.467  -0.467  -0.465  -0.465  -0.464
 -0.464  -0.463  -0.462  -0.462  -0.459  -0.459  -0.456  -0.454
 -0.453  -0.452  -0.451  -0.450  -0.447  -0.445  -0.443  -0.443
 -0.441  -0.438  -0.437  -0.437  -0.436  -0.434  -0.433  -0.431
 -0.431  -0.430  -0.428  -0.426  -0.425  -0.424  -0.423  -0.423
 -0.422  -0.421  -0.421  -0.420  -0.419  -0.418  -0.417  -0.416
 -0.416  -0.415  -0.414  -0.414  -0.413  -0.412  -0.410  -0.410
 -0.409  -0.409  -0.407  -0.405  -0.404  -0.400  -0.397  -0.395
 -0.394  -0.393  -0.391  -0.388  -0.387  -0.387  -0.385  -0.383
 -0.375  -0.374  -0.373  -0.372  -0.368  -0.366  -0.365  -0.364
 -0.363  -0.362  -0.360  -0.359  -0.357  -0.356  -0.356  -0.355
 -0.355  -0.354  -0.353  -0.352  -0.351  -0.351  -0.350  -0.350
 -0.349  -0.347  -0.347  -0.346  -0.346  -0.346  -0.343  -0.343
 -0.342  -0.340  -0.340  -0.338  -0.338  -0.337  -0.336  -0.335
 -0.332  -0.330  -0.329  -0.327  -0.327  -0.325  -0.324  -0.323
 -0.313  -0.308  -0.300  -0.295  -0.286  -0.284  -0.273  -0.270
 -0.270  -0.269  -0.267  -0.267  -0.267  -0.265  -0.264  -0.263
 -0.260  -0.260  -0.258  -0.258  -0.256  -0.256  -0.253  -0.252
 -0.247  -0.247  -0.244  -0.239  -0.220  -0.220  -0.213  -0.211
 -0.209  -0.206  -0.205  -0.202  -0.200  -0.197

          Ground-State Mulliken Net Atomic Charges

     Atom                 Charge (a.u.)
  ----------------------------------------
      1 O                    -0.479528
      2 C                    -0.086279
      3 H                     0.126962
      4 H                     0.122485
      5 H                     0.131859
      6 O                    -0.454076
      7 C                     0.594159
      8 C                    -0.279213
      9 H                     0.128114
     10 H                     0.134767
     11 C                    -0.185125
     12 H                     0.132162
     13 H                     0.112936
     14 C                    -0.168831
     15 H                     0.101079
     16 H                     0.109548
     17 C                     0.014818
     18 C                     0.101394
     19 C                    -0.118993
     20 H                     0.101901
     21 C                    -0.097346
     22 H                     0.102229
     23 C                    -0.086626
     24 H                     0.090118
     25 C                    -0.088333
     26 H                     0.086485
     27 C                    -0.105160
     28 H                     0.086211
     29 C                    -0.016013
     30 C                     0.027650
     31 C                     0.035111
     32 C                    -0.012641
     33 C                    -0.012259
     34 C                     0.002395
     35 C                    -0.009756
     36 C                    -0.005368
     37 C                     0.029873
     38 C                    -0.032801
     39 C                    -0.079404
     40 C                    -0.006277
     41 C                    -0.004397
     42 C                     0.042060
     43 C                    -0.011910
     44 C                    -0.032728
     45 C                    -0.076837
     46 C                     0.005854
     47 C                     0.014855
     48 C                     0.034300
     49 C                    -0.009140
     50 C                     0.002814
     51 C                    -0.014069
     52 C                    -0.004410
     53 C                     0.008250
     54 C                    -0.008406
     55 C                     0.009016
     56 C                    -0.035628
     57 C                     0.008370
     58 C                     0.019510
     59 C                    -0.007961
     60 C                     0.013679
     61 C                     0.003139
     62 C                    -0.013358
     63 C                     0.055666
     64 C                    -0.020854
     65 C                    -0.004176
     66 C                    -0.046464
     67 C                     0.001535
     68 C                     0.028121
     69 C                    -0.009851
     70 C                     0.003062
     71 C                     0.022755
     72 C                    -0.006221
     73 C                     0.014764
     74 C                     0.007980
     75 C                     0.002966
     76 C                     0.018210
     77 C                    -0.002518
     78 C                     0.000826
     79 C                    -0.018457
     80 C                     0.003148
     81 C                     0.016863
     82 C                    -0.009553
     83 C                    -0.001937
     84 C                    -0.027719
     85 C                    -0.003106
     86 C                     0.010362
     87 C                     0.000811
     88 C                    -0.019073
     89 O                    -0.485696
     90 C                    -0.090655
     91 H                     0.138980
     92 H                     0.122760
     93 H                     0.125789
     94 O                    -0.462315
     95 C                     0.611379
     96 C                    -0.246496
     97 H                     0.124718
     98 H                     0.130749
     99 C                    -0.192695
    100 H                     0.120206
    101 H                     0.119757
    102 C                    -0.202225
    103 H                     0.115240
    104 H                     0.105982
    105 C                     0.005410
    106 C                     0.091512
    107 C                    -0.101765
    108 H                     0.095832
    109 C                    -0.094988
    110 H                     0.090514
    111 C                    -0.089470
    112 H                     0.091605
    113 C                    -0.087130
    114 H                     0.094346
    115 C                    -0.110180
    116 H                     0.092354
    117 C                    -0.001113
    118 C                    -0.003055
    119 C                    -0.006247
    120 C                    -0.024811
    121 C                     0.016259
    122 C                    -0.007387
    123 C                     0.017853
    124 C                     0.012770
    125 C                     0.019980
    126 C                    -0.025236
    127 C                    -0.091727
    128 C                     0.013565
    129 C                    -0.031116
    130 C                    -0.017443
    131 C                     0.014175
    132 C                    -0.010028
    133 C                    -0.083701
    134 C                    -0.002634
    135 C                     0.001394
    136 C                     0.001389
    137 C                    -0.002871
    138 C                     0.004132
    139 C                     0.016489
    140 C                     0.031105
    141 C                    -0.011987
    142 C                     0.006491
    143 C                     0.017259
    144 C                    -0.014221
    145 C                    -0.022933
    146 C                     0.006268
    147 C                    -0.005189
    148 C                     0.036992
    149 C                    -0.047532
    150 C                    -0.003438
    151 C                     0.008921
    152 C                    -0.025520
    153 C                     0.023200
    154 C                    -0.008873
    155 C                    -0.019289
    156 C                     0.061902
    157 C                    -0.018346
    158 C                     0.014778
    159 C                     0.001112
    160 C                    -0.018572
    161 C                     0.001872
    162 C                     0.014394
    163 C                     0.009887
    164 C                    -0.025264
    165 C                    -0.002599
    166 C                    -0.015188
    167 C                    -0.005531
    168 C                     0.025310
    169 C                     0.004264
    170 C                    -0.010059
    171 C                    -0.006399
    172 C                    -0.006567
    173 C                     0.028601
    174 C                    -0.002328
    175 C                     0.011830
    176 C                     0.033118
  ----------------------------------------
  Sum of atomic charges =     0.000000

                    Cartesian Multipole Moments
 -----------------------------------------------------------------
    Charge (ESU x 10^10)
                 0.0000
    Dipole Moment (Debye)
         X       0.6774      Y      -2.7521      Z       3.6214
       Tot       4.5987
    Quadrupole Moments (Debye-Ang)
        XX    -784.8403     XY      22.4439     YY    -787.4200
        XZ      10.8873     YZ      -8.4886     ZZ    -798.2669

 Total job time:  839.34s(wall), 7097.20s(cpu)
        *  Thank you very much for using Q-Chem.  Have a nice day.  *
