 Q-Chem 4.4, Q-Chem, Inc., Pleasanton, CA (2016)
 Q-Chem 4.4.2 for Intel X86 Linux

User input:
--------------------------------------------------------------
$comment
SP
$end

$rem
MEM_STATIC 5000
MEM_TOTAL 20000
JOBTYPE SP
EXCHANGE B3LYP
BASIS 6-31g(d,p)
$end

$molecule
0 1
O          -9.211000     32.907000    -14.624000
C          -8.194000     33.558000    -15.409000
H          -7.176000     33.270000    -15.117000
H          -8.327000     34.647000    -15.403000
H          -8.390000     33.322000    -16.462000
O          -8.796000     34.085000    -12.661000
C          -9.373000     33.268000    -13.307000
C         -10.509000     32.453000    -12.632000
H         -11.434000     32.728000    -13.155000
H         -10.614000     32.930000    -11.650000
C         -10.315000     30.911000    -12.706000
H         -10.194000     30.608000    -13.754000
H          -9.440000     30.632000    -12.106000
C         -11.510000     30.319000    -12.010000
H         -11.488000     30.678000    -10.974000
H         -12.439000     30.557000    -12.542000
C         -11.375000     28.741000    -11.828000
C         -11.465000     27.985000    -13.151000
C         -10.346000     27.828000    -13.965000
H          -9.383000     28.245000    -13.686000
C         -10.417000     27.229000    -15.226000
H          -9.586000     27.171000    -15.922000
C         -11.600000     26.600000    -15.651000
H         -11.669000     25.980000    -16.540000
C         -12.754000     26.723000    -14.776000
H         -13.689000     26.294000    -15.125000
C         -12.714000     27.481000    -13.605000
H         -13.547000     27.577000    -12.915000
C         -13.062000     24.144000     -9.300000
C         -10.711000     23.794000     -9.711000
C          -9.292000     23.898000     -5.525000
C         -13.562000     28.467000     -6.736000
C          -8.100000     27.176000     -5.830000
C         -11.917000     24.343000    -10.097000
C         -11.340000     28.813000     -5.071000
C         -11.293000     22.954000     -6.448000
C          -8.577000     27.165000     -9.819000
C         -12.484000     29.284000     -7.111000
C         -10.528000     28.249000    -10.728000
C          -8.766000     28.324000     -9.126000
C         -10.256000     29.620000     -7.160000
C         -10.119000     28.149000     -4.726000
C         -10.216000     25.699000    -10.814000
C          -9.548000     25.822000     -4.353000
C         -11.999000     28.020000    -10.623000
C         -12.778000     28.583000     -9.446000
C          -8.454000     25.961000     -5.195000
C         -13.527000     25.319000     -5.153000
C         -11.507000     24.411000     -4.566000
C         -12.153000     23.537000     -5.487000
C         -11.726000     22.893000     -7.723000
C         -13.757000     27.623000     -8.975000
C          -9.633000     27.000000    -10.727000
C         -10.632000     22.949000     -8.588000
C         -11.377000     29.500000     -6.313000
C          -9.650000     24.594000    -10.118000
C          -8.323000     28.360000     -7.802000
C         -14.456000     26.376000     -7.101000
C          -9.887000     23.022000     -6.408000
C          -9.916000     29.017000     -9.538000
C         -13.748000     24.058000     -7.185000
C          -9.076000     28.978000     -6.840000
C          -8.050000     26.012000     -9.214000
C         -11.818000     26.776000     -4.142000
C         -12.387000     27.902000     -4.729000
C          -7.580000     26.061000     -7.884000
C         -14.135000     27.621000     -7.670000
C         -12.100000     29.277000     -8.420000
C         -14.069000     26.475000     -5.740000
C         -12.462000     26.630000    -10.592000
C          -8.425000     23.955000     -8.161000
C         -10.719000     29.557000     -8.506000
C          -7.693000     27.229000     -7.179000
C         -14.303000     25.190000     -7.817000
C          -8.234000     24.747000     -5.880000
C         -12.973000     23.392000     -8.112000
C         -10.095000     24.577000     -4.587000
C          -8.491000     24.711000     -9.333000
C          -7.777000     24.809000     -7.250000
C         -11.615000     25.536000    -10.809000
C         -13.547000     26.487000     -9.735000
C         -12.392000     25.490000     -4.326000
C          -9.468000     23.066000     -7.759000
C          -8.972000     28.286000     -5.609000
C         -13.514000     27.765000     -5.562000
C         -10.418000     26.889000     -4.176000
C         -13.846000     25.239000     -9.173000
C         -13.381000     24.124000     -5.802000
O         -22.393000     28.688000     -0.303000
C         -21.582000     27.706000      0.443000
H         -21.722000     26.680000      0.079000
H         -21.824000     27.694000      1.512000
H         -20.526000     27.972000      0.304000
O         -24.272000     27.467000      0.008000
C         -23.756000     28.480000     -0.384000
C         -24.564000     29.689000     -0.929000
H         -24.346000     30.595000     -0.351000
H         -25.656000     29.581000     -0.912000
C         -24.315000     30.025000     -2.436000
H         -24.853000     30.942000     -2.706000
H         -23.253000     30.108000     -2.695000
C         -24.860000     28.843000     -3.336000
H         -24.818000     27.877000     -2.817000
H         -25.952000     28.836000     -3.441000
C         -24.140000     28.799000     -4.667000
C         -24.609000     29.996000     -5.432000
C         -23.749000     31.095000     -5.737000
H         -22.717000     31.037000     -5.404000
C         -24.203000     32.106000     -6.576000
H         -23.464000     32.885000     -6.735000
C         -25.576000     32.173000     -7.002000
H         -25.890000     32.965000     -7.675000
C         -26.443000     31.115000     -6.707000
H         -27.456000     31.119000     -7.098000
C         -25.971000     30.022000     -5.926000
H         -26.699000     29.225000     -5.802000
C         -22.045000     25.945000     -8.969000
C         -20.312000     27.638000     -8.530000
C         -17.274000     24.762000     -6.736000
C         -23.184000     23.347000     -4.697000
C         -18.219000     25.585000     -3.443000
C         -21.703000     27.256000     -8.594000
C         -20.837000     23.174000     -3.158000
C         -18.743000     24.541000     -8.632000
C         -20.352000     28.637000     -4.657000
C         -23.006000     24.280000     -3.625000
C         -22.704000     28.300000     -4.614000
C         -20.664000     27.941000     -3.456000
C         -21.483000     25.411000     -2.397000
C         -19.497000     23.536000     -3.069000
C         -21.412000     28.595000     -6.762000
C         -17.755000     23.589000     -4.852000
C         -23.742000     27.484000     -5.387000
C         -24.025000     26.060000     -4.943000
C         -17.514000     24.917000     -4.507000
C         -20.855000     22.163000     -7.074000
C         -18.668000     22.765000     -6.986000
C         -19.166000     23.266000     -8.195000
C         -19.682000     25.388000     -9.184000
C         -24.061000     25.190000     -6.048000
C         -21.501000     28.848000     -5.368000
C         -19.329000     26.702000     -8.848000
C         -21.808000     24.131000     -2.836000
C         -20.146000     28.529000     -7.457000
C         -19.715000     27.050000     -2.869000
C         -23.030000     23.139000     -6.998000
C         -17.778000     25.262000     -7.949000
C         -22.024000     27.654000     -3.444000
C         -21.507000     23.690000     -8.792000
C         -20.156000     25.803000     -2.345000
C         -19.079000     28.528000     -5.244000
C         -19.734000     22.070000     -4.852000
C         -21.001000     22.321000     -4.288000
C         -18.157000     27.663000     -4.675000
C         -23.679000     23.832000     -5.946000
C         -23.329000     25.610000     -3.783000
C         -22.117000     22.270000     -6.420000
C         -23.500000     27.260000     -6.883000
C         -17.992000     27.551000     -6.990000
C         -22.440000     26.343000     -3.054000
C         -18.497000     26.917000     -3.504000
C         -22.752000     23.901000     -8.148000
C         -17.192000     25.636000     -5.648000
C         -21.043000     25.002000     -9.313000
C         -17.675000     23.515000     -6.252000
C         -18.959000     28.460000     -6.641000
C         -17.539000     27.014000     -5.744000
C         -22.377000     27.848000     -7.517000
C         -23.749000     25.904000     -7.203000
C         -19.665000     22.058000     -6.277000
C         -18.176000     26.647000     -8.057000
C         -19.169000     24.894000     -2.707000
C         -22.152000     22.421000     -5.021000
C         -18.797000     22.913000     -4.161000
C         -23.092000     25.262000     -8.272000
C         -20.511000     22.898000     -8.190000
$end

--------------------------------------------------------------

             Standard Nuclear Orientation (Angstroms)
    I     Atom           X                Y                Z
 ----------------------------------------------------------------
    1      O       9.6485832010    -7.0540505069    -0.8188246033
    2      C      10.9239875872    -7.7036630652    -0.9790187850
    3      H      11.7366018893    -7.0033308290    -1.2108047962
    4      H      10.8640294806    -8.5159977723    -1.7139768443
    5      H      11.1272607622    -8.2611406506    -0.0566198701
    6      O       9.3596387408    -6.5252749678    -3.0660863878
    7      C       9.0222070986    -6.5279176402    -1.9242164726
    8      C       7.6686900687    -5.8673658426    -1.5473756940
    9      H       7.0286106112    -6.6761098181    -1.1718620856
   10      H       7.2286669503    -5.6182508321    -2.5206173736
   11      C       7.7836174088    -4.7568002808    -0.4637189959
   12      H       8.2738056766    -5.1666773925     0.4287328042
   13      H       8.3481360803    -3.9117817145    -0.8769117984
   14      C       6.3809996113    -4.2597864319    -0.2433884533
   15      H       6.0307936807    -3.8537446009    -1.2000215270
   16      H       5.7384167242    -5.0490909539     0.1650164988
   17      C       6.3424064094    -2.9797329897     0.7060359776
   18      C       6.7146409294    -3.3052457241     2.1501439798
   19      C       8.0468863545    -3.3666419283     2.5510911502
   20      H       8.8558028067    -3.1933862148     1.8477166902
   21      C       8.4226061929    -3.7589684578     3.8390653337
   22      H       9.4500972746    -3.9041408209     4.1577000181
   23      C       7.4530319632    -3.9406790603     4.8403954841
   24      H       7.6885821907    -4.0822482869     5.8910887050
   25      C       6.0633404242    -3.8271822527     4.4300957144
   26      H       5.3060569642    -4.0276050118     5.1827041642
   27      C       5.7025550449    -3.6144498439     3.0989368838
   28      H       4.6777607904    -3.5007433749     2.7582426295
   29      C       3.5524566406     1.3776322526     2.6030627124
   30      C       5.8586741866     2.0843873784     2.5811578494
   31      C       5.5917103201     5.0898311184    -0.6504069758
   32      C       2.3791023327    -0.2325629958    -2.0383741266
   33      C       7.0043374439     2.9262333971    -3.0131389769
   34      C       4.9235889852     1.0813868812     2.7374865703
   35      C       3.8222760223     1.2516858916    -3.9207874557
   36      C       4.0361283843     4.5680074735     1.0974290933
   37      C       8.0724595066     0.2665356005    -0.1980201713
   38      C       3.5656473725    -0.7225656597    -2.6060062768
   39      C       6.6791211844    -1.6754492010     0.1102676009
   40      C       7.7050097362    -0.1783917360    -1.4334437146
   41      C       5.6623222194    -0.3130160549    -3.3239928416
   42      C       4.7798492001     2.3152404561    -3.9724333421
   43      C       6.8472683381     0.1813955085     1.8797574312
   44      C       5.0269015995     4.3824958011    -2.7292441166
   45      C       5.2669085312    -1.8948163048     0.5401984043
   46      C       4.1356649056    -1.7893150483    -0.4689083020
   47      C       6.3643617621     4.0849683498    -2.5106149119
   48      C       1.6240674612     3.0208375262    -0.9148415787
   49      C       3.2135146503     4.6549551793    -1.1445155405
   50      C       2.9129928273     4.4979875354     0.2391320998
   51      C       4.1149562763     3.6732305126     2.1024143438
   52      C       2.9956848499    -1.1065710435     0.1109089939
   53      C       7.4307237794    -0.5122381168     0.7758955097
   54      C       5.4561526468     3.4202712590     2.3946486876
   55      C       4.2991668852    -0.0340968904    -3.5530378909
   56      C       7.0406072843     1.5810728587     2.0509893414
   57      C       7.6153819326     0.7682201057    -2.4563874462
   58      C       1.5662911532     0.7530251790    -0.1219462161
   59      C       5.3237993165     4.9738740757     0.6971343625
   60      C       6.8401073890    -1.2832950331    -1.3732304781
   61      C       2.1133538732     2.5667414062     1.3921871425
   62      C       6.5927994394     0.7065549295    -3.3646272002
   63      C       8.2613347349     1.6309635569     0.0773441328
   64      C       2.9073256130     3.1438615423    -3.0133564363
   65      C       2.6712278658     1.7972270462    -3.2722760911
   66      C       8.1951547130     2.5803490271    -0.9650034262
   67      C       2.1526059615    -0.3954162427    -0.6824319398
   68      C       4.4152435181    -1.4280091823    -1.8050557005
   69      C       1.4147051046     1.6610764570    -1.2009992946
   70      C       4.7443228205    -1.0265814111     1.5987362375
   71      C       7.3934096038     3.6472074631     0.8910698098
   72      C       5.7401846672    -1.2604111288    -2.2626568849
   73      C       7.8939048630     2.1597884640    -2.2324399495
   74      C       1.9075745836     1.1916550638     1.1562519080
   75      C       6.7541282614     4.5835814359    -1.2493107985
   76      C       3.1401420982     2.6914314267     2.3052415439
   77      C       4.5356738439     4.9542940843    -1.5735053851
   78      C       7.8211546435     2.3476932531     1.1699479172
   79      C       7.6983659300     3.8127062805    -0.4722910304
   80      C       5.5433511149    -0.1262290449     2.3144550379
   81      C       3.4092608725    -0.7139756551     1.3706787088
   82      C       2.3697848193     3.7682319785    -1.8564902152
   83      C       6.2246694811     4.2162356358     1.4827009993
   84      C       6.1816602676     2.0093872486    -3.7369624384
   85      C       1.9372050826     1.0242665958    -2.3522056070
   86      C       4.2201478036     3.4690645914    -3.3937061079
   87      C       2.8457368981     0.4388893380     1.9328993399
   88      C       1.9329943501     3.5061007986     0.3259749805
   89      O      -8.1991337957     0.9826698067    -4.4966297376
   90      C      -7.7910447998     2.4011181354    -4.5019879362
   91      H      -7.8440268545     2.8589473451    -3.5058166073
   92      H      -8.4197978200     3.0116838590    -5.1602797687
   93      H      -6.7470928379     2.4460127051    -4.8386803461
   94      O     -10.1255296761     1.4755193467    -3.4176018220
   95      C      -9.4399488499     0.6637048444    -3.9806516819
   96      C      -9.9077390532    -0.7884100093    -4.2706599183
   97      H      -9.8708634226    -1.0016814644    -5.3456480458
   98      H     -10.9293265290    -1.0339436920    -3.9536595397
   99      C      -9.0873978888    -1.9045001649    -3.5444856014
  100      H      -9.4273162052    -2.8924148777    -3.8787206360
  101      H      -8.0034478031    -1.8033170951    -3.6734359720
  102      C      -9.3210017939    -1.7980268183    -1.9829986043
  103      H      -9.5363948276    -0.7691309268    -1.6679429181
  104      H     -10.2903820756    -2.1926218005    -1.6541602407
  105      C      -8.1549283709    -2.3885077911    -1.2191255828
  106      C      -8.2270533106    -3.8677314550    -1.4305264938
  107      C      -7.2514895102    -4.5808249203    -2.1922344306
  108      H      -6.4276939728    -4.0140970192    -2.6158585549
  109      C      -7.2928883041    -5.9697946425    -2.2269799427
  110      H      -6.5034869751    -6.3996092368    -2.8355421468
  111      C      -8.3959405550    -6.7057772045    -1.6677846278
  112      H      -8.3839372337    -7.7911145500    -1.6940099361
  113      C      -9.3717330095    -6.0303406875    -0.9263720589
  114      H     -10.1592628892    -6.5894840348    -0.4301650399
  115      C      -9.2966677885    -4.6141509426    -0.7992271851
  116      H     -10.0637418337    -4.1902892748    -0.1569595651
  117      C      -4.7627118286    -2.4366340515     3.2003874892
  118      C      -3.2267243567    -2.8359964833     1.3179658749
  119      C      -1.2714192158     1.2733844700     1.4129710683
  120      C      -7.5867568846     1.7669419753     2.3931532549
  121      C      -3.3411097599     2.4808828382    -1.1701533466
  122      C      -4.5102480701    -3.0288403724     1.9506420255
  123      C      -6.0114993991     3.5792828192     0.9299910903
  124      C      -1.9241510354    -0.2161729567     3.1897034185
  125      C      -4.6693899455    -1.1110051730    -1.9900321569
  126      C      -7.7721377519     1.8345614744     0.9745558711
  127      C      -6.8783944387    -1.5614714022    -1.2385660396
  128      C      -5.4536805119     0.0487771553    -2.2429239489
  129      C      -6.7623078701     2.2701930075    -0.9995623567
  130      C      -4.7857414385     3.7866145530     0.3062155103
  131      C      -4.8545295784    -2.7353814695    -0.2919408861
  132      C      -2.4987996872     3.1531199402     1.0710972017
  133      C      -7.5935416092    -1.7857823098     0.0952548409
  134      C      -8.1081682485    -0.5772982539     0.8566527058
  135      C      -2.3272617917     2.4990222420    -0.1468604953
  136      C      -4.6068564242     1.8179541587     4.2888897882
  137      C      -2.5839754569     2.1121743128     3.3017200495
  138      C      -2.5565323057     0.8390556510     3.8840444835
  139      C      -2.5319607102    -1.4548813233     3.1879766745
  140      C      -7.7753637235    -0.6673202516     2.2206021873
  141      C      -5.4490734020    -2.0613787015    -1.3907602118
  142      C      -2.2543994753    -2.0705249573     1.9599523763
  143      C      -6.9729966640     2.8050462786     0.2678319034
  144      C      -3.4260814211    -2.7414953473    -0.0691506653
  145      C      -4.8525102744     1.3440002221    -2.2364006921
  146      C      -6.5862810074     0.5072872766     4.0586558996
  147      C      -1.2480646166    -0.0033817137     2.0000891779
  148      C      -6.7316418916    -0.1542135740    -1.7352602060
  149      C      -4.4676693271    -0.5546417687     4.5333739745
  150      C      -5.5327625880     2.4288004945    -1.6162949278
  151      C      -3.2779148531    -1.0160786944    -1.8118046877
  152      C      -4.4177202476     3.6310567177     2.5919924380
  153      C      -5.7864528687     3.4222922740     2.3286021970
  154      C      -2.6933179797     0.2410095206    -1.8050433613
  155      C      -7.5423645149     0.4808438895     3.0130177815
  156      C      -7.9311238086     0.6889350531     0.2259194195
  157      C      -6.0136423844     1.7701681513     4.0642150016
  158      C      -6.8173390869    -2.4982418858     1.2073101439
  159      C      -1.6716392106    -1.0925078583    -0.1997714551
  160      C      -7.3419271832     0.8990737377    -0.9855838079
  161      C      -3.4951128028     1.4088895132    -1.9961935236
  162      C      -5.8487449633    -0.6776280824     4.2387785674
  163      C      -1.5550610869     1.3638455116     0.0470618148
  164      C      -3.7634172307    -1.6768181447     3.8604474065
  165      C      -1.8995875726     2.3451002817     2.0508548622
  166      C      -2.6425304322    -1.8142696707    -0.8475377106
  167      C      -1.7568039477     0.2159108428    -0.7715069448
  168      C      -5.5049278900    -2.9751774045     0.9645379023
  169      C      -7.0074018922    -1.8108386989     2.4298034931
  170      C      -3.8154991679     2.7597206377     3.5478340602
  171      C      -1.4919571888    -1.1794496807     1.1965510330
  172      C      -4.5384781050     3.1484457251    -0.9643723029
  173      C      -6.5663014468     2.5364495236     3.0208512974
  174      C      -3.7632243562     3.7534783612     1.3181215382
  175      C      -6.0344442603    -1.8290226892     3.4494096862
  176      C      -3.8228363464     0.6939014195     4.4496223522
 ----------------------------------------------------------------

    9   -5804.3036596669      8.46E-06 Convergence criterion met
 Total energy in the final basis set = -5804.3036596669

                    Orbital Energies (a.u.)
 --------------------------------------------------------------

 Alpha MOs
 -- Occupied --
-19.198 -19.189 -19.141 -19.136 -10.319 -10.317 -10.249 -10.245
-10.243 -10.243 -10.241 -10.240 -10.237 -10.236 -10.230 -10.229
-10.229 -10.227 -10.227 -10.226 -10.225 -10.224 -10.223 -10.223
-10.223 -10.222 -10.222 -10.222 -10.222 -10.221 -10.221 -10.221
-10.221 -10.220 -10.220 -10.220 -10.220 -10.220 -10.219 -10.219
-10.219 -10.218 -10.218 -10.218 -10.218 -10.218 -10.218 -10.217
-10.217 -10.217 -10.217 -10.217 -10.217 -10.217 -10.217 -10.217
-10.216 -10.216 -10.216 -10.216 -10.216 -10.216 -10.215 -10.215
-10.215 -10.215 -10.215 -10.215 -10.215 -10.215 -10.215 -10.215
-10.215 -10.215 -10.215 -10.214 -10.214 -10.214 -10.214 -10.214
-10.214 -10.214 -10.214 -10.214 -10.214 -10.213 -10.213 -10.213
-10.213 -10.213 -10.213 -10.213 -10.213 -10.213 -10.212 -10.212
-10.212 -10.212 -10.212 -10.212 -10.212 -10.211 -10.211 -10.211
-10.211 -10.211 -10.211 -10.211 -10.211 -10.211 -10.211 -10.210
-10.210 -10.210 -10.210 -10.210 -10.210 -10.209 -10.209 -10.208
-10.208 -10.208 -10.208 -10.207 -10.207 -10.207 -10.207 -10.207
-10.206 -10.206 -10.205 -10.205 -10.205 -10.204 -10.204 -10.204
-10.203 -10.203 -10.203 -10.202 -10.201 -10.201 -10.201 -10.200
-10.200 -10.199 -10.199 -10.198  -1.096  -1.087  -1.028  -1.007
 -0.982  -0.979  -0.964  -0.963  -0.961  -0.960  -0.959  -0.956
 -0.934  -0.928  -0.926  -0.925  -0.924  -0.922  -0.921  -0.921
 -0.920  -0.916  -0.894  -0.892  -0.889  -0.886  -0.886  -0.883
 -0.875  -0.871  -0.852  -0.846  -0.842  -0.839  -0.838  -0.837
 -0.834  -0.834  -0.820  -0.816  -0.808  -0.799  -0.796  -0.796
 -0.795  -0.794  -0.793  -0.791  -0.790  -0.788  -0.784  -0.783
 -0.770  -0.769  -0.767  -0.766  -0.766  -0.763  -0.760  -0.759
 -0.750  -0.750  -0.742  -0.733  -0.732  -0.726  -0.716  -0.715
 -0.713  -0.713  -0.712  -0.711  -0.709  -0.709  -0.708  -0.707
 -0.707  -0.705  -0.703  -0.703  -0.701  -0.700  -0.674  -0.669
 -0.659  -0.657  -0.656  -0.653  -0.645  -0.643  -0.632  -0.628
 -0.627  -0.626  -0.624  -0.622  -0.621  -0.620  -0.618  -0.615
 -0.614  -0.614  -0.612  -0.611  -0.611  -0.610  -0.608  -0.608
 -0.606  -0.601  -0.601  -0.599  -0.570  -0.563  -0.562  -0.562
 -0.562  -0.559  -0.558  -0.558  -0.556  -0.554  -0.553  -0.551
 -0.535  -0.534  -0.533  -0.532  -0.528  -0.527  -0.525  -0.523
 -0.520  -0.519  -0.518  -0.517  -0.516  -0.515  -0.514  -0.514
 -0.506  -0.504  -0.499  -0.497  -0.494  -0.492  -0.486  -0.484
 -0.484  -0.483  -0.482  -0.481  -0.478  -0.477  -0.475  -0.473
 -0.472  -0.471  -0.470  -0.468  -0.467  -0.466  -0.465  -0.465
 -0.465  -0.463  -0.462  -0.462  -0.460  -0.459  -0.458  -0.455
 -0.453  -0.453  -0.451  -0.449  -0.448  -0.446  -0.445  -0.444
 -0.442  -0.438  -0.438  -0.437  -0.437  -0.435  -0.433  -0.431
 -0.429  -0.427  -0.427  -0.426  -0.425  -0.425  -0.424  -0.423
 -0.423  -0.422  -0.421  -0.419  -0.418  -0.418  -0.417  -0.417
 -0.416  -0.416  -0.415  -0.414  -0.414  -0.414  -0.412  -0.412
 -0.411  -0.410  -0.408  -0.406  -0.404  -0.398  -0.396  -0.395
 -0.395  -0.394  -0.393  -0.392  -0.388  -0.386  -0.385  -0.384
 -0.381  -0.377  -0.375  -0.372  -0.369  -0.368  -0.366  -0.365
 -0.364  -0.364  -0.361  -0.360  -0.359  -0.358  -0.357  -0.356
 -0.356  -0.355  -0.355  -0.354  -0.353  -0.352  -0.351  -0.351
 -0.350  -0.348  -0.347  -0.347  -0.346  -0.346  -0.345  -0.344
 -0.343  -0.343  -0.341  -0.339  -0.338  -0.335  -0.335  -0.333
 -0.333  -0.332  -0.330  -0.329  -0.328  -0.325  -0.324  -0.323
 -0.316  -0.308  -0.308  -0.299  -0.286  -0.284  -0.271  -0.269
 -0.269  -0.268  -0.267  -0.266  -0.266  -0.265  -0.265  -0.263
 -0.261  -0.260  -0.260  -0.258  -0.258  -0.256  -0.254  -0.253
 -0.247  -0.247  -0.245  -0.240  -0.220  -0.218  -0.214  -0.212
 -0.210  -0.208  -0.204  -0.203  -0.201  -0.197

          Ground-State Mulliken Net Atomic Charges

     Atom                 Charge (a.u.)
  ----------------------------------------
      1 O                    -0.467631
      2 C                    -0.090012
      3 H                     0.129810
      4 H                     0.128843
      5 H                     0.123864
      6 O                    -0.443006
      7 C                     0.582444
      8 C                    -0.255478
      9 H                     0.120380
     10 H                     0.132260
     11 C                    -0.184144
     12 H                     0.131455
     13 H                     0.110629
     14 C                    -0.164282
     15 H                     0.111381
     16 H                     0.111866
     17 C                    -0.010575
     18 C                     0.083512
     19 C                    -0.104443
     20 H                     0.090099
     21 C                    -0.092572
     22 H                     0.090979
     23 C                    -0.085838
     24 H                     0.096554
     25 C                    -0.100138
     26 H                     0.089724
     27 C                    -0.097591
     28 H                     0.093943
     29 C                    -0.005208
     30 C                     0.023299
     31 C                     0.015379
     32 C                    -0.004524
     33 C                    -0.006861
     34 C                    -0.003615
     35 C                    -0.030316
     36 C                     0.032483
     37 C                     0.020969
     38 C                     0.024985
     39 C                    -0.077648
     40 C                     0.025657
     41 C                    -0.022063
     42 C                    -0.015225
     43 C                     0.000388
     44 C                     0.001256
     45 C                    -0.088390
     46 C                    -0.015747
     47 C                     0.010888
     48 C                     0.021537
     49 C                    -0.005880
     50 C                    -0.021643
     51 C                     0.021438
     52 C                    -0.013543
     53 C                     0.005054
     54 C                    -0.035483
     55 C                     0.002034
     56 C                    -0.011001
     57 C                     0.001169
     58 C                    -0.017262
     59 C                    -0.018663
     60 C                     0.012771
     61 C                    -0.006279
     62 C                     0.022834
     63 C                     0.030888
     64 C                     0.007980
     65 C                     0.002642
     66 C                    -0.002520
     67 C                     0.018277
     68 C                     0.025627
     69 C                     0.003816
     70 C                     0.043107
     71 C                     0.026600
     72 C                    -0.020820
     73 C                    -0.015977
     74 C                     0.004687
     75 C                    -0.016777
     76 C                    -0.003589
     77 C                     0.012360
     78 C                    -0.025498
     79 C                    -0.027585
     80 C                    -0.013909
     81 C                     0.037576
     82 C                    -0.026043
     83 C                    -0.010819
     84 C                    -0.018523
     85 C                    -0.004642
     86 C                     0.019639
     87 C                    -0.021277
     88 C                    -0.000798
     89 O                    -0.485977
     90 C                    -0.090775
     91 H                     0.137035
     92 H                     0.125520
     93 H                     0.126362
     94 O                    -0.462154
     95 C                     0.611498
     96 C                    -0.246055
     97 H                     0.125114
     98 H                     0.130520
     99 C                    -0.193240
    100 H                     0.120196
    101 H                     0.119811
    102 C                    -0.201874
    103 H                     0.115417
    104 H                     0.105929
    105 C                     0.004096
    106 C                     0.092649
    107 C                    -0.101937
    108 H                     0.096011
    109 C                    -0.095385
    110 H                     0.090681
    111 C                    -0.089313
    112 H                     0.091565
    113 C                    -0.087002
    114 H                     0.094309
    115 C                    -0.110565
    116 H                     0.092310
    117 C                    -0.001214
    118 C                    -0.003081
    119 C                     0.001098
    120 C                    -0.028817
    121 C                     0.016703
    122 C                    -0.007520
    123 C                     0.013821
    124 C                     0.009208
    125 C                     0.019856
    126 C                    -0.030081
    127 C                    -0.089819
    128 C                     0.012931
    129 C                    -0.027730
    130 C                    -0.011138
    131 C                     0.013008
    132 C                    -0.007468
    133 C                    -0.083931
    134 C                    -0.002562
    135 C                    -0.006883
    136 C                     0.001538
    137 C                    -0.003481
    138 C                     0.005513
    139 C                     0.015461
    140 C                     0.031573
    141 C                    -0.010669
    142 C                     0.004436
    143 C                     0.009859
    144 C                    -0.014533
    145 C                    -0.021424
    146 C                     0.005886
    147 C                     0.001175
    148 C                     0.037039
    149 C                    -0.046856
    150 C                    -0.002974
    151 C                     0.011182
    152 C                    -0.019880
    153 C                     0.013724
    154 C                    -0.012822
    155 C                    -0.017075
    156 C                     0.065953
    157 C                    -0.015906
    158 C                     0.015777
    159 C                     0.004346
    160 C                    -0.017294
    161 C                     0.005408
    162 C                     0.015155
    163 C                     0.019932
    164 C                    -0.025671
    165 C                    -0.009258
    166 C                    -0.018858
    167 C                    -0.001779
    168 C                     0.024663
    169 C                     0.004265
    170 C                    -0.009570
    171 C                    -0.008500
    172 C                    -0.007216
    173 C                     0.029650
    174 C                    -0.002442
    175 C                     0.011635
    176 C                     0.031665
  ----------------------------------------
  Sum of atomic charges =     0.000000

                    Cartesian Multipole Moments
 -----------------------------------------------------------------
    Charge (ESU x 10^10)
                 0.0000
    Dipole Moment (Debye)
         X       0.6947      Y      -5.0316      Z       1.2391
       Tot       5.2282
    Quadrupole Moments (Debye-Ang)
        XX    -781.7922     XY      -1.1959     YY    -784.1381
        XZ      34.3832     YZ     -11.9923     ZZ    -808.4106

 Total job time:  845.01s(wall), 7106.24s(cpu)
        *  Thank you very much for using Q-Chem.  Have a nice day.  *
