 Q-Chem 4.4, Q-Chem, Inc., Pleasanton, CA (2016)
 Q-Chem 4.4.2 for Intel X86 Linux

User input:
--------------------------------------------------------------
$comment
SP
$end

$rem
MEM_STATIC 5000
MEM_TOTAL 20000
JOBTYPE SP
EXCHANGE B3LYP
BASIS 6-31g(d,p)
$end

$molecule
0 1
O         -24.765000      5.612000     -1.838000
C         -25.398000      6.527000     -2.713000
H         -24.863000      7.477000     -2.589000
H         -26.441000      6.620000     -2.386000
H         -25.455000      6.208000     -3.761000
O         -26.048000      3.752000     -2.173000
C         -25.149000      4.335000     -1.611000
C         -24.177000      3.715000     -0.583000
H         -24.545000      4.117000      0.369000
H         -23.142000      4.004000     -0.805000
C         -24.231000      2.152000     -0.430000
H         -25.229000      1.811000     -0.128000
H         -24.029000      1.748000     -1.430000
C         -23.172000      1.712000      0.564000
H         -22.172000      2.005000      0.221000
H         -23.353000      2.270000      1.491000
C         -23.382000      0.223000      0.785000
C         -24.563000     -0.130000      1.698000
C         -25.766000     -0.575000      1.185000
H         -25.891000     -0.635000      0.108000
C         -26.782000     -0.779000      2.084000
H         -27.716000     -1.215000      1.742000
C         -26.630000     -0.516000      3.472000
H         -27.488000     -0.584000      4.134000
C         -25.427000      0.035000      3.899000
H         -25.408000      0.278000      4.957000
C         -24.365000      0.182000      3.040000
H         -23.419000      0.511000      3.460000
C         -21.006000     -4.181000      2.943000
C         -22.544000     -5.125000      1.272000
C         -19.280000     -6.307000     -1.733000
C         -17.948000     -0.685000      0.882000
C         -19.596000     -3.531000     -3.740000
C         -22.219000     -4.148000      2.235000
C         -17.405000     -1.381000     -1.750000
C         -19.359000     -6.555000      0.692000
C         -23.035000     -2.497000     -1.791000
C         -18.629000      0.020000     -0.141000
C         -22.846000     -0.788000     -0.173000
C         -22.168000     -1.521000     -2.360000
C         -19.648000     -0.380000     -2.161000
C         -17.688000     -2.361000     -2.733000
C         -23.479000     -3.123000      0.545000
C         -17.858000     -4.724000     -2.614000
C         -22.125000     -0.599000      1.159000
C         -20.712000     -0.051000      1.203000
C         -19.088000     -4.735000     -3.293000
C         -16.967000     -4.087000      1.262000
C         -17.349000     -5.570000     -0.370000
C         -18.033000     -5.976000      0.818000
C         -20.370000     -6.180000      1.631000
C         -20.009000     -0.868000      2.138000
C         -23.394000     -2.147000     -0.515000
C         -21.579000     -6.102000      0.887000
C         -18.418000     -0.439000     -1.462000
C         -23.288000     -4.487000      0.230000
C         -21.163000     -1.883000     -3.296000
C         -18.086000     -2.293000      2.555000
C         -19.964000     -6.772000     -0.595000
C         -21.961000     -0.596000     -1.373000
C         -18.774000     -4.623000      2.665000
C         -19.870000     -1.341000     -3.221000
C         -22.893000     -3.903000     -2.105000
C         -16.566000     -3.394000     -1.043000
C         -16.754000     -2.045000     -0.724000
C         -21.885000     -4.164000     -3.038000
C         -18.618000     -1.113000      2.053000
C         -20.027000      0.259000      0.036000
C         -17.163000     -2.724000      1.571000
C         -22.118000     -1.693000      2.083000
C         -21.978000     -5.816000     -1.379000
C         -20.653000     -0.041000     -1.231000
C         -21.039000     -3.257000     -3.664000
C         -18.938000     -3.283000      2.979000
C         -19.957000     -5.691000     -2.755000
C         -20.036000     -5.180000      2.618000
C         -18.009000     -5.716000     -1.606000
C         -22.961000     -4.857000     -1.087000
C         -21.309000     -5.417000     -2.601000
C         -22.795000     -2.932000      1.773000
C         -20.877000     -1.787000      2.701000
C         -16.605000     -4.444000     -0.042000
C         -21.296000     -6.511000     -0.412000
C         -18.959000     -2.360000     -3.398000
C         -17.044000     -1.725000      0.599000
C         -17.176000     -3.592000     -2.294000
C         -20.314000     -3.020000      3.137000
C         -17.786000     -5.023000      1.844000
O         -20.243000    -21.675000      5.638000
C         -20.781000    -23.011000      5.846000
H         -21.360000    -23.348000      4.977000
H         -21.391000    -23.075000      6.755000
H         -19.908000    -23.673000      5.908000
O         -22.394000    -20.872000      5.753000
C         -21.186000    -20.712000      5.671000
C         -20.507000    -19.345000      5.669000
H         -19.982000    -19.186000      4.718000
H         -19.778000    -19.394000      6.487000
C         -21.440000    -18.144000      5.886000
H         -22.387000    -18.286000      5.352000
H         -21.663000    -18.116000      6.960000
C         -20.741000    -16.811000      5.380000
H         -19.779000    -16.637000      5.877000
H         -20.401000    -16.999000      4.354000
C         -21.592000    -15.559000      5.474000
C         -21.921000    -15.245000      6.945000
C         -20.945000    -14.650000      7.766000
H         -19.984000    -14.344000      7.362000
C         -21.391000    -14.258000      9.076000
H         -20.719000    -13.717000      9.736000
C         -22.710000    -14.426000      9.538000
H         -23.053000    -14.038000     10.492000
C         -23.601000    -15.108000      8.754000
H         -24.567000    -15.331000      9.196000
C         -23.150000    -15.601000      7.517000
H         -23.804000    -16.243000      6.935000
C         -25.951000    -12.680000      3.694000
C         -24.355000    -10.904000      4.280000
C         -23.406000     -9.737000     -0.015000
C         -23.964000    -16.027000      0.439000
C         -20.491000    -11.669000     -0.223000
C         -24.945000    -12.182000      4.548000
C         -22.125000    -14.706000     -1.219000
C         -25.508000    -10.290000      1.027000
C         -20.575000    -12.331000      3.776000
C         -22.573000    -16.088000      0.751000
C         -21.423000    -14.485000      4.434000
C         -20.057000    -13.283000      2.876000
C         -20.625000    -15.043000      0.764000
C         -21.545000    -13.434000     -1.412000
C         -22.710000    -12.331000      4.996000
C         -22.557000    -11.252000     -1.480000
C         -22.704000    -15.248000      4.413000
C         -23.055000    -15.997000      3.111000
C         -21.518000    -10.787000     -0.622000
C         -25.914000    -13.292000     -0.750000
C         -24.922000    -11.337000     -1.074000
C         -25.835000    -11.154000     -0.043000
C         -25.762000    -10.671000      2.326000
C         -24.388000    -15.844000      2.750000
C         -21.452000    -12.988000      4.665000
C         -24.769000    -10.189000      3.169000
C         -21.680000    -15.491000     -0.086000
C         -22.978000    -10.975000      4.587000
C         -19.818000    -12.934000      1.514000
C         -25.846000    -15.027000      1.017000
C         -24.316000     -9.554000      1.049000
C         -20.516000    -14.580000      3.261000
C         -26.652000    -12.801000      1.524000
C         -19.990000    -13.843000      0.460000
C         -20.814000    -11.020000      3.377000
C         -23.786000    -13.308000     -1.874000
C         -23.501000    -14.634000     -1.528000
C         -20.572000    -10.661000      2.056000
C         -24.885000    -15.938000      1.477000
C         -22.128000    -16.027000      2.117000
C         -25.663000    -14.649000     -0.321000
C         -23.931000    -14.436000      4.553000
C         -22.494000     -9.720000      2.611000
C         -20.894000    -15.408000      2.123000
C         -20.073000    -11.617000      1.115000
C         -26.466000    -14.124000      1.880000
C         -22.045000     -9.894000      0.270000
C         -26.366000    -11.938000      2.597000
C         -23.735000    -10.649000     -1.081000
C         -22.024000    -10.362000      3.729000
C         -21.550000     -9.820000      1.595000
C         -23.911000    -13.045000      4.922000
C         -24.907000    -14.879000      3.611000
C         -24.940000    -12.643000     -1.497000
C         -23.834000     -9.552000      2.339000
C         -20.496000    -13.002000     -0.565000
C         -24.473000    -15.268000     -0.670000
C         -22.560000    -12.585000     -1.850000
C         -25.956000    -13.982000      3.196000
C         -26.420000    -12.364000      0.225000
$end

--------------------------------------------------------------

             Standard Nuclear Orientation (Angstroms)
    I     Atom           X                Y                Z
 ----------------------------------------------------------------
    1      O     -13.7883716063    -3.5424229783    -0.5230134367
    2      C     -14.8620640398    -4.0352076961    -1.3026843803
    3      H     -15.7757202591    -3.6721378719    -0.8153306939
    4      H     -14.8104545175    -5.1305261713    -1.2704214720
    5      H     -14.8214904825    -3.7790094690    -2.3685315808
    6      O     -12.0104408377    -4.4550164411    -1.6293810763
    7      C     -12.4770165350    -3.8113574677    -0.7172712996
    8      C     -11.6669586688    -3.0698808926     0.3690006470
    9      H     -11.7891294599    -3.7185993243     1.2451117667
   10      H     -12.0595424828    -2.0565949675     0.5211833760
   11      C     -10.1168348264    -2.9682050394     0.1322051776
   12      H      -9.6554816435    -3.9603426326     0.0527996563
   13      H      -9.9960421590    -2.4658295484    -0.8358072177
   14      C      -9.4939323700    -2.1568109160     1.2532533952
   15      H      -9.9196656580    -1.1462115000     1.2838799848
   16      H      -9.7832508905    -2.6391829811     2.1950951996
   17      C      -7.9891309230    -2.2313254300     1.0530480201
   18      C      -7.3486376850    -3.5555206376     1.4880359098
   19      C      -6.9859331847    -4.5201308983     0.5680492303
   20      H      -7.1989616697    -4.3535496143    -0.4836273076
   21      C      -6.5017964209    -5.7010390072     1.0711800605
   22      H      -6.1183752706    -6.4533552327     0.3882272669
   23      C      -6.4058626184    -5.9473669005     2.4672231381
   24      H      -6.1226668701    -6.9323367348     2.8259243979
   25      C      -6.8929956309    -4.9735756789     3.3318450698
   26      H      -6.8556020105    -5.2593800806     4.3785979351
   27      C      -7.3143468675    -3.7519211454     2.8656290937
   28      H      -7.5750936398    -2.9950951091     3.5996471258
   29      C      -3.3142266755     0.0297995944     2.7053615196
   30      C      -2.7504909815    -0.8942072482     0.4969153640
   31      C      -2.5635842797     3.1567567229    -1.6561294079
   32      C      -7.3851660164     3.0612249378     2.4624329911
   33      C      -5.7416962707     3.0309723374    -2.9668023119
   34      C      -3.4623557104    -0.9529225683     1.7123675921
   35      C      -7.4221949415     4.3489720518     0.0033629984
   36      C      -1.6946800277     2.4836919488     0.5211071918
   37      C      -6.0485963093    -0.8958787360    -1.8804639606
   38      C      -8.2918293935     2.5867213450     1.4825743987
   39      C      -7.2902275936    -1.3449057336     0.0768435036
   40      C      -7.1841854848    -0.0385088711    -1.9386029256
   41      C      -8.3712128925     2.1830926329    -0.7778554549
   42      C      -6.7148889574     4.4534715252    -1.2195744917
   43      C      -4.8180681027    -1.8488662161     0.0230914485
   44      C      -4.3954899815     4.5516286484    -1.7069999422
   45      C      -7.1684446886    -1.0225150456     1.5637931222
   46      C      -7.7629270355     0.2520048311     2.1303607025
   47      C      -4.4927678118     3.5505449080    -2.6880352975
   48      C      -4.0591042005     4.3227124836     2.3001771185
   49      C      -3.0285434883     4.5625688510     0.3281095381
   50      C      -2.2931657552     3.6498052377     1.1467169996
   51      C      -1.7590223294     1.2257088188     1.1977204586
   52      C      -6.7721206479     0.7842051109     3.0084202474
   53      C      -6.0375449835    -1.6134614656    -0.7123415807
   54      C      -1.9600619914     0.2505841281     0.1828234727
   55      C      -8.2012533283     3.1876417934     0.2054942950
   56      C      -3.5939812829    -1.4158671401    -0.5339770012
   57      C      -7.1312818770     1.2113441128    -2.6110861797
   58      C      -5.3950661057     2.6943481900     3.6063476721
   59      C      -1.7841873492     2.2642282802    -0.8978033542
   60      C      -7.8332523504    -0.2100564808    -0.7461572784
   61      C      -3.0815154131     2.2945393127     2.9723287024
   62      C      -7.7054249151     2.3636220186    -2.0508599758
   63      C      -4.7810595874    -0.5048915388    -2.4601842987
   64      C      -5.3439186891     5.2182052075     0.4289690832
   65      C      -6.5526684628     4.7888965829     0.9871125141
   66      C      -4.8249739492     0.7345850096    -3.1055085696
   67      C      -6.6337153850     2.1689922570     3.2640362546
   68      C      -8.4003394059     1.1721438149     1.3092250739
   69      C      -5.2835004513     3.8866009742     2.8500194343
   70      C      -5.8752403149    -1.1199943907     2.1710667221
   71      C      -2.7984995847     0.4198758860    -1.9721975719
   72      C      -8.4034772793     0.9376339706    -0.1163135214
   73      C      -5.9075552646     1.5951207767    -3.2386884823
   74      C      -4.2841843616     1.8906280003     3.5304819537
   75      C      -3.3843562389     2.6968173740    -2.6546574177
   76      C      -2.4873762324     1.1665592363     2.4434037726
   77      C      -3.1703822888     4.2684414600    -1.0422855993
   78      C      -3.5945644809    -0.7158510652    -1.7539340311
   79      C      -3.5350731693     1.3279397918    -2.8283081357
   80      C      -4.7230121630    -1.5352335241     1.4032798062
   81      C      -5.6930080461    -0.0796082933     3.0739671421
   82      C      -4.0707876844     5.0512848684     1.1052065012
   83      C      -1.9159784371     0.9086050368    -1.0418544948
   84      C      -6.8178916410     3.4080039473    -2.1963318775
   85      C      -6.5043282780     4.1289459790     2.2114316829
   86      C      -5.4421970905     4.9822821870    -0.9534153366
   87      C      -4.4219473876     0.4990820569     3.3512328647
   88      C      -2.9613707021     3.5030178915     2.3932520468
   89      O      14.2143124241     2.2232711705     1.3547211231
   90      C      15.5860961050     1.8190183770     1.0856612568
   91      H      15.7187175515     1.5310299518     0.0352112490
   92      H      15.9155780549     1.0071609054     1.7450595360
   93      H      16.1929660830     2.7210139139     1.2350931183
   94      O      13.5869089752     0.0337557309     1.0429166135
   95      C      13.3454123332     1.1924429505     1.3440997788
   96      C      11.9891436274     1.6745902927     1.8518429600
   97      H      11.5618355368     2.4041660427     1.1515330139
   98      H      12.2075211084     2.1671504038     2.8071763117
   99      C      10.9375649683     0.5762975518     2.0707364936
  100      H      10.9885821628    -0.1750575883     1.2738728293
  101      H      11.1997040003     0.0810763953     3.0141495177
  102      C       9.4830292963     1.2123262867     2.1070604130
  103      H       9.3907827102     1.9836808763     2.8811609649
  104      H       9.3812160675     1.8269573367     1.2040195840
  105      C       8.3460544564     0.2181414181     2.2464363811
  106      C       8.4404797712    -0.5167567582     3.5961350624
  107      C       8.0249118667     0.1321083788     4.7738104637
  108      H       7.5730388062     1.1195394823     4.7396995711
  109      C       8.0089706358    -0.6828086343     5.9588573568
  110      H       7.6205857828    -0.2767983015     6.8884690046
  111      C       8.3622441799    -2.0452514335     5.9782589509
  112      H       8.2527278827    -2.6688099265     6.8600128771
  113      C       8.8666317813    -2.6115279653     4.8387041970
  114      H       9.2485131711    -3.6238402940     4.9261075907
  115      C       8.9985527132    -1.7982529536     3.6994941097
  116      H       9.5034962990    -2.1947467311     2.8240349961
  117      C       5.3480488169    -3.8521675582     0.0322843939
  118      C       3.6987714109    -2.6943625838     1.4408864240
  119      C       1.4135960882    -0.8170884036    -2.0179183402
  120      C       7.6286905226    -0.6923950362    -3.2173485114
  121      C       3.0643367109     2.2678203868    -1.8404186179
  122      C       5.0329207980    -3.1711305199     1.2265368312
  123      C       5.8263588059     1.3355247486    -3.9350307037
  124      C       2.3306088028    -3.0322692647    -1.7688431834
  125      C       4.7387743459     1.2334679714     1.7041088101
  126      C       7.6919821438     0.5668553260    -2.5493449963
  127      C       7.0326113171     0.5167321103     1.5761023462
  128      C       5.3967051048     2.0803374870     0.7905623471
  129      C       6.5808497822     2.3005310837    -1.7451987148
  130      C       4.5178846399     1.7840310040    -3.6550833944
  131      C       5.1700522908    -1.1277178027     2.2383616288
  132      C       2.4508245291     0.5627152169    -3.4952639769
  133      C       7.8332074875    -0.6107417250     1.0180525969
  134      C       8.2391358780    -0.5172985303    -0.4671734840
  135      C       2.1667575936     1.2784043713    -2.2956786275
  136      C       4.7903620599    -2.5902578092    -4.2363943556
  137      C       2.7667497851    -1.7974975820    -3.8032782242
  138      C       2.9059864133    -2.9617149165    -3.0581405461
  139      C       3.0469986597    -3.5649453858    -0.7199772611
  140      C       8.0712927967    -1.7196595567    -1.1430252888
  141      C       5.6497144408     0.2442504826     2.1315850122
  142      C       2.7451784165    -2.8915370742     0.4566483321
  143      C       6.8514553391     1.5653433518    -2.9378850237
  144      C       3.7711849487    -1.4459937464     2.0979636837
  145      C       4.6957566379     2.6189116405    -0.3286226814
  146      C       6.9159541584    -2.7684548637    -2.9765364110
  147      C       1.5611788258    -1.9869780386    -1.2412185414
  148      C       6.7721961067     1.7011082370     0.7175919452
  149      C       4.9434747113    -3.9467761419    -2.2132246818
  150      C       5.3101989248     2.8393630494    -1.5698490316
  151      C       3.3843095079     0.9459404558     1.5707074216
  152      C       4.3996571903    -0.2586633303    -4.6869860674
  153      C       5.7524102338     0.0885083182    -4.5934550585
  154      C       2.6841238858     1.4755355222     0.4928599555
  155      C       7.8608447256    -1.8544799562    -2.4898397041
  156      C       7.9610873352     0.6318528052    -1.1382958393
  157      C       6.1962805759    -2.2933231186    -4.0824011222
  158      C       7.1530785749    -1.9226914926     0.9918711199
  159      C       2.0245552280    -0.6255997029     0.6872563320
  160      C       7.2980980080     1.7359711495    -0.6409822219
  161      C       3.3363783164     2.3153158328    -0.4651333575
  162      C       6.3013223910    -3.6974024021    -2.1375714168
  163      C       1.5641687863     0.4322714781    -1.4058540064
  164      C       4.3720757636    -4.0572601201    -0.9329159170
  165      C       2.0364167691    -0.7435579244    -3.3152342879
  166      C       2.9064753096    -0.3856079018     1.7107840087
  167      C       1.8074285152     0.5541792506    -0.0158578916
  168      C       5.9053424299    -2.1708809178     1.6649227683
  169      C       7.3908191646    -2.5589924950    -0.2630350305
  170      C       3.9184575311    -1.5439050027    -4.5062355995
  171      C       1.8655765169    -1.8595676639     0.0957693576
  172      C       4.2622673930     2.5162239041    -2.4706057120
  173      C       6.6383606998    -0.9865272630    -4.2162359301
  174      C       3.6414252833     0.8202859416    -4.1509507665
  175      C       6.4758466715    -3.5671924320    -0.7358914822
  176      C       4.1742677093    -3.4420909905    -3.2552455482
 ----------------------------------------------------------------

    9   -5804.2960140750      8.03E-06 Convergence criterion met
 Total energy in the final basis set = -5804.2960140750

                    Orbital Energies (a.u.)
 --------------------------------------------------------------

 Alpha MOs
 -- Occupied --
-19.201 -19.190 -19.140 -19.137 -10.318 -10.318 -10.248 -10.248
-10.242 -10.240 -10.239 -10.239 -10.236 -10.233 -10.230 -10.226
-10.226 -10.226 -10.226 -10.222 -10.222 -10.222 -10.221 -10.221
-10.221 -10.220 -10.220 -10.220 -10.220 -10.220 -10.220 -10.220
-10.220 -10.220 -10.219 -10.218 -10.218 -10.217 -10.217 -10.217
-10.217 -10.216 -10.216 -10.216 -10.216 -10.216 -10.215 -10.215
-10.215 -10.214 -10.214 -10.214 -10.214 -10.214 -10.214 -10.214
-10.214 -10.213 -10.213 -10.213 -10.213 -10.213 -10.213 -10.213
-10.213 -10.213 -10.213 -10.213 -10.212 -10.212 -10.212 -10.212
-10.212 -10.212 -10.212 -10.211 -10.211 -10.211 -10.211 -10.211
-10.211 -10.211 -10.211 -10.211 -10.211 -10.211 -10.210 -10.210
-10.210 -10.210 -10.210 -10.210 -10.209 -10.209 -10.209 -10.209
-10.209 -10.209 -10.209 -10.209 -10.208 -10.208 -10.208 -10.208
-10.208 -10.208 -10.208 -10.208 -10.207 -10.207 -10.207 -10.207
-10.207 -10.207 -10.207 -10.207 -10.207 -10.206 -10.206 -10.206
-10.205 -10.205 -10.205 -10.205 -10.205 -10.204 -10.204 -10.204
-10.204 -10.204 -10.203 -10.202 -10.202 -10.202 -10.201 -10.201
-10.201 -10.200 -10.198 -10.197 -10.197 -10.196 -10.196 -10.195
-10.194 -10.194 -10.193 -10.192  -1.102  -1.098  -1.017  -1.014
 -0.981  -0.979  -0.963  -0.961  -0.961  -0.961  -0.958  -0.956
 -0.932  -0.929  -0.924  -0.924  -0.923  -0.922  -0.919  -0.918
 -0.918  -0.915  -0.895  -0.891  -0.889  -0.886  -0.883  -0.883
 -0.876  -0.871  -0.858  -0.852  -0.839  -0.836  -0.835  -0.835
 -0.834  -0.832  -0.821  -0.820  -0.804  -0.802  -0.795  -0.794
 -0.793  -0.792  -0.791  -0.790  -0.789  -0.787  -0.781  -0.779
 -0.770  -0.767  -0.767  -0.765  -0.764  -0.763  -0.763  -0.761
 -0.759  -0.750  -0.746  -0.740  -0.734  -0.731  -0.714  -0.713
 -0.712  -0.710  -0.710  -0.709  -0.708  -0.707  -0.706  -0.706
 -0.705  -0.704  -0.703  -0.702  -0.701  -0.700  -0.669  -0.668
 -0.656  -0.655  -0.654  -0.652  -0.645  -0.645  -0.632  -0.631
 -0.624  -0.624  -0.623  -0.621  -0.618  -0.617  -0.616  -0.612
 -0.612  -0.611  -0.610  -0.610  -0.609  -0.608  -0.606  -0.606
 -0.606  -0.602  -0.600  -0.598  -0.566  -0.563  -0.563  -0.561
 -0.560  -0.559  -0.555  -0.555  -0.553  -0.553  -0.552  -0.550
 -0.536  -0.535  -0.532  -0.531  -0.526  -0.524  -0.522  -0.522
 -0.520  -0.519  -0.516  -0.515  -0.514  -0.514  -0.511  -0.509
 -0.507  -0.507  -0.498  -0.498  -0.496  -0.494  -0.486  -0.485
 -0.483  -0.481  -0.480  -0.480  -0.477  -0.476  -0.474  -0.474
 -0.471  -0.470  -0.470  -0.469  -0.467  -0.467  -0.464  -0.464
 -0.463  -0.462  -0.462  -0.461  -0.460  -0.459  -0.459  -0.457
 -0.455  -0.454  -0.454  -0.449  -0.449  -0.446  -0.443  -0.442
 -0.440  -0.438  -0.438  -0.436  -0.435  -0.435  -0.434  -0.430
 -0.430  -0.428  -0.428  -0.427  -0.425  -0.424  -0.423  -0.422
 -0.420  -0.420  -0.420  -0.419  -0.418  -0.417  -0.416  -0.415
 -0.414  -0.414  -0.413  -0.412  -0.411  -0.411  -0.410  -0.410
 -0.408  -0.407  -0.405  -0.405  -0.401  -0.400  -0.399  -0.398
 -0.389  -0.388  -0.388  -0.386  -0.384  -0.384  -0.382  -0.378
 -0.378  -0.375  -0.374  -0.373  -0.371  -0.367  -0.365  -0.364
 -0.363  -0.363  -0.361  -0.360  -0.359  -0.358  -0.358  -0.356
 -0.355  -0.354  -0.353  -0.351  -0.351  -0.349  -0.349  -0.348
 -0.348  -0.348  -0.345  -0.345  -0.343  -0.342  -0.342  -0.342
 -0.340  -0.340  -0.339  -0.339  -0.337  -0.335  -0.333  -0.331
 -0.330  -0.330  -0.329  -0.328  -0.326  -0.325  -0.324  -0.321
 -0.309  -0.309  -0.306  -0.299  -0.287  -0.281  -0.273  -0.270
 -0.269  -0.268  -0.267  -0.266  -0.265  -0.264  -0.262  -0.261
 -0.260  -0.259  -0.258  -0.256  -0.255  -0.255  -0.253  -0.252
 -0.248  -0.247  -0.243  -0.241  -0.220  -0.215  -0.209  -0.208
 -0.207  -0.205  -0.203  -0.201  -0.200  -0.195

          Ground-State Mulliken Net Atomic Charges

     Atom                 Charge (a.u.)
  ----------------------------------------
      1 O                    -0.457947
      2 C                    -0.081008
      3 H                     0.127256
      4 H                     0.123233
      5 H                     0.127998
      6 O                    -0.466570
      7 C                     0.583902
      8 C                    -0.263519
      9 H                     0.132017
     10 H                     0.129354
     11 C                    -0.181400
     12 H                     0.120936
     13 H                     0.113916
     14 C                    -0.175233
     15 H                     0.109240
     16 H                     0.107927
     17 C                     0.015892
     18 C                     0.064422
     19 C                    -0.079042
     20 H                     0.104636
     21 C                    -0.108605
     22 H                     0.088919
     23 C                    -0.075937
     24 H                     0.092681
     25 C                    -0.097068
     26 H                     0.087328
     27 C                    -0.083499
     28 H                     0.098801
     29 C                    -0.017111
     30 C                    -0.010222
     31 C                     0.019157
     32 C                    -0.006699
     33 C                    -0.013650
     34 C                     0.018972
     35 C                    -0.007486
     36 C                    -0.020182
     37 C                    -0.007280
     38 C                    -0.029952
     39 C                    -0.081694
     40 C                     0.042652
     41 C                    -0.020648
     42 C                    -0.024853
     43 C                     0.005420
     44 C                    -0.002694
     45 C                    -0.105189
     46 C                     0.016424
     47 C                    -0.011753
     48 C                     0.020701
     49 C                     0.009385
     50 C                    -0.022278
     51 C                    -0.015368
     52 C                    -0.000114
     53 C                     0.017764
     54 C                     0.015141
     55 C                     0.020639
     56 C                    -0.040616
     57 C                    -0.019045
     58 C                    -0.054328
     59 C                    -0.006912
     60 C                     0.027696
     61 C                     0.054399
     62 C                    -0.026420
     63 C                    -0.026817
     64 C                     0.005308
     65 C                    -0.003307
     66 C                     0.027625
     67 C                     0.012963
     68 C                    -0.006455
     69 C                     0.006371
     70 C                     0.053803
     71 C                    -0.009352
     72 C                     0.003671
     73 C                    -0.023666
     74 C                     0.021130
     75 C                     0.011196
     76 C                    -0.024288
     77 C                     0.002058
     78 C                     0.043395
     79 C                    -0.020104
     80 C                     0.001351
     81 C                     0.000948
     82 C                    -0.033586
     83 C                     0.017072
     84 C                     0.050715
     85 C                     0.011088
     86 C                     0.012546
     87 C                    -0.009664
     88 C                    -0.007119
     89 O                    -0.456175
     90 C                    -0.091515
     91 H                     0.132636
     92 H                     0.136420
     93 H                     0.121411
     94 O                    -0.478535
     95 C                     0.604442
     96 C                    -0.269844
     97 H                     0.130229
     98 H                     0.133410
     99 C                    -0.175691
    100 H                     0.126726
    101 H                     0.117032
    102 C                    -0.193954
    103 H                     0.109281
    104 H                     0.102451
    105 C                     0.015070
    106 C                     0.091498
    107 C                    -0.109831
    108 H                     0.097670
    109 C                    -0.103775
    110 H                     0.084918
    111 C                    -0.070046
    112 H                     0.090956
    113 C                    -0.082537
    114 H                     0.094815
    115 C                    -0.112976
    116 H                     0.093760
    117 C                     0.004977
    118 C                     0.003795
    119 C                    -0.020750
    120 C                    -0.014569
    121 C                    -0.002866
    122 C                    -0.014913
    123 C                    -0.010071
    124 C                     0.005631
    125 C                     0.020894
    126 C                     0.000906
    127 C                    -0.076790
    128 C                     0.005764
    129 C                    -0.018442
    130 C                     0.009791
    131 C                    -0.008335
    132 C                    -0.013700
    133 C                    -0.086985
    134 C                     0.008616
    135 C                    -0.006730
    136 C                    -0.046505
    137 C                     0.019874
    138 C                    -0.001843
    139 C                     0.000063
    140 C                     0.040318
    141 C                     0.019188
    142 C                    -0.001516
    143 C                     0.006129
    144 C                    -0.035414
    145 C                     0.011859
    146 C                     0.019919
    147 C                    -0.025700
    148 C                     0.000919
    149 C                     0.024164
    150 C                    -0.030585
    151 C                    -0.013098
    152 C                     0.014064
    153 C                    -0.023208
    154 C                    -0.003057
    155 C                    -0.012893
    156 C                     0.026329
    157 C                     0.006150
    158 C                     0.034974
    159 C                     0.033391
    160 C                    -0.000721
    161 C                    -0.000629
    162 C                    -0.027145
    163 C                     0.028035
    164 C                    -0.004865
    165 C                    -0.006538
    166 C                    -0.007463
    167 C                    -0.008720
    168 C                     0.019988
    169 C                    -0.013252
    170 C                     0.032269
    171 C                     0.015806
    172 C                     0.010501
    173 C                    -0.000318
    174 C                    -0.005114
    175 C                    -0.015339
    176 C                    -0.003452
  ----------------------------------------
  Sum of atomic charges =     0.000000

                    Cartesian Multipole Moments
 -----------------------------------------------------------------
    Charge (ESU x 10^10)
                 0.0000
    Dipole Moment (Debye)
         X      -0.3394      Y      -0.5827      Z       3.9171
       Tot       3.9747
    Quadrupole Moments (Debye-Ang)
        XX    -705.6184     XY      41.7781     YY    -804.3985
        XZ       8.2191     YZ     -11.0172     ZZ    -796.9573

 Total job time:  816.90s(wall), 6872.77s(cpu)
        *  Thank you very much for using Q-Chem.  Have a nice day.  *
