 Q-Chem 4.4, Q-Chem, Inc., Pleasanton, CA (2016)
 Q-Chem 4.4.2 for Intel X86 Linux

User input:
--------------------------------------------------------------
$comment
SP
$end

$rem
MEM_STATIC 5000
MEM_TOTAL 20000
JOBTYPE SP
EXCHANGE B3LYP
BASIS 6-31g(d,p)
$end

$molecule
0 1
O          12.859000     -9.359000     -5.627000
C          11.393000     -9.230000     -5.639000
H          11.101000     -8.174000     -5.573000
H          10.971000     -9.684000     -4.734000
H          10.997000     -9.686000     -6.555000
O          13.421000     -7.094000     -5.946000
C          13.694000     -8.238000     -5.847000
C          15.123000     -8.755000     -6.068000
H          15.111000     -9.551000     -6.822000
H          15.457000     -9.236000     -5.140000
C          16.206000     -7.780000     -6.463000
H          15.956000     -7.437000     -7.474000
H          16.348000     -6.874000     -5.861000
C          17.559000     -8.444000     -6.643000
H          17.378000     -9.413000     -7.123000
H          18.139000     -7.934000     -7.422000
C          18.327000     -8.617000     -5.238000
C          18.684000     -7.339000     -4.588000
C          17.965000     -6.769000     -3.522000
H          17.354000     -7.487000     -2.982000
C          18.172000     -5.440000     -3.093000
H          17.597000     -5.044000     -2.261000
C          19.323000     -4.764000     -3.558000
H          19.595000     -3.817000     -3.102000
C          20.099000     -5.300000     -4.608000
H          20.775000     -4.655000     -5.163000
C          19.786000     -6.574000     -5.161000
H          20.298000     -6.907000     -6.059000
C          22.846000    -10.677000     -2.881000
C          21.112000    -10.808000     -1.096000
C          20.641000    -15.334000     -1.271000
C          21.071000    -12.869000     -7.037000
C          17.747000    -15.221000     -3.225000
C          21.697000    -10.099000     -2.213000
C          19.448000    -15.053000     -6.422000
C          22.634000    -13.913000     -1.477000
C          17.416000    -11.285000     -2.684000
C          19.728000    -12.714000     -7.133000
C          18.142000     -9.925000     -4.505000
C          16.906000    -11.895000     -3.856000
C          17.735000    -13.269000     -6.089000
C          18.881000    -15.723000     -5.346000
C          19.403000     -9.916000     -2.220000
C          19.928000    -16.318000     -3.202000
C          19.448000     -9.623000     -5.164000
C          19.913000    -10.459000     -6.299000
C          18.820000    -15.834000     -2.539000
C          23.167000    -14.521000     -4.917000
C          22.295000    -15.711000     -3.103000
C          23.066000    -14.632000     -2.639000
C          22.816000    -12.562000     -1.322000
C          21.269000    -10.696000     -6.180000
C          18.295000    -10.219000     -3.017000
C          21.654000    -12.096000     -0.690000
C          18.871000    -13.776000     -6.765000
C          19.686000    -10.684000     -1.067000
C          16.728000    -13.245000     -3.885000
C          22.987000    -12.393000     -5.939000
C          21.432000    -14.308000     -0.756000
C          17.437000    -11.137000     -4.988000
C          23.726000    -12.556000     -3.634000
C          17.170000    -13.968000     -5.058000
C          17.726000    -12.115000     -1.560000
C          21.215000    -15.940000     -5.298000
C          20.876000    -15.164000     -6.425000
C          17.577000    -13.489000     -1.584000
C          21.868000    -11.833000     -6.624000
C          19.133000    -11.493000     -6.726000
C          22.809000    -13.760000     -5.967000
C          20.691000     -9.497000     -4.279000
C          19.423000    -12.984000     -0.325000
C          17.930000    -11.895000     -6.064000
C          17.048000    -14.083000     -2.758000
C          23.474000    -11.756000     -4.768000
C          19.270000    -15.258000     -1.298000
C          23.312000    -11.890000     -2.473000
C          21.073000    -16.020000     -2.414000
C          18.830000    -11.807000     -0.779000
C          18.619000    -14.084000     -0.828000
C          20.619000     -9.589000     -2.875000
C          21.742000    -10.097000     -4.993000
C          22.354000    -15.591000     -4.503000
C          20.853000    -13.144000     -0.247000
C          17.814000    -15.141000     -4.607000
C          21.684000    -14.065000     -6.753000
C          19.994000    -16.237000     -4.612000
C          22.861000    -10.607000     -4.291000
C          23.641000    -13.951000     -3.704000
O          30.435000    -11.939000      7.491000
C          31.361000    -11.172000      8.184000
H          31.144000    -10.102000      8.082000
H          32.389000    -11.352000      7.846000
H          31.262000    -11.467000      9.236000
O          28.863000    -11.817000      9.136000
C          29.179000    -12.134000      8.008000
C          28.353000    -12.864000      7.054000
H          28.037000    -13.756000      7.608000
H          29.125000    -13.159000      6.333000
C          27.254000    -11.956000      6.381000
H          26.716000    -11.331000      7.104000
H          27.812000    -11.315000      5.686000
C          26.362000    -12.863000      5.493000
H          27.045000    -13.335000      4.775000
H          25.950000    -13.672000      6.108000
C          25.257000    -12.015000      4.853000
C          25.873000    -11.192000      3.736000
C          26.174000    -11.964000      2.607000
H          25.839000    -12.996000      2.560000
C          26.741000    -11.344000      1.442000
H          26.886000    -11.898000      0.519000
C          27.051000     -9.969000      1.466000
H          27.307000     -9.485000      0.528000
C          26.761000     -9.222000      2.576000
H          26.972000     -8.157000      2.544000
C          26.269000     -9.800000      3.785000
H          26.002000     -9.262000      4.690000
C          21.065000     -8.509000      5.635000
C          20.496000     -9.482000      3.498000
C          17.075000    -11.988000      5.157000
C          22.062000    -11.940000      9.305000
C          18.949000    -14.934000      5.503000
C          21.476000     -8.986000      4.398000
C          20.370000    -14.142000      8.782000
C          17.676000     -9.655000      5.606000
C          22.046000    -13.282000      3.340000
C          22.562000    -13.087000      8.595000
C          23.821000    -12.515000      4.683000
C          22.239000    -14.234000      4.333000
C          22.032000    -14.644000      7.095000
C          19.412000    -14.607000      7.895000
C          22.379000    -10.863000      3.354000
C          17.486000    -13.561000      6.840000
C          24.134000    -11.386000      5.671000
C          23.870000    -11.634000      7.084000
C          17.777000    -14.172000      5.601000
C          18.871000    -10.417000      8.933000
C          17.363000    -11.307000      7.441000
C          17.739000    -10.036000      6.992000
C          18.787000     -8.925000      5.105000
C          23.288000    -10.495000      7.751000
C          22.900000    -12.145000      3.513000
C          19.158000     -9.521000      3.883000
C          21.712000    -14.150000      8.349000
C          21.065000    -10.650000      2.948000
C          21.178000    -14.960000      4.909000
C          21.194000     -9.915000      8.876000
C          17.443000    -10.698000      4.685000
C          23.308000    -13.844000      5.167000
C          19.687000     -8.670000      7.384000
C          21.089000    -15.176000      6.257000
C          20.705000    -13.021000      2.926000
C          18.510000    -12.837000      8.982000
C          19.839000    -13.023000      9.438000
C          19.650000    -13.814000      3.438000
C          22.339000    -10.684000      8.809000
C          23.371000    -12.877000      7.418000
C          20.156000    -10.672000      9.373000
C          23.423000    -10.046000      5.504000
C          18.864000    -11.731000      2.936000
C          23.104000    -13.914000      6.573000
C          19.853000    -14.772000      4.452000
C          20.946000     -8.937000      7.849000
C          17.594000    -13.154000      4.601000
C          19.702000     -8.389000      6.005000
C          16.999000    -12.279000      6.559000
C          20.203000    -11.749000      2.598000
C          18.509000    -12.983000      3.504000
C          22.618000     -9.820000      4.320000
C          22.955000     -9.570000      6.742000
C          18.086000    -11.518000      8.630000
C          18.289000    -10.584000      3.537000
C          19.767000    -15.067000      6.637000
C          20.655000    -11.921000      9.695000
C          18.286000    -13.793000      7.981000
C          21.810000     -8.795000      6.732000
C          18.651000     -9.512000      7.934000
$end

--------------------------------------------------------------

             Standard Nuclear Orientation (Angstroms)
    I     Atom           X                Y                Z
 ----------------------------------------------------------------
    1      O       8.9271778176     5.5409445700     0.5856186677
    2      C       9.4357555953     6.9007919143     0.3445692033
    3      H       9.5224594350     7.4504602267     1.2906681360
    4      H       8.7035853353     7.4756530029    -0.2356776744
    5      H      10.4083274841     6.8394287188    -0.1595602239
    6      O       9.1484948748     5.4855399716     2.9299264740
    7      C       8.9086415157     4.9867454780     1.8874580479
    8      C       8.6129699776     3.4858524140     1.7530357584
    9      H       9.2880547487     3.0456607707     1.0095521546
   10      H       7.6046208892     3.3749200349     1.3346733281
   11      C       8.6689854259     2.6112713979     2.9824703096
   12      H       9.7206352263     2.5837257392     3.2915721276
   13      H       8.0986988813     2.9095788790     3.8708339197
   14      C       8.3530909166     1.1567055435     2.6852265808
   15      H       8.8185972796     0.9191952786     1.7213724943
   16      H       8.9164764950     0.4945606687     3.3541823752
   17      C       6.7653894074     0.8883009609     2.6545525276
   18      C       6.0958841393     1.0997841749     3.9546565796
   19      C       5.3611527639     2.2528435730     4.2845669168
   20      H       5.0230028145     2.8111686914     3.4160206176
   21      C       4.9523144146     2.5389774922     5.6052143279
   22      H       4.3811372338     3.4393537309     5.8119611704
   23      C       5.0369814829     1.5048480408     6.5651152422
   24      H       4.5625148108     1.6461555833     7.5313670497
   25      C       5.7392061354     0.3138249083     6.2817136982
   26      H       6.0661728022    -0.3267201075     7.0964657350
   27      C       6.3028899192     0.0959665679     4.9926627544
   28      H       6.9603179124    -0.7537169041     4.8337180121
   29      C       2.9342828417    -2.9363964946     1.6981416033
   30      C       1.8291098866    -0.7935911412     1.0679670589
   31      C       1.9329652247    -1.5483145680    -3.4216597204
   32      C       7.3337439674    -3.2650808110    -0.7028026741
   33      C       4.7465053088     0.4521082070    -3.9587089883
   34      C       2.7184870233    -1.5244816251     1.9439821326
   35      C       7.1932007275    -2.1261563621    -3.2454998046
   36      C       1.5278565768    -3.0753528422    -1.5407644303
   37      C       4.5383925261     1.9119731302    -0.2546812514
   38      C       7.8814203746    -2.0387578930    -0.8846615583
   39      C       6.0744392163     0.9779865551     1.3140592125
   40      C       5.7826068112     1.8298888648    -0.9262294524
   41      C       7.5398011102    -0.0150095875    -1.9606490463
   42      C       6.3382584884    -1.4157167523    -4.0776742627
   43      C       3.5023171490     0.6026865897     1.5480784575
   44      C       3.9413279236    -1.7939670295    -4.4759462743
   45      C       6.2716770536    -0.3550336849     1.9584777685
   46      C       7.1435708915    -1.3665768378     1.3104595703
   47      C       3.7119637987    -0.4443211224    -4.3106071573
   48      C       4.5569725956    -4.8668589803    -1.8606314372
   49      C       3.0846277044    -3.7603746565    -3.3011080815
   50      C       2.4418615840    -4.0369405162    -2.0827727254
   51      C       1.3862868161    -2.8531457814    -0.1943127880
   52      C       6.5659368922    -2.6173394786     1.4153298670
   53      C       4.6087937737     1.2661603636     1.0093818542
   54      C       1.2033121461    -1.4693309073    -0.0586637397
   55      C       7.7709083780    -1.4001739523    -2.1407326747
   56      C       2.2854669647     0.5424566456     0.8304643671
   57      C       5.8043199304     1.6466494899    -2.2756652130
   58      C       5.6817335810    -4.5184836614     0.1933440648
   59      C       1.2329495474    -1.8390670835    -2.2516071463
   60      C       6.7065533251     1.1551815579    -0.0157120777
   61      C       3.2573354893    -4.4555349760     0.1297330911
   62      C       6.7251330455     0.6712861779    -2.8186123712
   63      C       3.3367928025     1.8020713717    -1.0243926960
   64      C       5.5008070902    -3.5738851838    -3.7062807019
   65      C       6.7123357552    -3.4520536709    -2.9959417853
   66      C       3.3429279369     1.5882072276    -2.3899978687
   67      C       6.7281827278    -3.5930873498     0.4824320265
   68      C       7.7567082501    -1.0582240086     0.1319579317
   69      C       5.7016846821    -4.7056079746    -1.1725781310
   70      C       5.0286247415    -1.1555227176     2.3562066434
   71      C       1.5642657010     0.4597177145    -1.4896123572
   72      C       7.5173166859     0.1574000246    -0.5835886350
   73      C       4.5961612339     1.5266848278    -3.0507355607
   74      C       4.4474684188    -4.4091361368     0.8853062230
   75      C       2.4212767427    -0.2929759339    -3.6896574354
   76      C       2.3356824735    -3.5237961361     0.6250021621
   77      C       2.8306851252    -2.4953217707    -3.9324878109
   78      C       2.2469533917     1.1380948579    -0.4812295091
   79      C       2.2537701086     0.7479401940    -2.7349783572
   80      C       3.7271450741    -0.6410172803     2.1940375025
   81      C       5.3194700946    -2.4993301968     2.0664007785
   82      C       4.3880501969    -4.2547727753    -3.1152551660
   83      C       1.0041439057    -0.8529360519    -1.2901439037
   84      C       6.0283784035    -0.0534393184    -3.8102634811
   85      C       6.8034081660    -4.0234889045    -1.7178899125
   86      C       5.2499320736    -2.3077696210    -4.3256829201
   87      C       4.2594388520    -3.4065972367     1.8250187512
   88      C       3.2843044509    -4.7482192686    -1.2383891915
   89      O      -9.4286769778    -6.6578804378     1.9659675946
   90      C     -10.3539179295    -7.0757562979     2.9121826584
   91      H     -10.1335733947    -6.6472199117     3.8971688774
   92      H     -10.3888975392    -8.1679952323     3.0081958714
   93      H     -11.3249281622    -6.7054466630     2.5607002233
   94      O     -10.4441561618    -4.6464906648     1.6265471949
   95      C      -9.5038743644    -5.3914484523     1.4431431699
   96      C      -8.3647436682    -5.1429667837     0.5679688345
   97      H      -8.8232850325    -4.8911450747    -0.3957539701
   98      H      -7.9591265315    -6.1599266584     0.5038022417
   99      C      -7.3194788197    -4.1452987645     1.1982655267
  100      H      -7.7894217264    -3.2583153988     1.6400937437
  101      H      -6.8214407202    -4.7266941090     1.9851629183
  102      C      -6.2288944115    -3.8586203282     0.1327618324
  103      H      -5.8048368716    -4.8376647795    -0.1250058251
  104      H      -6.7086713505    -3.4784701211    -0.7770457895
  105      C      -5.2155702824    -2.8593067214     0.7022137837
  106      C      -4.3310712980    -3.5900544431     1.6962677630
  107      C      -3.4067985682    -4.4346968364     1.0689519348
  108      H      -3.3002003858    -4.4023943649    -0.0113495870
  109      C      -2.4705227561    -5.1874676371     1.8562496709
  110      H      -1.6773118613    -5.7670116765     1.3927680825
  111      C      -2.5305386348    -5.1196225389     3.2630531884
  112      H      -1.7102628910    -5.5473174074     3.8321408826
  113      C      -3.4418244858    -4.2975676491     3.8696773356
  114      H      -3.4309550767    -4.2355780405     4.9540246713
  115      C      -4.4425977861    -3.5877152074     3.1400258350
  116      H      -5.1787780577    -2.9073583009     3.5582495639
  117      C      -4.3779373593     2.0824897984     3.0159644710
  118      C      -2.2234335736     1.6395012748     2.0163977620
  119      C      -2.7596609810     4.6828715012    -1.3281374573
  120      C      -8.3310410599     1.5584355813    -0.1985352271
  121      C      -3.8552439785     2.3651719593    -3.7236488284
  122      C      -3.3746361350     1.1748584010     2.7057856517
  123      C      -7.3784914384     2.3730518817    -2.7311715021
  124      C      -3.2708058017     4.8670737920     1.0615260103
  125      C      -2.7774726804    -0.7653070263    -1.2664975612
  126      C      -7.8858127768     0.5807328677    -1.1553937222
  127      C      -4.5987424834    -1.7360037448    -0.1336748985
  128      C      -3.8225037514    -0.8432416003    -2.1783299267
  129      C      -6.3719895616     0.1714265026    -2.7352533908
  130      C      -6.2453938041     2.8297749608    -3.3855809918
  131      C      -2.7853621578    -0.4624949083     1.1564940973
  132      C      -4.5569905489     4.4846271238    -2.8134133882
  133      C      -5.5787609728    -1.4079287719     0.9979984522
  134      C      -6.8319307985    -0.7547020534     0.6365717761
  135      C      -3.5180833939     3.6520705780    -3.2831415238
  136      C      -6.8385706657     4.7105516899     0.4921819079
  137      C      -4.9724684212     5.3580555702    -0.6870674881
  138      C      -4.6145250351     5.1811239246     0.6541967383
  139      C      -3.1362565124     3.8705912180     2.0650901430
  140      C      -7.2096157944     0.2810567590     1.5668898543
  141      C      -3.1714106955    -1.2006925620     0.0401264381
  142      C      -2.1394188382     2.9747940673     1.6291966741
  143      C      -7.4209482682     1.0063204712    -2.3865562543
  144      C      -1.9528907823     0.6476803286     1.0501768718
  145      C      -4.0441824627     0.1340198594    -3.1684771825
  146      C      -7.5388086860     2.7056089031     1.5605700101
  147      C      -2.3764774414     4.5101943028     0.0304135945
  148      C      -4.9465318326    -1.4372450790    -1.5666619286
  149      C      -5.5699302656     3.8823217893     2.4471378581
  150      C      -5.2932608224     0.6143569341    -3.4526611829
  151      C      -1.9261111730     0.3786267473    -1.3328082358
  152      C      -6.8806330630     4.4541057517    -1.9412494627
  153      C      -7.7638745384     3.3538140728    -1.8070268215
  154      C      -2.0928119332     1.3122884272    -2.3837624327
  155      C      -7.8964341143     1.4519217713     1.1053254292
  156      C      -7.0391072957    -0.4977292731    -0.7038195433
  157      C      -7.6953502836     3.6277228880     0.5492824509
  158      C      -5.1187403811    -0.4854052655     2.1233168228
  159      C      -1.2565529080     2.3748285989    -0.5451846600
  160      C      -6.2046158685    -0.7966837444    -1.7406094362
  161      C      -3.1612432552     1.2308380264    -3.2997260468
  162      C      -6.4421052119     2.8285376618     2.4851493794
  163      C      -2.4666274929     3.7349549667    -2.3046816798
  164      C      -4.2637546554     3.4749323214     2.7769349120
  165      C      -4.0675296385     5.1509272140    -1.6837558263
  166      C      -1.3878821152     1.0402727688    -0.2147268329
  167      C      -1.7325910359     2.5773999628    -1.8674953434
  168      C      -3.7240449692    -0.0959401765     2.1873375423
  169      C      -6.1039380038     0.4740980620     2.4182456428
  170      C      -6.3436773981     5.0484920605    -0.7572627526
  171      C      -1.5740907590     3.3840292577     0.3972158618
  172      C      -5.2027527799     1.9701813445    -3.6924808282
  173      C      -8.2258176968     2.9724963860    -0.5470608140
  174      C      -5.9098382318     4.0837607834    -2.8827987181
  175      C      -5.6735663609     1.7033923774     2.8823207824
  176      C      -5.7811195316     4.7993287096     1.3520317436
 ----------------------------------------------------------------

    9   -5804.2710713064      7.74E-06 Convergence criterion met
 Total energy in the final basis set = -5804.2710713064

                    Orbital Energies (a.u.)
 --------------------------------------------------------------

 Alpha MOs
 -- Occupied --
-19.186 -19.186 -19.148 -19.132 -10.321 -10.309 -10.246 -10.245
-10.241 -10.240 -10.237 -10.236 -10.236 -10.233 -10.232 -10.232
-10.231 -10.226 -10.226 -10.225 -10.225 -10.225 -10.225 -10.225
-10.224 -10.222 -10.222 -10.222 -10.221 -10.221 -10.221 -10.221
-10.221 -10.220 -10.220 -10.220 -10.220 -10.220 -10.220 -10.219
-10.219 -10.219 -10.219 -10.219 -10.219 -10.219 -10.218 -10.218
-10.218 -10.218 -10.218 -10.218 -10.218 -10.218 -10.218 -10.217
-10.217 -10.217 -10.217 -10.217 -10.217 -10.217 -10.216 -10.216
-10.216 -10.216 -10.216 -10.216 -10.216 -10.216 -10.216 -10.216
-10.216 -10.215 -10.215 -10.215 -10.215 -10.215 -10.215 -10.215
-10.215 -10.215 -10.215 -10.214 -10.214 -10.214 -10.214 -10.214
-10.214 -10.214 -10.213 -10.213 -10.213 -10.213 -10.213 -10.213
-10.213 -10.213 -10.213 -10.213 -10.213 -10.213 -10.212 -10.212
-10.212 -10.212 -10.212 -10.211 -10.211 -10.211 -10.211 -10.211
-10.211 -10.210 -10.210 -10.210 -10.210 -10.210 -10.209 -10.209
-10.208 -10.208 -10.208 -10.207 -10.207 -10.207 -10.207 -10.206
-10.206 -10.206 -10.205 -10.205 -10.205 -10.204 -10.204 -10.204
-10.203 -10.203 -10.202 -10.201 -10.201 -10.201 -10.199 -10.199
-10.198 -10.198 -10.194 -10.188  -1.099  -1.087  -1.019  -1.013
 -0.983  -0.983  -0.965  -0.964  -0.963  -0.961  -0.960  -0.959
 -0.933  -0.931  -0.927  -0.926  -0.925  -0.925  -0.922  -0.921
 -0.919  -0.919  -0.895  -0.895  -0.891  -0.889  -0.885  -0.884
 -0.872  -0.871  -0.848  -0.848  -0.846  -0.840  -0.839  -0.838
 -0.836  -0.832  -0.822  -0.820  -0.809  -0.807  -0.800  -0.797
 -0.795  -0.794  -0.793  -0.792  -0.791  -0.790  -0.784  -0.781
 -0.773  -0.771  -0.770  -0.769  -0.767  -0.766  -0.764  -0.758
 -0.748  -0.747  -0.740  -0.739  -0.734  -0.730  -0.718  -0.716
 -0.715  -0.714  -0.713  -0.713  -0.711  -0.711  -0.709  -0.708
 -0.706  -0.705  -0.704  -0.703  -0.699  -0.697  -0.673  -0.672
 -0.659  -0.659  -0.657  -0.656  -0.647  -0.646  -0.632  -0.631
 -0.628  -0.627  -0.623  -0.622  -0.621  -0.620  -0.619  -0.616
 -0.615  -0.613  -0.613  -0.612  -0.612  -0.610  -0.609  -0.609
 -0.606  -0.604  -0.602  -0.601  -0.565  -0.563  -0.562  -0.562
 -0.559  -0.558  -0.557  -0.557  -0.555  -0.554  -0.552  -0.550
 -0.536  -0.533  -0.533  -0.529  -0.529  -0.528  -0.527  -0.526
 -0.524  -0.522  -0.521  -0.517  -0.517  -0.515  -0.513  -0.512
 -0.508  -0.504  -0.502  -0.496  -0.495  -0.492  -0.488  -0.487
 -0.485  -0.484  -0.481  -0.481  -0.480  -0.479  -0.477  -0.475
 -0.473  -0.471  -0.471  -0.470  -0.469  -0.468  -0.466  -0.465
 -0.465  -0.464  -0.463  -0.462  -0.460  -0.459  -0.458  -0.457
 -0.455  -0.455  -0.452  -0.451  -0.449  -0.447  -0.443  -0.443
 -0.441  -0.440  -0.439  -0.438  -0.438  -0.437  -0.432  -0.432
 -0.430  -0.430  -0.429  -0.427  -0.426  -0.426  -0.425  -0.424
 -0.423  -0.422  -0.422  -0.422  -0.421  -0.420  -0.419  -0.418
 -0.417  -0.416  -0.416  -0.415  -0.415  -0.414  -0.413  -0.413
 -0.412  -0.411  -0.410  -0.407  -0.404  -0.402  -0.398  -0.398
 -0.397  -0.392  -0.390  -0.389  -0.387  -0.385  -0.383  -0.383
 -0.382  -0.379  -0.373  -0.372  -0.371  -0.368  -0.367  -0.365
 -0.364  -0.363  -0.362  -0.361  -0.359  -0.357  -0.357  -0.356
 -0.356  -0.355  -0.354  -0.354  -0.353  -0.353  -0.352  -0.351
 -0.350  -0.349  -0.348  -0.347  -0.346  -0.345  -0.345  -0.344
 -0.343  -0.343  -0.342  -0.340  -0.339  -0.336  -0.336  -0.333
 -0.333  -0.331  -0.330  -0.328  -0.327  -0.324  -0.324  -0.321
 -0.313  -0.306  -0.301  -0.294  -0.288  -0.286  -0.277  -0.274
 -0.271  -0.270  -0.268  -0.268  -0.266  -0.265  -0.264  -0.263
 -0.261  -0.260  -0.260  -0.259  -0.257  -0.256  -0.253  -0.251
 -0.249  -0.246  -0.243  -0.239  -0.225  -0.217  -0.216  -0.211
 -0.210  -0.209  -0.208  -0.205  -0.203  -0.197

          Ground-State Mulliken Net Atomic Charges

     Atom                 Charge (a.u.)
  ----------------------------------------
      1 O                    -0.497848
      2 C                    -0.093535
      3 H                     0.135694
      4 H                     0.127387
      5 H                     0.127789
      6 O                    -0.424679
      7 C                     0.593312
      8 C                    -0.257974
      9 H                     0.130378
     10 H                     0.131632
     11 C                    -0.171246
     12 H                     0.102231
     13 H                     0.125218
     14 C                    -0.195269
     15 H                     0.102899
     16 H                     0.109477
     17 C                     0.023528
     18 C                     0.079013
     19 C                    -0.113857
     20 H                     0.093889
     21 C                    -0.086930
     22 H                     0.097769
     23 C                    -0.087403
     24 H                     0.093609
     25 C                    -0.090560
     26 H                     0.095020
     27 C                    -0.106705
     28 H                     0.092981
     29 C                    -0.020179
     30 C                    -0.013494
     31 C                     0.033444
     32 C                     0.037078
     33 C                     0.026450
     34 C                    -0.010058
     35 C                    -0.002330
     36 C                     0.010404
     37 C                    -0.006884
     38 C                    -0.011052
     39 C                    -0.082521
     40 C                     0.014705
     41 C                     0.026285
     42 C                    -0.004645
     43 C                    -0.006662
     44 C                     0.008736
     45 C                    -0.118826
     46 C                     0.053025
     47 C                    -0.008504
     48 C                     0.009188
     49 C                    -0.006646
     50 C                     0.010131
     51 C                    -0.025402
     52 C                     0.016907
     53 C                     0.043912
     54 C                     0.008740
     55 C                    -0.021993
     56 C                    -0.027737
     57 C                    -0.010154
     58 C                    -0.012814
     59 C                    -0.018933
     60 C                     0.010962
     61 C                     0.001055
     62 C                    -0.024098
     63 C                     0.008441
     64 C                    -0.005716
     65 C                    -0.016367
     66 C                     0.011426
     67 C                    -0.018911
     68 C                    -0.009104
     69 C                     0.034760
     70 C                     0.040466
     71 C                    -0.009903
     72 C                    -0.004058
     73 C                    -0.030974
     74 C                    -0.014780
     75 C                    -0.014072
     76 C                     0.037229
     77 C                    -0.016641
     78 C                     0.017558
     79 C                    -0.020589
     80 C                     0.029457
     81 C                     0.009570
     82 C                    -0.004720
     83 C                     0.011193
     84 C                     0.018492
     85 C                    -0.008216
     86 C                    -0.013093
     87 C                    -0.015136
     88 C                    -0.031178
     89 O                    -0.456135
     90 C                    -0.083716
     91 H                     0.114746
     92 H                     0.117528
     93 H                     0.127981
     94 O                    -0.471274
     95 C                     0.582525
     96 C                    -0.261177
     97 H                     0.134411
     98 H                     0.131992
     99 C                    -0.193128
    100 H                     0.127319
    101 H                     0.125327
    102 C                    -0.179514
    103 H                     0.118778
    104 H                     0.107559
    105 C                     0.014089
    106 C                     0.084536
    107 C                    -0.103422
    108 H                     0.093769
    109 C                    -0.099173
    110 H                     0.092645
    111 C                    -0.074227
    112 H                     0.092191
    113 C                    -0.093576
    114 H                     0.090155
    115 C                    -0.110215
    116 H                     0.096880
    117 C                     0.017890
    118 C                    -0.024904
    119 C                     0.008480
    120 C                    -0.034375
    121 C                     0.005718
    122 C                    -0.018725
    123 C                    -0.000761
    124 C                    -0.037519
    125 C                    -0.002865
    126 C                    -0.034274
    127 C                    -0.093351
    128 C                     0.029110
    129 C                    -0.012016
    130 C                     0.005909
    131 C                     0.038229
    132 C                     0.026496
    133 C                    -0.085339
    134 C                     0.010393
    135 C                    -0.037655
    136 C                     0.003250
    137 C                     0.036291
    138 C                     0.013375
    139 C                     0.009524
    140 C                    -0.008545
    141 C                     0.032734
    142 C                     0.039477
    143 C                     0.020438
    144 C                    -0.017101
    145 C                     0.002323
    146 C                     0.014059
    147 C                     0.008915
    148 C                    -0.017232
    149 C                    -0.021093
    150 C                     0.001586
    151 C                    -0.003008
    152 C                    -0.033188
    153 C                     0.002314
    154 C                    -0.009070
    155 C                     0.014934
    156 C                     0.041276
    157 C                     0.030573
    158 C                    -0.005950
    159 C                     0.000042
    160 C                     0.015664
    161 C                    -0.009180
    162 C                    -0.012643
    163 C                     0.009459
    164 C                    -0.007025
    165 C                    -0.038862
    166 C                     0.010362
    167 C                    -0.003305
    168 C                    -0.008535
    169 C                     0.014981
    170 C                    -0.016487
    171 C                    -0.019908
    172 C                     0.011103
    173 C                    -0.011550
    174 C                     0.017233
    175 C                     0.012144
    176 C                    -0.005733
  ----------------------------------------
  Sum of atomic charges =     0.000000

                    Cartesian Multipole Moments
 -----------------------------------------------------------------
    Charge (ESU x 10^10)
                 0.0000
    Dipole Moment (Debye)
         X       2.9194      Y      -1.9480      Z       1.6393
       Tot       3.8737
    Quadrupole Moments (Debye-Ang)
        XX    -815.5859     XY      18.8770     YY    -785.2380
        XZ       0.2694     YZ     -16.9050     ZZ    -799.6622

 Total job time:  823.62s(wall), 6931.92s(cpu)
        *  Thank you very much for using Q-Chem.  Have a nice day.  *
