 Q-Chem 4.4, Q-Chem, Inc., Pleasanton, CA (2016)
 Q-Chem 4.4.2 for Intel X86 Linux

User input:
--------------------------------------------------------------
$comment
SP
$end

$rem
MEM_STATIC 5000
MEM_TOTAL 20000
JOBTYPE SP
EXCHANGE B3LYP
BASIS 6-31g(d,p)
$end

$molecule
0 1
O          14.691000    -15.231000      1.398000
C          15.815000    -14.739000      2.161000
H          15.399000    -13.899000      2.732000
H          16.587000    -14.257000      1.547000
H          16.319000    -15.453000      2.823000
O          16.021000    -16.521000      0.036000
C          14.940000    -16.065000      0.329000
C          13.721000    -16.445000     -0.493000
H          13.253000    -17.261000      0.070000
H          14.069000    -16.879000     -1.439000
C          12.722000    -15.306000     -0.767000
H          11.819000    -15.634000     -1.297000
H          12.331000    -14.864000      0.158000
C          13.438000    -14.263000     -1.672000
H          14.389000    -13.988000     -1.199000
H          13.687000    -14.662000     -2.662000
C          12.528000    -13.005000     -1.743000
C          11.571000    -13.058000     -2.995000
C          10.218000    -13.461000     -2.801000
H           9.898000    -13.929000     -1.875000
C           9.319000    -13.449000     -3.893000
H           8.287000    -13.779000     -3.810000
C           9.798000    -12.999000     -5.154000
H           9.160000    -12.931000     -6.031000
C          11.123000    -12.596000     -5.314000
H          11.481000    -12.441000     -6.327000
C          11.976000    -12.539000     -4.225000
H          13.016000    -12.260000     -4.366000
C          12.426000     -7.563000     -2.361000
C          10.261000     -7.994000     -1.391000
C          11.195000     -6.270000      2.722000
C          16.169000     -9.456000      0.432000
C          11.892000     -9.310000      4.206000
C          11.302000     -8.407000     -2.268000
C          15.358000     -9.393000      3.101000
C          11.762000     -5.365000      0.491000
C          10.508000    -11.233000      0.934000
C          15.712000    -10.635000      1.032000
C          12.092000    -12.086000     -0.550000
C          11.524000    -11.758000      1.722000
C          14.159000    -11.430000      2.516000
C          14.395000     -8.973000      4.067000
C          10.502000    -10.269000     -1.244000
C          12.860000     -7.131000      4.021000
C          13.162000    -11.613000     -1.478000
C          14.490000    -11.208000     -0.989000
C          11.717000     -7.895000      4.164000
C          15.149000     -6.147000      0.768000
C          13.469000     -5.524000      2.219000
C          13.097000     -5.218000      0.901000
C          11.456000     -5.889000     -0.786000
C          14.908000    -10.016000     -1.536000
C          10.764000    -11.381000     -0.422000
C          10.326000     -6.773000     -0.653000
C          15.276000    -10.632000      2.324000
C           9.761000     -9.133000     -0.747000
C          11.825000    -11.213000      2.951000
C          15.558000     -7.738000     -0.978000
C          10.849000     -5.929000      1.423000
C          12.502000    -12.253000      0.882000
C          13.793000     -6.169000     -1.239000
C          13.129000    -11.050000      3.423000
C           9.748000    -10.135000      1.439000
C          15.086000     -7.144000      3.000000
C          15.861000     -8.204000      2.529000
C          10.018000     -9.578000      2.746000
C          15.773000     -9.138000     -0.872000
C          14.842000    -11.510000      0.364000
C          15.893000     -7.168000      0.304000
C          12.792000    -10.410000     -2.243000
C           9.489000     -7.890000      1.363000
C          13.842000    -11.984000      1.226000
C          11.047000    -10.154000      3.464000
C          14.587000     -7.216000     -1.770000
C          10.692000     -7.344000      3.418000
C          12.524000     -6.392000     -1.564000
C          12.551000     -6.049000      3.159000
C           9.451000     -9.076000      0.615000
C           9.816000     -8.214000      2.690000
C          11.469000     -9.810000     -2.237000
C          13.840000     -9.532000     -2.241000
C          14.761000     -6.126000      2.146000
C           9.989000     -6.790000      0.708000
C          13.242000     -9.851000      4.149000
C          16.219000     -8.225000      1.184000
C          14.160000     -7.630000      3.963000
C          13.692000     -8.141000     -2.413000
C          14.144000     -5.537000     -0.002000
O          30.435000    -11.939000      7.491000
C          31.361000    -11.172000      8.184000
H          31.144000    -10.102000      8.082000
H          32.389000    -11.352000      7.846000
H          31.262000    -11.467000      9.236000
O          28.863000    -11.817000      9.136000
C          29.179000    -12.134000      8.008000
C          28.353000    -12.864000      7.054000
H          28.037000    -13.756000      7.608000
H          29.125000    -13.159000      6.333000
C          27.254000    -11.956000      6.381000
H          26.716000    -11.331000      7.104000
H          27.812000    -11.315000      5.686000
C          26.362000    -12.863000      5.493000
H          27.045000    -13.335000      4.775000
H          25.950000    -13.672000      6.108000
C          25.257000    -12.015000      4.853000
C          25.873000    -11.192000      3.736000
C          26.174000    -11.964000      2.607000
H          25.839000    -12.996000      2.560000
C          26.741000    -11.344000      1.442000
H          26.886000    -11.898000      0.519000
C          27.051000     -9.969000      1.466000
H          27.307000     -9.485000      0.528000
C          26.761000     -9.222000      2.576000
H          26.972000     -8.157000      2.544000
C          26.269000     -9.800000      3.785000
H          26.002000     -9.262000      4.690000
C          21.065000     -8.509000      5.635000
C          20.496000     -9.482000      3.498000
C          17.075000    -11.988000      5.157000
C          22.062000    -11.940000      9.305000
C          18.949000    -14.934000      5.503000
C          21.476000     -8.986000      4.398000
C          20.370000    -14.142000      8.782000
C          17.676000     -9.655000      5.606000
C          22.046000    -13.282000      3.340000
C          22.562000    -13.087000      8.595000
C          23.821000    -12.515000      4.683000
C          22.239000    -14.234000      4.333000
C          22.032000    -14.644000      7.095000
C          19.412000    -14.607000      7.895000
C          22.379000    -10.863000      3.354000
C          17.486000    -13.561000      6.840000
C          24.134000    -11.386000      5.671000
C          23.870000    -11.634000      7.084000
C          17.777000    -14.172000      5.601000
C          18.871000    -10.417000      8.933000
C          17.363000    -11.307000      7.441000
C          17.739000    -10.036000      6.992000
C          18.787000     -8.925000      5.105000
C          23.288000    -10.495000      7.751000
C          22.900000    -12.145000      3.513000
C          19.158000     -9.521000      3.883000
C          21.712000    -14.150000      8.349000
C          21.065000    -10.650000      2.948000
C          21.178000    -14.960000      4.909000
C          21.194000     -9.915000      8.876000
C          17.443000    -10.698000      4.685000
C          23.308000    -13.844000      5.167000
C          19.687000     -8.670000      7.384000
C          21.089000    -15.176000      6.257000
C          20.705000    -13.021000      2.926000
C          18.510000    -12.837000      8.982000
C          19.839000    -13.023000      9.438000
C          19.650000    -13.814000      3.438000
C          22.339000    -10.684000      8.809000
C          23.371000    -12.877000      7.418000
C          20.156000    -10.672000      9.373000
C          23.423000    -10.046000      5.504000
C          18.864000    -11.731000      2.936000
C          23.104000    -13.914000      6.573000
C          19.853000    -14.772000      4.452000
C          20.946000     -8.937000      7.849000
C          17.594000    -13.154000      4.601000
C          19.702000     -8.389000      6.005000
C          16.999000    -12.279000      6.559000
C          20.203000    -11.749000      2.598000
C          18.509000    -12.983000      3.504000
C          22.618000     -9.820000      4.320000
C          22.955000     -9.570000      6.742000
C          18.086000    -11.518000      8.630000
C          18.289000    -10.584000      3.537000
C          19.767000    -15.067000      6.637000
C          20.655000    -11.921000      9.695000
C          18.286000    -13.793000      7.981000
C          21.810000     -8.795000      6.732000
C          18.651000     -9.512000      7.934000
$end

--------------------------------------------------------------

             Standard Nuclear Orientation (Angstroms)
    I     Atom           X                Y                Z
 ----------------------------------------------------------------
    1      O       2.5673647786    -4.3214908443    -2.1038451511
    2      C       1.3007908187    -3.6590754882    -1.8926454822
    3      H       1.5122657310    -2.6063997066    -2.1203493697
    4      H       0.9928680815    -3.6229159734    -0.8394692968
    5      H       0.4450420952    -4.0226692586    -2.4736357509
    6      O       1.8735505429    -6.2504811332    -1.0618939662
    7      C       2.7384325954    -5.5876666103    -1.5863002434
    8      C       4.1317532043    -6.1697487880    -1.7471822474
    9      H       4.1516409958    -6.5564092173    -2.7728270145
   10      H       4.2165360152    -7.0404179665    -1.0845186401
   11      C       5.2942561959    -5.1930626171    -1.4920961480
   12      H       6.2821145778    -5.6269994115    -1.6914141749
   13      H       5.2579296211    -4.3204698458    -2.1562740123
   14      C       5.2547535617    -4.8011940672     0.0126990478
   15      H       4.2446493103    -4.4462357965     0.2523843149
   16      H       5.4514389978    -5.6509206260     0.6764622696
   17      C       6.2608019405    -3.6341935783     0.2168595692
   18      C       7.6787225190    -4.1677281065     0.6538997735
   19      C       8.7019240578    -4.2683815226    -0.3328025630
   20      H       8.4713527591    -4.1957308981    -1.3913198103
   21      C      10.0028892284    -4.6755661212     0.0446882683
   22      H      10.8109425457    -4.8030943592    -0.6705734913
   23      C      10.2521581695    -4.9425824024     1.4189623678
   24      H      11.2325731876    -5.2285639942     1.7901737918
   25      C       9.2370866129    -4.8224126938     2.3670251169
   26      H       9.4305908133    -5.2135567291     3.3609670006
   27      C       7.9874821436    -4.3512467999     2.0019629706
   28      H       7.1926559433    -4.2967812799     2.7399377795
   29      C       7.4334982067     0.8194354282     3.1829452288
   30      C       8.7882451042     1.1599558915     1.2175972551
   31      C       6.2727347292     4.5189459547    -0.5574222683
   32      C       2.5829481817     0.0718057343     2.0394587636
   33      C       4.5208948611     2.5011922308    -2.7458902224
   34      C       8.2419723931     0.2599506669     2.1741304332
   35      C       2.0268337721     1.4973337394    -0.2937488290
   36      C       6.9729073206     4.1739085736     1.7896147036
   37      C       6.9981126852    -0.5765065668    -1.9029602358
   38      C       2.5229797814    -0.6144344503     0.8211122612
   39      C       6.2053801129    -2.2129737124    -0.4426618586
   40      C       5.6656574080    -0.7748783303    -2.2406532584
   41      C       3.0494664119    -0.4161687505    -1.3991563127
   42      C       2.4641301457     2.4369199771    -1.2750105594
   43      C       8.1788346866    -0.7781845600     0.1557377855
   44      C       4.0854080525     4.1969549584    -1.1167708249
   45      C       5.7868708028    -2.3694720378     0.9821789155
   46      C       4.4609259227    -1.9375510431     1.4533948208
   47      C       4.8982149171     3.7332314993    -2.1340709549
   48      C       3.7888146396     3.2316437010     2.8543741641
   49      C       4.6471295790     4.6632804893     1.2638894671
   50      C       5.6409777510     4.3426458065     2.2012278324
   51      C       7.7694503736     3.1426823803     2.3382791758
   52      C       4.5314234454    -1.2101123824     2.6198681785
   53      C       7.3991896262    -1.3835755698    -0.8475205587
   54      C       8.5583035924     2.5682037526     1.2782179014
   55      C       2.2874537258     0.0567440330    -0.3422517922
   56      C       8.7504768528     0.5345792663    -0.0352134393
   57      C       4.8993238182     0.2522559825    -2.7464149934
   58      C       4.0329840401     0.9641330309     3.5931939422
   59      C       7.2400731756     4.2348405792     0.3949109012
   60      C       5.1445477456    -1.7212428157    -1.3804509679
   61      C       5.9163980314     2.4104589309     3.6706544372
   62      C       3.5671386992     0.4681765148    -2.3880434927
   63      C       7.5769182441     0.7092138657    -2.1268711428
   64      C       2.6374957981     3.4384448170     0.7069337753
   65      C       2.0350290608     2.2003179605     0.9308572392
   66      C       6.8021411184     1.7877008339    -2.6995702477
   67      C       3.5927072596    -0.2288961031     2.9605021988
   68      C       3.4683718191    -1.5943704294     0.4824260171
   69      C       3.2155819848     2.0344201715     3.0764848204
   70      C       6.6463412917    -1.6450437373     1.9339394505
   71      C       8.1638335211     2.6572859765    -1.1402468431
   72      C       3.8573775724    -1.4784473240    -0.8603160868
   73      C       5.4842798575     1.5099461893    -3.0032724942
   74      C       5.3278599124     1.1527457990     3.9541796747
   75      C       6.2222869139     3.9753682498    -1.8195154886
   76      C       7.1396106085     2.2085336937     3.1924367149
   77      C       4.9204944769     4.7625695811    -0.1207990570
   78      C       8.3801853995     1.2715829648    -1.1639750562
   79      C       7.2021376088     2.9717900672    -2.1144450515
   80      C       7.8785664206    -0.9659722444     1.5722100775
   81      C       5.8635817230    -1.0016909449     2.8518591867
   82      C       3.4733664638     3.9540338914     1.6591696371
   83      C       8.2011674349     3.2434525065     0.1023472089
   84      C       3.2980588014     1.8459510825    -2.3057072959
   85      C       2.3608180129     1.4971985014     2.0871939483
   86      C       2.9125311649     3.5836131424    -0.6802658154
   87      C       6.2757960939     0.1441478889     3.5614377089
   88      C       5.1155125555     3.5113367815     3.2240624394
   89      O     -13.5120830151    -0.3734617260     2.5544671757
   90      C     -14.5336363908     0.5179005903     2.8509733671
   91      H     -14.1414537036     1.4258079439     3.3245659949
   92      H     -15.2910517805     0.0799916843     3.5127782610
   93      H     -14.9907440353     0.7756957107     1.8875812988
   94      O     -12.9124755418     0.7022610235     0.6373379563
   95      C     -12.6964043902    -0.1498709338     1.4739462187
   96      C     -11.6321550712    -1.1454701983     1.4359003048
   97      H     -11.7509130953    -1.6202744678     0.4546289675
   98      H     -12.0020536096    -1.8368631713     2.2027124253
   99      C     -10.2267330856    -0.5490449913     1.8286597921
  100      H     -10.0128941341     0.4033516116     1.3286481786
  101      H     -10.2873698727    -0.3883164414     2.9129842423
  102      C      -9.1623028205    -1.6594845639     1.6267460324
  103      H      -9.4821111045    -2.4931696910     2.2650945032
  104      H      -9.2147111832    -2.0216986528     0.5930612075
  105      C      -7.7760784286    -1.0988108415     1.9640232366
  106      C      -7.6599718180    -0.9882021337     3.4735791212
  107      C      -7.4964921850    -2.2351480649     4.0897172990
  108      H      -7.3333576773    -3.1170182203     3.4772222693
  109      C      -7.3445310603    -2.3185064792     5.5155760548
  110      H      -7.1119732176    -3.2590236297     6.0067118195
  111      C      -7.4252227725    -1.1461431946     6.2942635252
  112      H      -7.1310911025    -1.2031594411     7.3382327337
  113      C      -7.5928443705     0.0686744703     5.6857160405
  114      H      -7.6060343907     0.9559169570     6.3121318713
  115      C      -7.8247007484     0.2009110979     4.2833661932
  116      H      -7.9451678517     1.1330839916     3.7390323129
  117      C      -4.0013758833     2.8147824662     1.0091242281
  118      C      -2.6329658386     1.0120303036     1.8545812582
  119      C      -0.8173586239     0.0218409643    -2.2023453513
  120      C      -7.1096183899     1.4671333055    -2.8324041475
  121      C      -3.0357509845    -2.5952043932    -2.9374078871
  122      C      -3.8391487079     1.7601934714     1.8968986339
  123      C      -5.7126621862    -0.5030054451    -4.2994636789
  124      C      -1.2134709198     2.1975391352    -1.1463512612
  125      C      -4.4546400105    -2.5517572016     0.9335026354
  126      C      -7.3724792285     0.0709692041    -2.6058230771
  127      C      -6.5218872688    -1.4483174219     1.1603779885
  128      C      -5.2324779934    -2.9280665146    -0.1541376422
  129      C      -6.4255815427    -1.9400749554    -2.4865118831
  130      C      -4.5272466348    -1.2205253017    -4.3261699692
  131      C      -4.3989081184    -0.4780423070     2.2216200571
  132      C      -2.2025951756    -0.5904460826    -3.9861511894
  133      C      -7.0992343853    -0.0294519472     1.1129958010
  134      C      -7.5779832320     0.4610849788    -0.1746151907
  135      C      -1.9547574380    -1.7486804146    -3.2179111958
  136      C      -3.9428041093     2.9862139831    -3.3838342947
  137      C      -2.0542499292     1.6733895479    -3.4294754075
  138      C      -1.9824295304     2.5213486317    -2.3185185125
  139      C      -1.8332424956     2.4641880541     0.1038501417
  140      C      -7.2246908383     1.8392605884    -0.4128387698
  141      C      -5.1127545849    -1.5786018942     1.7531781533
  142      C      -1.6607228633     1.3178349140     0.9052566892
  143      C      -6.6723807984    -0.8731433309    -3.3348626572
  144      C      -3.0348167765    -0.3339270374     1.9864890297
  145      C      -4.6911673439    -3.1611837995    -1.4336735394
  146      C      -5.8584092474     3.1257272235    -1.9829149499
  147      C      -0.7249022100     0.8762714159    -1.0693367834
  148      C      -6.4998999986    -2.3140919678    -0.0699134387
  149      C      -3.6606451406     3.6713186908    -1.0241131552
  150      C      -5.2862084926    -2.6942312882    -2.5736570408
  151      C      -3.0563465704    -2.3665425154     0.7138006207
  152      C      -4.0043390238     0.9450130069    -4.7324758441
  153      C      -5.4012961785     0.8465671210    -4.5143196725
  154      C      -2.4995445747    -2.6892872474    -0.5470821556
  155      C      -6.9317308155     2.2910750297    -1.7416442995
  156      C      -7.4843371459    -0.4031862462    -1.2469358797
  157      C      -5.3039976793     2.8251700413    -3.2075762065
  158      C      -6.2083021335     1.1398731141     1.5227867522
  159      C      -1.2763541404    -1.0246520238     0.4232186913
  160      C      -7.0015294733    -1.6789317992    -1.2396533373
  161      C      -3.2969149855    -3.0619404116    -1.6482175003
  162      C      -5.0129079443     3.5148084053    -0.8845250463
  163      C      -1.1726826047    -1.3194283775    -2.0892329229
  164      C      -2.9772169506     3.2547326283     0.1335607892
  165      C      -1.4602460050     0.4478166518    -3.4111884051
  166      C      -2.2800889058    -1.3577159131     1.3115170457
  167      C      -1.4202136783    -1.8016071377    -0.7565262745
  168      C      -4.9140777036     0.8640469782     2.1142764543
  169      C      -6.3216924021     2.2007003432     0.6062540267
  170      C      -3.2775235247     1.9742030015    -4.0572364901
  171      C      -0.8965945409     0.3281114080     0.2408763097
  172      C      -4.3039763050    -2.2638439156    -3.4419609272
  173      C      -6.0714592569     1.8338448041    -3.7914965786
  174      C      -3.4729087001    -0.3398244560    -4.5511267198
  175      C      -5.2108905173     3.0037532948     0.4246634714
  176      C      -3.1455122729     3.3218809803    -2.3269145273
 ----------------------------------------------------------------

    9   -5804.2784151601      8.31E-06 Convergence criterion met
 Total energy in the final basis set = -5804.2784151601

                    Orbital Energies (a.u.)
 --------------------------------------------------------------

 Alpha MOs
 -- Occupied --
-19.192 -19.187 -19.133 -19.132 -10.314 -10.310 -10.243 -10.243
-10.242 -10.239 -10.238 -10.237 -10.237 -10.234 -10.233 -10.227
-10.227 -10.227 -10.226 -10.226 -10.225 -10.225 -10.225 -10.224
-10.224 -10.224 -10.224 -10.223 -10.223 -10.223 -10.222 -10.222
-10.221 -10.221 -10.221 -10.221 -10.220 -10.220 -10.219 -10.219
-10.219 -10.219 -10.219 -10.219 -10.219 -10.219 -10.218 -10.218
-10.218 -10.218 -10.218 -10.218 -10.218 -10.218 -10.217 -10.217
-10.217 -10.217 -10.217 -10.217 -10.217 -10.217 -10.217 -10.217
-10.216 -10.216 -10.216 -10.216 -10.216 -10.216 -10.216 -10.216
-10.216 -10.216 -10.215 -10.215 -10.215 -10.215 -10.215 -10.215
-10.215 -10.215 -10.215 -10.214 -10.214 -10.214 -10.214 -10.214
-10.214 -10.214 -10.214 -10.214 -10.214 -10.213 -10.213 -10.213
-10.213 -10.213 -10.213 -10.213 -10.213 -10.213 -10.213 -10.213
-10.213 -10.212 -10.212 -10.212 -10.212 -10.212 -10.212 -10.212
-10.211 -10.211 -10.210 -10.210 -10.210 -10.210 -10.210 -10.210
-10.210 -10.209 -10.209 -10.208 -10.208 -10.207 -10.207 -10.207
-10.207 -10.206 -10.206 -10.206 -10.206 -10.206 -10.204 -10.204
-10.203 -10.203 -10.203 -10.202 -10.201 -10.200 -10.199 -10.198
-10.198 -10.197 -10.196 -10.196  -1.099  -1.087  -1.014  -1.011
 -0.985  -0.982  -0.967  -0.965  -0.963  -0.962  -0.962  -0.959
 -0.933  -0.931  -0.928  -0.927  -0.926  -0.924  -0.923  -0.921
 -0.921  -0.920  -0.897  -0.893  -0.892  -0.887  -0.886  -0.884
 -0.873  -0.873  -0.852  -0.850  -0.842  -0.842  -0.840  -0.840
 -0.838  -0.834  -0.824  -0.821  -0.811  -0.805  -0.799  -0.798
 -0.796  -0.796  -0.794  -0.793  -0.793  -0.790  -0.786  -0.781
 -0.773  -0.772  -0.771  -0.769  -0.768  -0.767  -0.766  -0.759
 -0.751  -0.749  -0.742  -0.737  -0.736  -0.729  -0.716  -0.716
 -0.715  -0.715  -0.714  -0.713  -0.712  -0.711  -0.710  -0.710
 -0.707  -0.706  -0.705  -0.702  -0.700  -0.700  -0.675  -0.673
 -0.661  -0.660  -0.658  -0.655  -0.647  -0.644  -0.633  -0.633
 -0.630  -0.627  -0.625  -0.624  -0.623  -0.619  -0.618  -0.616
 -0.615  -0.615  -0.614  -0.612  -0.612  -0.612  -0.611  -0.609
 -0.608  -0.605  -0.603  -0.602  -0.567  -0.564  -0.563  -0.563
 -0.562  -0.561  -0.559  -0.559  -0.558  -0.556  -0.554  -0.551
 -0.535  -0.535  -0.532  -0.531  -0.530  -0.529  -0.528  -0.525
 -0.524  -0.520  -0.519  -0.518  -0.518  -0.516  -0.515  -0.512
 -0.509  -0.508  -0.497  -0.496  -0.493  -0.490  -0.488  -0.487
 -0.485  -0.484  -0.482  -0.482  -0.481  -0.479  -0.475  -0.474
 -0.473  -0.472  -0.469  -0.469  -0.468  -0.467  -0.467  -0.466
 -0.465  -0.464  -0.464  -0.464  -0.461  -0.459  -0.458  -0.455
 -0.455  -0.454  -0.452  -0.452  -0.451  -0.446  -0.444  -0.444
 -0.443  -0.441  -0.440  -0.439  -0.439  -0.437  -0.435  -0.434
 -0.432  -0.431  -0.431  -0.430  -0.428  -0.427  -0.426  -0.425
 -0.423  -0.423  -0.422  -0.422  -0.420  -0.420  -0.419  -0.418
 -0.417  -0.416  -0.416  -0.416  -0.415  -0.413  -0.413  -0.412
 -0.412  -0.409  -0.408  -0.407  -0.404  -0.400  -0.398  -0.396
 -0.392  -0.392  -0.391  -0.390  -0.389  -0.389  -0.384  -0.384
 -0.380  -0.378  -0.375  -0.374  -0.372  -0.370  -0.369  -0.368
 -0.364  -0.363  -0.362  -0.362  -0.359  -0.359  -0.358  -0.358
 -0.357  -0.357  -0.356  -0.355  -0.353  -0.353  -0.352  -0.352
 -0.350  -0.350  -0.349  -0.348  -0.347  -0.345  -0.345  -0.344
 -0.344  -0.342  -0.341  -0.340  -0.338  -0.337  -0.335  -0.334
 -0.334  -0.332  -0.331  -0.330  -0.329  -0.326  -0.325  -0.322
 -0.308  -0.302  -0.299  -0.295  -0.289  -0.288  -0.273  -0.271
 -0.270  -0.269  -0.269  -0.268  -0.267  -0.266  -0.264  -0.264
 -0.263  -0.262  -0.261  -0.261  -0.258  -0.255  -0.254  -0.253
 -0.250  -0.248  -0.245  -0.241  -0.227  -0.222  -0.213  -0.212
 -0.210  -0.210  -0.209  -0.203  -0.202  -0.197

          Ground-State Mulliken Net Atomic Charges

     Atom                 Charge (a.u.)
  ----------------------------------------
      1 O                    -0.476458
      2 C                    -0.094688
      3 H                     0.122666
      4 H                     0.126260
      5 H                     0.127945
      6 O                    -0.461855
      7 C                     0.599550
      8 C                    -0.258045
      9 H                     0.128944
     10 H                     0.132939
     11 C                    -0.184504
     12 H                     0.101983
     13 H                     0.123992
     14 C                    -0.190979
     15 H                     0.114934
     16 H                     0.119907
     17 C                     0.016103
     18 C                     0.060947
     19 C                    -0.103334
     20 H                     0.093506
     21 C                    -0.093272
     22 H                     0.094548
     23 C                    -0.083995
     24 H                     0.088990
     25 C                    -0.087974
     26 H                     0.092323
     27 C                    -0.095290
     28 H                     0.091960
     29 C                    -0.016120
     30 C                     0.004171
     31 C                     0.014492
     32 C                     0.004557
     33 C                    -0.026576
     34 C                    -0.011570
     35 C                    -0.019848
     36 C                    -0.012111
     37 C                     0.003216
     38 C                     0.003787
     39 C                    -0.083644
     40 C                     0.036414
     41 C                    -0.047826
     42 C                    -0.023304
     43 C                    -0.008795
     44 C                     0.023485
     45 C                    -0.081470
     46 C                     0.001737
     47 C                     0.006602
     48 C                     0.018850
     49 C                    -0.002603
     50 C                     0.010407
     51 C                    -0.041318
     52 C                     0.015398
     53 C                     0.025712
     54 C                    -0.004143
     55 C                     0.035613
     56 C                    -0.000350
     57 C                     0.014748
     58 C                     0.012682
     59 C                     0.012199
     60 C                     0.009008
     61 C                     0.008139
     62 C                    -0.007450
     63 C                    -0.027030
     64 C                     0.006877
     65 C                    -0.002808
     66 C                    -0.000894
     67 C                    -0.009737
     68 C                    -0.030170
     69 C                    -0.003497
     70 C                     0.031915
     71 C                     0.005965
     72 C                     0.037650
     73 C                     0.002402
     74 C                    -0.035287
     75 C                    -0.011176
     76 C                     0.058480
     77 C                    -0.028744
     78 C                     0.010040
     79 C                    -0.006378
     80 C                     0.006195
     81 C                     0.035657
     82 C                    -0.004431
     83 C                     0.009937
     84 C                    -0.004166
     85 C                    -0.005630
     86 C                     0.022154
     87 C                    -0.019270
     88 C                    -0.024369
     89 O                    -0.456130
     90 C                    -0.084116
     91 H                     0.114868
     92 H                     0.117785
     93 H                     0.128226
     94 O                    -0.470984
     95 C                     0.582424
     96 C                    -0.261463
     97 H                     0.134628
     98 H                     0.132182
     99 C                    -0.193082
    100 H                     0.127332
    101 H                     0.125338
    102 C                    -0.179195
    103 H                     0.118857
    104 H                     0.107715
    105 C                     0.015013
    106 C                     0.082626
    107 C                    -0.102960
    108 H                     0.093604
    109 C                    -0.099022
    110 H                     0.091569
    111 C                    -0.074546
    112 H                     0.092200
    113 C                    -0.093587
    114 H                     0.090866
    115 C                    -0.109213
    116 H                     0.097348
    117 C                     0.018353
    118 C                    -0.026149
    119 C                     0.007692
    120 C                    -0.033524
    121 C                     0.005697
    122 C                    -0.018332
    123 C                    -0.000593
    124 C                    -0.032730
    125 C                    -0.001118
    126 C                    -0.033443
    127 C                    -0.093643
    128 C                     0.028949
    129 C                    -0.011829
    130 C                     0.007599
    131 C                     0.037390
    132 C                     0.025858
    133 C                    -0.085645
    134 C                     0.010666
    135 C                    -0.040264
    136 C                     0.004048
    137 C                     0.036747
    138 C                     0.011254
    139 C                     0.010900
    140 C                    -0.008895
    141 C                     0.033233
    142 C                     0.038681
    143 C                     0.019731
    144 C                    -0.012185
    145 C                     0.003212
    146 C                     0.016105
    147 C                     0.004701
    148 C                    -0.016948
    149 C                    -0.019118
    150 C                     0.002814
    151 C                    -0.007263
    152 C                    -0.033298
    153 C                     0.002711
    154 C                    -0.004739
    155 C                     0.014733
    156 C                     0.041755
    157 C                     0.030450
    158 C                    -0.005630
    159 C                    -0.008623
    160 C                     0.016189
    161 C                    -0.008175
    162 C                    -0.014553
    163 C                     0.003094
    164 C                    -0.007080
    165 C                    -0.037930
    166 C                     0.004134
    167 C                    -0.009310
    168 C                    -0.008751
    169 C                     0.016413
    170 C                    -0.014951
    171 C                    -0.002748
    172 C                     0.009633
    173 C                    -0.011647
    174 C                     0.018049
    175 C                     0.012072
    176 C                    -0.006905
  ----------------------------------------
  Sum of atomic charges =     0.000000

                    Cartesian Multipole Moments
 -----------------------------------------------------------------
    Charge (ESU x 10^10)
                 0.0000
    Dipole Moment (Debye)
         X       0.2615      Y      -2.4363      Z       2.7895
       Tot       3.7128
    Quadrupole Moments (Debye-Ang)
        XX    -773.8836     XY     -10.0056     YY    -811.4068
        XZ     -29.2664     YZ      -1.4801     ZZ    -790.5713

 Total job time:  844.97s(wall), 7146.95s(cpu)
        *  Thank you very much for using Q-Chem.  Have a nice day.  *
