 Q-Chem 4.4, Q-Chem, Inc., Pleasanton, CA (2016)
 Q-Chem 4.4.2 for Intel X86 Linux

User input:
--------------------------------------------------------------
$comment
SP
$end

$rem
MEM_STATIC 5000
MEM_TOTAL 20000
JOBTYPE SP
EXCHANGE B3LYP
BASIS 6-31g(d,p)
$end

$molecule
0 1
O          17.710000    -11.322000    -12.088000
C          18.796000    -11.588000    -13.060000
H          18.456000    -11.379000    -14.082000
H          19.081000    -12.637000    -12.912000
H          19.644000    -10.941000    -12.804000
O          18.948000    -11.860000    -10.229000
C          17.884000    -11.660000    -10.773000
C          16.603000    -11.463000    -10.012000
H          15.821000    -11.201000    -10.735000
H          16.820000    -10.676000     -9.279000
C          16.263000    -12.792000     -9.341000
H          17.172000    -13.334000     -9.051000
H          15.637000    -12.591000     -8.463000
C          15.482000    -13.655000    -10.344000
H          14.537000    -13.120000    -10.503000
H          16.022000    -13.685000    -11.298000
C          15.133000    -15.039000     -9.864000
C          13.918000    -15.096000     -8.900000
C          12.601000    -15.235000     -9.401000
H          12.361000    -15.456000    -10.437000
C          11.552000    -15.356000     -8.461000
H          10.500000    -15.417000     -8.723000
C          11.765000    -15.413000     -7.099000
H          10.870000    -15.518000     -6.492000
C          13.072000    -15.278000     -6.589000
H          13.241000    -15.297000     -5.516000
C          14.129000    -15.041000     -7.474000
H          15.163000    -15.034000     -7.141000
C          17.530000    -19.598000     -7.884000
C          15.614000    -20.376000     -9.061000
C          17.964000    -22.030000    -12.650000
C          20.351000    -16.535000    -10.879000
C          17.430000    -19.427000    -14.687000
C          16.199000    -19.463000     -8.197000
C          20.108000    -17.394000    -13.520000
C          18.476000    -22.165000    -10.324000
C          14.643000    -17.907000    -12.163000
C          19.501000    -15.859000    -11.798000
C          15.437000    -16.167000    -10.817000
C          15.437000    -17.069000    -13.020000
C          18.029000    -16.092000    -13.506000
C          19.583000    -18.343000    -14.400000
C          14.728000    -18.333000     -9.699000
C          19.250000    -20.771000    -14.020000
C          16.336000    -15.900000     -9.666000
C          17.813000    -15.692000    -10.034000
C          17.894000    -20.695000    -14.336000
C          21.164000    -19.929000    -10.470000
C          20.212000    -21.497000    -11.852000
C          19.845000    -21.825000    -10.524000
C          17.765000    -21.589000     -9.230000
C          18.639000    -16.408000     -9.124000
C          14.714000    -17.435000    -10.817000
C          16.394000    -21.465000     -9.512000
C          19.394000    -16.225000    -13.133000
C          14.727000    -19.740000     -9.987000
C          16.183000    -17.626000    -14.059000
C          20.536000    -18.012000     -9.089000
C          17.573000    -22.248000    -11.352000
C          15.998000    -16.062000    -12.201000
C          19.633000    -20.214000     -8.657000
C          17.426000    -17.137000    -14.305000
C          14.594000    -19.253000    -12.428000
C          20.954000    -19.426000    -12.861000
C          21.009000    -18.028000    -12.626000
C          15.395000    -19.770000    -13.447000
C          19.923000    -16.808000     -9.537000
C          18.225000    -15.419000    -11.354000
C          21.168000    -18.522000    -10.223000
C          16.539000    -17.030000     -8.648000
C          15.458000    -21.236000    -11.737000
C          17.296000    -15.563000    -12.438000
C          16.161000    -19.020000    -14.287000
C          19.640000    -18.859000     -8.344000
C          17.090000    -21.524000    -13.531000
C          18.317000    -20.661000     -8.361000
C          19.285000    -21.640000    -12.942000
C          14.634000    -20.200000    -11.371000
C          15.852000    -21.043000    -13.063000
C          15.658000    -18.170000     -8.608000
C          17.870000    -17.197000     -8.242000
C          21.046000    -20.362000    -11.821000
C          16.316000    -21.874000    -10.860000
C          18.167000    -18.256000    -14.666000
C          21.150000    -17.624000    -11.282000
C          20.113000    -19.609000    -13.965000
C          18.375000    -18.480000     -7.951000
C          20.417000    -20.848000     -9.684000
O          12.859000     -9.359000     -5.627000
C          11.393000     -9.230000     -5.639000
H          11.101000     -8.174000     -5.573000
H          10.971000     -9.684000     -4.734000
H          10.997000     -9.686000     -6.555000
O          13.421000     -7.094000     -5.946000
C          13.694000     -8.238000     -5.847000
C          15.123000     -8.755000     -6.068000
H          15.111000     -9.551000     -6.822000
H          15.457000     -9.236000     -5.140000
C          16.206000     -7.780000     -6.463000
H          15.956000     -7.437000     -7.474000
H          16.348000     -6.874000     -5.861000
C          17.559000     -8.444000     -6.643000
H          17.378000     -9.413000     -7.123000
H          18.139000     -7.934000     -7.422000
C          18.327000     -8.617000     -5.238000
C          18.684000     -7.339000     -4.588000
C          17.965000     -6.769000     -3.522000
H          17.354000     -7.487000     -2.982000
C          18.172000     -5.440000     -3.093000
H          17.597000     -5.044000     -2.261000
C          19.323000     -4.764000     -3.558000
H          19.595000     -3.817000     -3.102000
C          20.099000     -5.300000     -4.608000
H          20.775000     -4.655000     -5.163000
C          19.786000     -6.574000     -5.161000
H          20.298000     -6.907000     -6.059000
C          22.846000    -10.677000     -2.881000
C          21.112000    -10.808000     -1.096000
C          20.641000    -15.334000     -1.271000
C          21.071000    -12.869000     -7.037000
C          17.747000    -15.221000     -3.225000
C          21.697000    -10.099000     -2.213000
C          19.448000    -15.053000     -6.422000
C          22.634000    -13.913000     -1.477000
C          17.416000    -11.285000     -2.684000
C          19.728000    -12.714000     -7.133000
C          18.142000     -9.925000     -4.505000
C          16.906000    -11.895000     -3.856000
C          17.735000    -13.269000     -6.089000
C          18.881000    -15.723000     -5.346000
C          19.403000     -9.916000     -2.220000
C          19.928000    -16.318000     -3.202000
C          19.448000     -9.623000     -5.164000
C          19.913000    -10.459000     -6.299000
C          18.820000    -15.834000     -2.539000
C          23.167000    -14.521000     -4.917000
C          22.295000    -15.711000     -3.103000
C          23.066000    -14.632000     -2.639000
C          22.816000    -12.562000     -1.322000
C          21.269000    -10.696000     -6.180000
C          18.295000    -10.219000     -3.017000
C          21.654000    -12.096000     -0.690000
C          18.871000    -13.776000     -6.765000
C          19.686000    -10.684000     -1.067000
C          16.728000    -13.245000     -3.885000
C          22.987000    -12.393000     -5.939000
C          21.432000    -14.308000     -0.756000
C          17.437000    -11.137000     -4.988000
C          23.726000    -12.556000     -3.634000
C          17.170000    -13.968000     -5.058000
C          17.726000    -12.115000     -1.560000
C          21.215000    -15.940000     -5.298000
C          20.876000    -15.164000     -6.425000
C          17.577000    -13.489000     -1.584000
C          21.868000    -11.833000     -6.624000
C          19.133000    -11.493000     -6.726000
C          22.809000    -13.760000     -5.967000
C          20.691000     -9.497000     -4.279000
C          19.423000    -12.984000     -0.325000
C          17.930000    -11.895000     -6.064000
C          17.048000    -14.083000     -2.758000
C          23.474000    -11.756000     -4.768000
C          19.270000    -15.258000     -1.298000
C          23.312000    -11.890000     -2.473000
C          21.073000    -16.020000     -2.414000
C          18.830000    -11.807000     -0.779000
C          18.619000    -14.084000     -0.828000
C          20.619000     -9.589000     -2.875000
C          21.742000    -10.097000     -4.993000
C          22.354000    -15.591000     -4.503000
C          20.853000    -13.144000     -0.247000
C          17.814000    -15.141000     -4.607000
C          21.684000    -14.065000     -6.753000
C          19.994000    -16.237000     -4.612000
C          22.861000    -10.607000     -4.291000
C          23.641000    -13.951000     -3.704000
$end

--------------------------------------------------------------

             Standard Nuclear Orientation (Angstroms)
    I     Atom           X                Y                Z
 ----------------------------------------------------------------
    1      O       0.7626908220     4.0852617109     3.9452148534
    2      C       1.4505297017     3.5079227649     5.1235583589
    3      H       2.0435131814     4.2756818658     5.6360830470
    4      H       2.0628579403     2.6827761404     4.7392184359
    5      H       0.6844073474     3.1083523575     5.7993164722
    6      O      -0.2949482314     2.1384003559     3.3376792599
    7      C       0.0888398465     3.2597448094     3.0860340178
    8      C      -0.3771652988     4.0306958868     1.8829693310
    9      H       0.0411232751     5.0422827113     1.9509676069
   10      H      -1.4729879836     3.9933819165     1.9220501588
   11      C       0.1757779487     3.3241725447     0.6471859632
   12      H       0.2335347701     2.2394802880     0.8029160433
   13      H      -0.4703473963     3.5572893449    -0.2079979913
   14      C       1.5936390923     3.8528794898     0.3809572202
   15      H       1.4575263168     4.9095947812     0.1175998486
   16      H       2.1810157114     3.8044645235     1.3057602795
   17      C       2.3169679132     3.1992033196    -0.7667186405
   18      C       1.8863913472     3.7069809728    -2.1686942736
   19      C       2.5229413641     4.8238351113    -2.7622024112
   20      H       3.4200452973     5.2953663732    -2.3715621649
   21      C       2.1298839884     5.1821593793    -4.0720694344
   22      H       2.5086770148     6.0463492360    -4.6094340543
   23      C       1.2160375871     4.4566610683    -4.8084110370
   24      H       1.0141068330     4.8380300836    -5.8055472587
   25      C       0.5777635165     3.3417093375    -4.2287017574
   26      H      -0.1610055393     2.7828848142    -4.7963164456
   27      C       0.8488344650     3.0168032628    -2.8954352486
   28      H       0.4634945224     2.1098871852    -2.4381493896
   29      C       3.8990044512    -1.7855108498    -2.5274784315
   30      C       5.5433170812    -0.2877349414    -3.3728022175
   31      C       8.8150044765    -1.5211697941    -0.3871972450
   32      C       3.3016087785    -1.1248996447     2.5239318909
   33      C       8.4012624717     1.0514421525     1.7153296456
   34      C       4.2129682380    -0.5877208786    -3.1228614388
   35      C       5.7462160486    -0.3565985025     3.6218479396
   36      C       7.2592966401    -2.8917842529    -1.5669574465
   37      C       6.0131545863     2.9621593782    -0.9482103693
   38      C       3.5648288972     0.2328272533     2.8575931558
   39      C       3.7294842674     2.7505124589    -0.4901629306
   40      C       5.8718776305     3.1409125071     0.4713730698
   41      C       5.1102231977     1.8910977517     2.8728381647
   42      C       7.1043546078    -0.1145272986     3.4039323910
   43      C       4.6372883582     1.7062390855    -2.6184359052
   44      C       8.6447087312    -1.2904522872     1.8563592600
   45      C       2.6227786848     1.7610199476    -0.5101209778
   46      C       2.5015489074     0.9010662204     0.7571595468
   47      C       9.0069223076    -0.1036808945     1.2201651179
   48      C       5.3464261521    -3.6849139182     1.2540756675
   49      C       7.5542865371    -3.2494452854     0.7951948658
   50      C       6.9453270981    -3.6667882805    -0.4134615064
   51      C       6.2095098677    -2.4820240475    -2.4411298016
   52      C       2.2768158505    -0.4560776434     0.3956521666
   53      C       4.7505226174     2.6284490151    -1.5260848406
   54      C       6.5163661136    -1.2720294717    -3.0863378076
   55      C       4.7490728728     0.6451559594     3.4535639978
   56      C       5.8456128799     1.0795940431    -3.0765427061
   57      C       6.8654773712     2.6931568037     1.3423267915
   58      C       3.1242481961    -2.7446948976     0.8612050455
   59      C       8.1507685372    -1.8507388330    -1.5427853487
   60      C       4.5079373464     2.9261703083     0.7764692669
   61      C       4.5518867910    -3.3922101254    -0.9809157628
   62      C       6.4942489246     2.1096626715     2.5112622209
   63      C       7.1691517571     2.3947872763    -1.4237116197
   64      C       6.6360749517    -2.3228624393     2.8338261993
   65      C       5.4620732662    -1.7208671402     3.3553390967
   66      C       8.1121739411     1.9187489914    -0.5119289089
   67      C       2.6526851616    -1.4727887164     1.2924497217
   68      C       3.1379556885     1.2523829117     1.9647339716
   69      C       4.1654388631    -3.0444307440     1.7395901646
   70      C       2.7160844536     0.6134379597    -1.5244101942
   71      C       7.9993539340     0.4281699918    -2.1979511188
   72      C       4.1151851527     2.3029244492     1.9795005689
   73      C       8.0269204203     2.0656295589     0.8393719222
   74      C       3.3631608176    -2.8072750442    -0.5580392902
   75      C       9.1784555427    -0.2497350864    -0.1694127037
   76      C       4.8699078059    -2.7511908367    -2.2086119408
   77      C       8.5345631740    -2.1975296307     0.8154228311
   78      C       7.1286478539     1.4511346922    -2.4836820129
   79      C       8.7001161808     0.7533146926    -1.0343471496
   80      C       3.6414860174     0.6621940614    -2.6283195148
   81      C       2.3621332234    -0.6377145407    -1.0013213419
   82      C       6.5913962515    -3.2932676909     1.8226499231
   83      C       7.7360422299    -0.8990978144    -2.4831950795
   84      C       7.4337357639     1.1036496587     2.7032655980
   85      C       4.2392867623    -2.1423733566     2.7927036236
   86      C       7.6417777215    -1.3513610019     2.8996509346
   87      C       3.0131236611    -1.8080917478    -1.4397545103
   88      C       5.5871091585    -3.9138620979    -0.1279592168
   89      O      -4.3038315439     6.2397132259    -2.2852571019
   90      C      -4.1693488161     7.4179582121    -3.1568040877
   91      H      -4.9306986584     8.1680304327    -2.9068159251
   92      H      -4.3926987551     7.1418945214    -4.1946521707
   93      H      -3.1610483251     7.8363396261    -3.0468263064
   94      O      -5.8024154187     7.1331882619    -0.7029237836
   95      C      -5.0866881614     6.2863361903    -1.1074507445
   96      C      -4.7783849688     5.0232928801    -0.2902348993
   97      H      -3.6925065735     4.9095082235    -0.1892538977
   98      H      -5.1109355008     4.1538205142    -0.8712073157
   99      C      -5.3746139910     4.8747605066     1.0888909424
  100      H      -4.8990197297     5.6408464361     1.7127438475
  101      H      -6.4561182548     5.0080834613     1.2152931458
  102      C      -4.9768961452     3.5755694968     1.7655210002
  103      H      -3.9268816196     3.3905939322     1.5098345972
  104      H      -4.9028825289     3.7124636985     2.8513952849
  105      C      -5.9193623517     2.3535601904     1.3048381326
  106      C      -7.3333760350     2.5016646628     1.7071606011
  107      C      -8.3586709651     2.9252962069     0.8425661175
  108      H      -8.1163240903     2.7961678170    -0.2086421640
  109      C      -9.6371994688     3.3001566999     1.3094445558
  110      H     -10.4001709464     3.6155015670     0.6036845830
  111      C      -9.9808872643     2.9704663427     2.6403032889
  112      H     -11.0124057624     3.0846570531     2.9591434835
  113      C      -8.9994383430     2.5154568706     3.5467779964
  114      H      -9.1887820571     2.5630339757     4.6158483294
  115      C      -7.6606215791     2.2981813825     3.1140944690
  116      H      -6.8888586494     2.0894251702     3.8491045534
  117      C      -6.7093473130    -3.0643794035     1.7970416656
  118      C      -7.5654294776    -2.5265303145    -0.4806729094
  119      C      -4.1178183518    -4.4845953380    -2.7205614979
  120      C      -2.0492043074    -1.2472718381     2.2542202552
  121      C      -2.4421716833    -1.4751663904    -3.3050840821
  122      C      -7.4063735124    -2.1559418052     0.9085572215
  123      C      -0.6508758288    -1.4141620239    -0.1538983324
  124      C      -5.2993213265    -5.1589321780    -0.6753117462
  125      C      -5.5931092818     0.6335158021    -2.0724488313
  126      C      -1.8949071297    -0.1151215946     1.5253044801
  127      C      -5.4467348522     1.5168424028     0.1391175011
  128      C      -4.2833938026     1.1573565049    -1.9458775807
  129      C      -1.9048130066     0.6859040079    -0.6491540404
  130      C      -0.8129164565    -1.7616997331    -1.4884864245
  131      C      -7.1903381469    -0.3267721996    -0.4710953705
  132      C      -1.9941006285    -3.7064293458    -2.4211174798
  133      C      -5.4128585022     0.9496023312     1.5204980041
  134      C      -4.1113070045     0.6046365765     2.1452446143
  135      C      -2.6261923865    -2.8764216954    -3.3228027409
  136      C      -2.6099843344    -4.5300141688     1.5290660982
  137      C      -2.8521766542    -5.2110102077    -0.6945946842
  138      C      -4.0587733590    -5.4068303146    -0.0019498418
  139      C      -6.4042598063    -4.6460386979    -0.0441214151
  140      C      -4.2240979412    -0.5895063935     2.8310775180
  141      C      -6.2663668621     0.6623833447    -0.8211387596
  142      C      -6.9943081234    -3.7726044693    -0.9692049960
  143      C      -1.2515389463    -0.1722206061     0.2681115421
  144      C      -7.4611143765    -1.3971850460    -1.3543951903
  145      C      -3.2651641270     0.5924923721    -2.6523914441
  146      C      -3.4225477205    -2.8729654872     3.0120355551
  147      C      -5.3238104031    -4.7434205406    -2.0708117871
  148      C      -4.1413755756     1.6003501466    -0.5596826245
  149      C      -4.9778103262    -4.4212703248     1.9778086180
  150      C      -2.0157769467     0.3392668691    -1.9676064279
  151      C      -5.8036316199    -0.4785021184    -2.9485039036
  152      C      -1.0382403494    -3.6550316062    -0.1241284944
  153      C      -0.7824699047    -2.5483840355     0.7108197878
  154      C      -4.7758478811    -1.0798322974    -3.6504409393
  155      C      -3.1941675074    -1.4653038299     2.9757431732
  156      C      -2.9608380772     0.8163977503     1.4442000704
  157      C      -2.3927562767    -3.4471693319     2.2972093337
  158      C      -6.2892211739    -0.2690804589     1.8220783830
  159      C      -6.2687128682    -2.7006948825    -3.0243573902
  160      C      -2.9401533091     1.2521488093     0.0815738726
  161      C      -3.4734552291    -0.5324558933    -3.5275366989
  162      C      -4.7475852275    -3.3648571910     2.8835942961
  163      C      -3.9492180550    -3.4000013996    -3.5460164808
  164      C      -6.1822139639    -4.2144485094     1.2926009020
  165      C      -2.9139057308    -4.7225870445    -2.0440828593
  166      C      -6.7197613275    -1.4557262348    -2.5888090536
  167      C      -5.0156315348    -2.4757234437    -3.7233566918
  168      C      -7.1637131964    -0.8145487223     0.8615618157
  169      C      -5.5305263224    -1.0971218586     2.6665465960
  170      C      -1.9986105514    -4.6425720367     0.2677898303
  171      C      -6.4202215513    -3.8940224133    -2.2308849438
  172      C      -1.5732018140    -0.9408821204    -2.3668705216
  173      C      -1.4722576080    -2.4505648698     1.9285526548
  174      C      -1.1067254825    -3.1598689939    -1.4656834780
  175      C      -5.8064259465    -2.4851446738     2.7148897651
  176      C      -3.9133034545    -5.0638565709     1.3358911495
 ----------------------------------------------------------------

    9   -5804.2928271557      8.17E-06 Convergence criterion met
 Total energy in the final basis set = -5804.2928271557

                    Orbital Energies (a.u.)
 --------------------------------------------------------------

 Alpha MOs
 -- Occupied --
-19.193 -19.187 -19.150 -19.138 -10.322 -10.315 -10.251 -10.248
-10.243 -10.241 -10.241 -10.240 -10.236 -10.232 -10.232 -10.231
-10.231 -10.230 -10.230 -10.228 -10.226 -10.226 -10.225 -10.224
-10.224 -10.223 -10.223 -10.223 -10.223 -10.222 -10.222 -10.222
-10.222 -10.221 -10.220 -10.220 -10.220 -10.220 -10.220 -10.219
-10.219 -10.219 -10.219 -10.219 -10.218 -10.218 -10.218 -10.218
-10.218 -10.218 -10.218 -10.217 -10.217 -10.217 -10.217 -10.217
-10.217 -10.217 -10.217 -10.217 -10.216 -10.216 -10.216 -10.216
-10.216 -10.216 -10.215 -10.215 -10.215 -10.215 -10.215 -10.215
-10.215 -10.215 -10.215 -10.214 -10.214 -10.214 -10.214 -10.214
-10.214 -10.214 -10.214 -10.213 -10.213 -10.213 -10.213 -10.213
-10.213 -10.213 -10.213 -10.213 -10.213 -10.213 -10.213 -10.213
-10.212 -10.212 -10.212 -10.212 -10.212 -10.212 -10.212 -10.212
-10.212 -10.212 -10.211 -10.211 -10.211 -10.211 -10.211 -10.210
-10.210 -10.210 -10.210 -10.209 -10.209 -10.209 -10.209 -10.209
-10.208 -10.208 -10.207 -10.207 -10.207 -10.207 -10.207 -10.207
-10.206 -10.206 -10.206 -10.205 -10.205 -10.204 -10.203 -10.203
-10.203 -10.202 -10.202 -10.201 -10.201 -10.200 -10.199 -10.198
-10.198 -10.198 -10.193 -10.189  -1.089  -1.089  -1.020  -1.012
 -0.983  -0.981  -0.965  -0.963  -0.962  -0.961  -0.957  -0.957
 -0.938  -0.931  -0.925  -0.925  -0.924  -0.923  -0.920  -0.919
 -0.918  -0.916  -0.894  -0.893  -0.889  -0.887  -0.884  -0.883
 -0.872  -0.870  -0.854  -0.847  -0.843  -0.840  -0.838  -0.837
 -0.835  -0.830  -0.822  -0.819  -0.810  -0.807  -0.798  -0.795
 -0.794  -0.793  -0.793  -0.790  -0.790  -0.788  -0.785  -0.780
 -0.771  -0.771  -0.769  -0.767  -0.765  -0.764  -0.762  -0.757
 -0.751  -0.746  -0.743  -0.739  -0.732  -0.729  -0.716  -0.714
 -0.713  -0.713  -0.712  -0.711  -0.710  -0.710  -0.709  -0.709
 -0.706  -0.705  -0.704  -0.704  -0.702  -0.698  -0.671  -0.670
 -0.657  -0.657  -0.656  -0.655  -0.645  -0.644  -0.630  -0.630
 -0.627  -0.625  -0.623  -0.622  -0.620  -0.618  -0.617  -0.616
 -0.615  -0.614  -0.613  -0.612  -0.610  -0.610  -0.608  -0.607
 -0.605  -0.603  -0.600  -0.599  -0.564  -0.563  -0.563  -0.562
 -0.558  -0.558  -0.556  -0.554  -0.554  -0.553  -0.552  -0.549
 -0.535  -0.534  -0.531  -0.531  -0.529  -0.527  -0.525  -0.525
 -0.524  -0.522  -0.519  -0.518  -0.514  -0.514  -0.514  -0.510
 -0.510  -0.505  -0.504  -0.503  -0.494  -0.492  -0.487  -0.486
 -0.485  -0.482  -0.480  -0.480  -0.479  -0.478  -0.476  -0.474
 -0.473  -0.471  -0.471  -0.469  -0.468  -0.467  -0.464  -0.464
 -0.464  -0.463  -0.462  -0.460  -0.460  -0.459  -0.459  -0.458
 -0.454  -0.454  -0.451  -0.451  -0.447  -0.445  -0.443  -0.442
 -0.441  -0.440  -0.439  -0.438  -0.437  -0.436  -0.435  -0.432
 -0.432  -0.429  -0.428  -0.426  -0.426  -0.425  -0.424  -0.423
 -0.422  -0.422  -0.421  -0.421  -0.420  -0.419  -0.419  -0.418
 -0.417  -0.417  -0.416  -0.414  -0.414  -0.413  -0.412  -0.411
 -0.411  -0.410  -0.409  -0.407  -0.403  -0.402  -0.400  -0.396
 -0.396  -0.394  -0.392  -0.390  -0.388  -0.385  -0.385  -0.381
 -0.381  -0.375  -0.372  -0.371  -0.370  -0.368  -0.365  -0.364
 -0.364  -0.363  -0.361  -0.361  -0.360  -0.359  -0.358  -0.356
 -0.355  -0.354  -0.354  -0.353  -0.353  -0.352  -0.351  -0.351
 -0.349  -0.348  -0.347  -0.347  -0.346  -0.345  -0.344  -0.344
 -0.343  -0.342  -0.341  -0.340  -0.339  -0.337  -0.334  -0.333
 -0.332  -0.331  -0.330  -0.328  -0.327  -0.325  -0.324  -0.319
 -0.312  -0.311  -0.302  -0.300  -0.285  -0.284  -0.278  -0.274
 -0.271  -0.270  -0.269  -0.267  -0.265  -0.265  -0.264  -0.263
 -0.262  -0.262  -0.260  -0.257  -0.256  -0.255  -0.253  -0.252
 -0.250  -0.244  -0.243  -0.242  -0.220  -0.215  -0.214  -0.211
 -0.209  -0.209  -0.207  -0.204  -0.201  -0.201

          Ground-State Mulliken Net Atomic Charges

     Atom                 Charge (a.u.)
  ----------------------------------------
      1 O                    -0.481424
      2 C                    -0.091865
      3 H                     0.131203
      4 H                     0.136071
      5 H                     0.135757
      6 O                    -0.468789
      7 C                     0.601287
      8 C                    -0.251073
      9 H                     0.123904
     10 H                     0.130414
     11 C                    -0.200355
     12 H                     0.135572
     13 H                     0.105386
     14 C                    -0.197770
     15 H                     0.107460
     16 H                     0.113403
     17 C                     0.031145
     18 C                     0.062164
     19 C                    -0.109029
     20 H                     0.099054
     21 C                    -0.089193
     22 H                     0.086408
     23 C                    -0.070684
     24 H                     0.090068
     25 C                    -0.096071
     26 H                     0.097536
     27 C                    -0.101413
     28 H                     0.099397
     29 C                     0.014229
     30 C                     0.022285
     31 C                     0.035427
     32 C                    -0.002143
     33 C                     0.023007
     34 C                    -0.006542
     35 C                     0.019593
     36 C                     0.004806
     37 C                    -0.016100
     38 C                     0.007085
     39 C                    -0.105146
     40 C                    -0.001137
     41 C                    -0.035869
     42 C                    -0.043869
     43 C                    -0.009773
     44 C                    -0.015432
     45 C                    -0.060514
     46 C                     0.030905
     47 C                    -0.005287
     48 C                    -0.014662
     49 C                    -0.004782
     50 C                    -0.021130
     51 C                    -0.002782
     52 C                     0.020587
     53 C                     0.060056
     54 C                    -0.010713
     55 C                    -0.009456
     56 C                    -0.015680
     57 C                    -0.014338
     58 C                    -0.053182
     59 C                     0.020345
     60 C                     0.053070
     61 C                     0.003338
     62 C                     0.023426
     63 C                    -0.006396
     64 C                     0.028841
     65 C                    -0.010043
     66 C                     0.023605
     67 C                    -0.001641
     68 C                    -0.020347
     69 C                     0.046419
     70 C                     0.017045
     71 C                     0.015123
     72 C                    -0.018124
     73 C                    -0.013661
     74 C                     0.019042
     75 C                    -0.021680
     76 C                    -0.030694
     77 C                     0.006287
     78 C                    -0.019303
     79 C                    -0.006538
     80 C                    -0.024059
     81 C                    -0.000527
     82 C                    -0.000726
     83 C                    -0.005433
     84 C                     0.000143
     85 C                    -0.009996
     86 C                    -0.016596
     87 C                     0.020742
     88 C                    -0.001039
     89 O                    -0.498059
     90 C                    -0.093312
     91 H                     0.135739
     92 H                     0.126847
     93 H                     0.127797
     94 O                    -0.424215
     95 C                     0.593443
     96 C                    -0.258587
     97 H                     0.126995
     98 H                     0.132940
     99 C                    -0.170558
    100 H                     0.101171
    101 H                     0.126104
    102 C                    -0.200840
    103 H                     0.104719
    104 H                     0.111563
    105 C                     0.024840
    106 C                     0.077987
    107 C                    -0.113436
    108 H                     0.093191
    109 C                    -0.087495
    110 H                     0.096882
    111 C                    -0.087234
    112 H                     0.093368
    113 C                    -0.090025
    114 H                     0.095224
    115 C                    -0.107168
    116 H                     0.094561
    117 C                    -0.019739
    118 C                    -0.015144
    119 C                     0.032940
    120 C                     0.030055
    121 C                     0.023256
    122 C                    -0.010465
    123 C                    -0.007017
    124 C                     0.012479
    125 C                    -0.008337
    126 C                     0.047146
    127 C                    -0.083674
    128 C                     0.013583
    129 C                     0.029607
    130 C                     0.001849
    131 C                    -0.006322
    132 C                     0.007501
    133 C                    -0.119095
    134 C                     0.054628
    135 C                    -0.007905
    136 C                     0.009920
    137 C                    -0.005589
    138 C                     0.010551
    139 C                    -0.023449
    140 C                     0.014654
    141 C                     0.044382
    142 C                     0.006026
    143 C                    -0.035668
    144 C                    -0.029408
    145 C                    -0.015240
    146 C                    -0.011674
    147 C                    -0.008066
    148 C                     0.008738
    149 C                     0.003111
    150 C                    -0.032741
    151 C                     0.008846
    152 C                    -0.007476
    153 C                    -0.011224
    154 C                     0.011010
    155 C                    -0.013291
    156 C                    -0.004824
    157 C                     0.034105
    158 C                     0.039887
    159 C                    -0.016748
    160 C                    -0.010425
    161 C                    -0.032560
    162 C                    -0.014749
    163 C                    -0.014748
    164 C                     0.037562
    165 C                    -0.016524
    166 C                     0.014537
    167 C                    -0.017214
    168 C                     0.028322
    169 C                     0.009771
    170 C                    -0.004698
    171 C                     0.000186
    172 C                     0.015324
    173 C                    -0.006349
    174 C                    -0.014533
    175 C                    -0.015836
    176 C                    -0.030320
  ----------------------------------------
  Sum of atomic charges =     0.000000

                    Cartesian Multipole Moments
 -----------------------------------------------------------------
    Charge (ESU x 10^10)
                 0.0000
    Dipole Moment (Debye)
         X      -0.3369      Y       4.8681      Z      -0.1806
       Tot       4.8830
    Quadrupole Moments (Debye-Ang)
        XX    -816.1364     XY       4.1125     YY    -802.2440
        XZ      -2.9611     YZ      -7.4054     ZZ    -787.0032

 Total job time:  868.45s(wall), 7416.45s(cpu)
        *  Thank you very much for using Q-Chem.  Have a nice day.  *
