 Q-Chem 4.4, Q-Chem, Inc., Pleasanton, CA (2016)
 Q-Chem 4.4.2 for Intel X86 Linux

User input:
--------------------------------------------------------------
$comment
SP
$end

$rem
MEM_STATIC 5000
MEM_TOTAL 20000
JOBTYPE SP
EXCHANGE B3LYP
BASIS 6-31g(d,p)
$end

$molecule
0 1
O          28.330000     -5.866000     -0.215000
C          28.965000     -6.362000      1.002000
H          29.119000     -7.436000      0.839000
H          28.317000     -6.132000      1.857000
H          29.952000     -5.928000      1.201000
O          27.987000     -3.697000      0.398000
C          27.910000     -4.576000     -0.438000
C          27.210000     -4.451000     -1.744000
H          26.785000     -3.441000     -1.783000
H          26.397000     -5.182000     -1.654000
C          28.142000     -4.637000     -3.004000
H          28.939000     -3.885000     -2.949000
H          28.684000     -5.590000     -2.956000
C          27.183000     -4.544000     -4.246000
H          26.489000     -5.393000     -4.243000
H          26.532000     -3.667000     -4.343000
C          27.941000     -4.800000     -5.563000
C          29.103000     -3.843000     -5.727000
C          30.458000     -4.319000     -5.770000
H          30.562000     -5.396000     -5.678000
C          31.565000     -3.445000     -5.818000
H          32.597000     -3.783000     -5.841000
C          31.382000     -2.069000     -5.759000
H          32.262000     -1.442000     -5.651000
C          30.076000     -1.587000     -5.617000
H          29.925000     -0.512000     -5.635000
C          28.913000     -2.420000     -5.656000
H          27.884000     -2.081000     -5.577000
C          26.882000     -4.350000    -10.922000
C          28.684000     -5.951000    -10.883000
C          26.278000     -9.540000    -12.032000
C          23.035000     -5.921000     -7.882000
C          25.984000    -10.773000     -8.767000
C          28.109000     -4.779000    -10.361000
C          23.093000     -8.701000     -7.947000
C          26.194000     -7.288000    -12.887000
C          28.714000     -8.069000     -7.458000
C          23.656000     -6.646000     -6.844000
C          27.825000     -6.128000     -6.314000
C          27.627000     -8.527000     -6.659000
C          24.857000     -8.519000     -6.287000
C          23.763000     -9.813000     -8.522000
C          29.049000     -5.960000     -8.576000
C          24.556000    -10.325000    -10.738000
C          27.026000     -4.935000     -6.732000
C          25.558000     -5.049000     -6.812000
C          25.811000    -10.730000    -10.170000
C          23.104000     -6.619000    -11.323000
C          24.090000     -8.423000    -12.240000
C          24.742000     -7.260000    -12.703000
C          26.911000     -6.154000    -12.465000
C          24.968000     -4.347000     -7.834000
C          28.798000     -6.645000     -7.376000
C          28.126000     -6.621000    -11.960000
C          23.669000     -8.050000     -6.888000
C          29.256000     -6.679000     -9.798000
C          26.894000     -9.654000     -7.031000
C          23.572000     -4.777000     -9.801000
C          26.930000     -8.434000    -12.561000
C          27.040000     -7.407000     -6.040000
C          24.941000     -5.044000    -11.782000
C          25.519000     -9.609000     -6.871000
C          29.022000     -8.794000     -8.634000
C          22.709000     -8.744000    -10.208000
C          22.554000     -8.014000     -9.037000
C          28.256000     -9.959000     -8.997000
C          23.680000     -4.729000     -8.376000
C          24.887000     -6.269000     -6.332000
C          22.793000     -5.890000    -10.160000
C          27.243000     -4.369000     -8.085000
C          28.606000     -8.763000    -10.849000
C          25.649000     -7.382000     -5.872000
C          27.211000    -10.392000     -8.200000
C          24.641000     -4.341000    -10.605000
C          26.849000    -10.312000    -10.988000
C          26.277000     -5.036000    -11.953000
C          24.826000     -9.575000    -11.925000
C          29.247000     -8.098000     -9.851000
C          28.068000     -9.913000    -10.371000
C          28.258000     -4.876000     -8.954000
C          26.025000     -3.943000     -8.656000
C          23.070000     -7.986000    -11.368000
C          28.072000     -8.030000    -11.966000
C          24.974000    -10.297000     -7.922000
C          22.561000     -6.593000     -8.985000
C          23.522000     -9.846000     -9.924000
C          25.865000     -3.894000    -10.039000
C          24.138000     -6.168000    -12.171000
O          12.859000     -9.359000     -5.627000
C          11.393000     -9.230000     -5.639000
H          11.101000     -8.174000     -5.573000
H          10.971000     -9.684000     -4.734000
H          10.997000     -9.686000     -6.555000
O          13.421000     -7.094000     -5.946000
C          13.694000     -8.238000     -5.847000
C          15.123000     -8.755000     -6.068000
H          15.111000     -9.551000     -6.822000
H          15.457000     -9.236000     -5.140000
C          16.206000     -7.780000     -6.463000
H          15.956000     -7.437000     -7.474000
H          16.348000     -6.874000     -5.861000
C          17.559000     -8.444000     -6.643000
H          17.378000     -9.413000     -7.123000
H          18.139000     -7.934000     -7.422000
C          18.327000     -8.617000     -5.238000
C          18.684000     -7.339000     -4.588000
C          17.965000     -6.769000     -3.522000
H          17.354000     -7.487000     -2.982000
C          18.172000     -5.440000     -3.093000
H          17.597000     -5.044000     -2.261000
C          19.323000     -4.764000     -3.558000
H          19.595000     -3.817000     -3.102000
C          20.099000     -5.300000     -4.608000
H          20.775000     -4.655000     -5.163000
C          19.786000     -6.574000     -5.161000
H          20.298000     -6.907000     -6.059000
C          22.846000    -10.677000     -2.881000
C          21.112000    -10.808000     -1.096000
C          20.641000    -15.334000     -1.271000
C          21.071000    -12.869000     -7.037000
C          17.747000    -15.221000     -3.225000
C          21.697000    -10.099000     -2.213000
C          19.448000    -15.053000     -6.422000
C          22.634000    -13.913000     -1.477000
C          17.416000    -11.285000     -2.684000
C          19.728000    -12.714000     -7.133000
C          18.142000     -9.925000     -4.505000
C          16.906000    -11.895000     -3.856000
C          17.735000    -13.269000     -6.089000
C          18.881000    -15.723000     -5.346000
C          19.403000     -9.916000     -2.220000
C          19.928000    -16.318000     -3.202000
C          19.448000     -9.623000     -5.164000
C          19.913000    -10.459000     -6.299000
C          18.820000    -15.834000     -2.539000
C          23.167000    -14.521000     -4.917000
C          22.295000    -15.711000     -3.103000
C          23.066000    -14.632000     -2.639000
C          22.816000    -12.562000     -1.322000
C          21.269000    -10.696000     -6.180000
C          18.295000    -10.219000     -3.017000
C          21.654000    -12.096000     -0.690000
C          18.871000    -13.776000     -6.765000
C          19.686000    -10.684000     -1.067000
C          16.728000    -13.245000     -3.885000
C          22.987000    -12.393000     -5.939000
C          21.432000    -14.308000     -0.756000
C          17.437000    -11.137000     -4.988000
C          23.726000    -12.556000     -3.634000
C          17.170000    -13.968000     -5.058000
C          17.726000    -12.115000     -1.560000
C          21.215000    -15.940000     -5.298000
C          20.876000    -15.164000     -6.425000
C          17.577000    -13.489000     -1.584000
C          21.868000    -11.833000     -6.624000
C          19.133000    -11.493000     -6.726000
C          22.809000    -13.760000     -5.967000
C          20.691000     -9.497000     -4.279000
C          19.423000    -12.984000     -0.325000
C          17.930000    -11.895000     -6.064000
C          17.048000    -14.083000     -2.758000
C          23.474000    -11.756000     -4.768000
C          19.270000    -15.258000     -1.298000
C          23.312000    -11.890000     -2.473000
C          21.073000    -16.020000     -2.414000
C          18.830000    -11.807000     -0.779000
C          18.619000    -14.084000     -0.828000
C          20.619000     -9.589000     -2.875000
C          21.742000    -10.097000     -4.993000
C          22.354000    -15.591000     -4.503000
C          20.853000    -13.144000     -0.247000
C          17.814000    -15.141000     -4.607000
C          21.684000    -14.065000     -6.753000
C          19.994000    -16.237000     -4.612000
C          22.861000    -10.607000     -4.291000
C          23.641000    -13.951000     -3.704000
$end

--------------------------------------------------------------

             Standard Nuclear Orientation (Angstroms)
    I     Atom           X                Y                Z
 ----------------------------------------------------------------
    1      O       3.6618775962    -7.6549243689     1.2155805206
    2      C       3.4149943127    -9.0081951755     0.7276904017
    3      H       2.9968997328    -8.8881004579    -0.2795509701
    4      H       2.7427263178    -9.5187686073     1.4285466736
    5      H       4.3197360029    -9.6186830396     0.6234165230
    6      O       4.3778727303    -8.1413165260     3.3247871576
    7      C       4.1423777440    -7.3206580773     2.4596121337
    8      C       4.1684596513    -5.8465531651     2.6535075739
    9      H       4.4228397671    -5.6673325825     3.7048955801
   10      H       3.1234524645    -5.5609973729     2.4807422151
   11      C       5.2264928785    -5.0897594534     1.7598359519
   12      H       6.2177730654    -5.5007698938     1.9882478802
   13      H       5.0877982653    -5.3283125010     0.6976997800
   14      C       5.0176246766    -3.5636490284     2.0732925599
   15      H       4.0284589342    -3.2451899135     1.7231769700
   16      H       5.0508420445    -3.2322075296     3.1179849257
   17      C       5.9278215289    -2.6795850973     1.1989003963
   18      C       7.3859384580    -3.0526285925     1.3654013628
   19      C       8.1523125848    -3.5670607940     0.2642745727
   20      H       7.6013232165    -3.6570202954    -0.6671367243
   21      C       9.4807556940    -4.0192747386     0.4138421288
   22      H      10.0744080482    -4.4207647938    -0.4023561425
   23      C      10.0822522980    -4.0433132924     1.6660282105
   24      H      11.0470608561    -4.5329641403     1.7586537654
   25      C       9.3194107266    -3.6394498213     2.7674323296
   26      H       9.8069092872    -3.5967443304     3.7365924787
   27      C       8.0037455728    -3.0862253834     2.6628047790
   28      H       7.3922815775    -2.7368016770     3.4898584991
   29      C       7.3564090585     2.6087675687     1.0109489400
   30      C       7.8055097008     1.8708490360    -1.2397644696
   31      C       4.4462275172     4.0483182501    -3.2306961692
   32      C       2.4924883947     1.5247901803     2.3056762462
   33      C       2.3437184100     1.2544524695    -3.4324867885
   34      C       7.8307354019     1.5989511588     0.1394121719
   35      C       1.0241525384     1.6553145789    -0.0529127799
   36      C       5.9420142868     4.7810400343    -1.4884775471
   37      C       5.3975970924    -1.1737770662    -2.3119854208
   38      C       2.1745086207     0.3475971563     1.5972869129
   39      C       5.3838541897    -1.9040839373    -0.0026562960
   40      C       4.0375396275    -1.4252017962    -1.9702789718
   41      C       1.8332123162    -0.5978004359    -0.4643918267
   42      C       1.1226302694     1.9332384278    -1.4418438332
   43      C       7.2245715316    -0.3738918228    -0.9583318477
   44      C       2.2484250898     3.6264643706    -2.7330529289
   45      C       5.5990553441    -1.2302892958     1.3149412315
   46      C       4.4675167956    -0.5364500657     1.9573022172
   47      C       2.7543756445     2.5976974957    -3.5975335553
   48      C       3.4248136589     4.6395170477     0.9783887328
   49      C       3.5032502053     5.1184993654    -1.2197751937
   50      C       4.8037305662     5.2239024343    -0.6815530983
   51      C       6.9494142624     4.0577585482    -0.8250484394
   52      C       4.7900904610     0.6139941403     2.6339205434
   53      C       6.2168498309    -1.3326130783    -1.1521785094
   54      C       7.4143822605     3.1050710030    -1.7336353653
   55      C       1.4248718777     0.4304976323     0.4121737265
   56      C       7.4319267671     0.6717561071    -1.9157858743
   57      C       3.0036390743    -0.7407636261    -2.6093376839
   58      C       4.2322635934     2.9992371463     2.5864865061
   59      C       5.7395096808     4.2155256527    -2.7535757128
   60      C       3.9893698014    -1.7781987432    -0.6082206679
   61      C       5.8377390812     4.2287109729     1.2520751871
   62      C       1.9411708745    -0.3091122687    -1.8327500005
   63      C       5.6602541017    -0.2121020512    -3.3168025489
   64      C       1.5452273745     3.8681373580    -0.3583998721
   65      C       1.4016102748     2.8464778873     0.5709827481
   66      C       4.5773681334     0.4793669855    -3.9687063385
   67      C       3.8151602214     1.6602407379     2.8652451744
   68      C       3.1150831174    -0.6473068875     1.3848732599
   69      C       3.1669062971     3.6907515153     1.9853935776
   70      C       6.5719160165    -0.1144490663     1.3955433051
   71      C       6.1813429513     1.9699193727    -3.5347266562
   72      C       2.9009424923    -1.3463808369     0.1615775451
   73      C       3.2632707021     0.2112289868    -3.6281583171
   74      C       5.5685452319     3.2635245192     2.2346675651
   75      C       4.0626795040     2.8883361012    -3.9513162743
   76      C       6.9043613397     3.8216039912     0.5373851404
   77      C       3.3014792563     4.5631648592    -2.4921419137
   78      C       6.6608610617     0.7725861909    -3.1039533591
   79      C       4.9677911671     1.8025250606    -4.1175638646
   80      C       7.3708261888     0.2640374994     0.2726339338
   81      C       6.1063441404     0.9007520339     2.2578950629
   82      C       2.6608291040     4.7418126801    -0.1519798812
   83      C       6.5978862765     3.1818701034    -2.8806616101
   84      C       1.5402559877     0.8966921268    -2.3429195932
   85      C       2.1726528325     2.7473264675     1.7616365055
   86      C       1.4400767252     3.3067986658    -1.6350639679
   87      C       6.5226792207     2.2201904843     2.0952996246
   88      C       4.7593944180     4.9578967572     0.6479502999
   89      O      -7.8477040973     3.8786553723     5.1333224203
   90      C      -8.8685404342     4.5016137927     5.9910851962
   91      H      -8.5279115555     4.5281182847     7.0341697943
   92      H      -9.7680023463     3.8742814311     6.0165287969
   93      H      -9.0795350501     5.5143527776     5.6255048074
   94      O      -6.0588008529     3.8533070378     6.6653187141
   95      C      -6.5229708277     3.6882408787     5.5927678306
   96      C      -5.6583917875     3.3054798354     4.3827397042
   97      H      -5.8295970315     4.0215944172     3.5702468303
   98      H      -6.0157738747     2.3402883490     4.0022342005
   99      C      -4.1644131420     3.1744655600     4.5571015884
  100      H      -3.7898879784     4.1843438969     4.7623980731
  101      H      -3.7792746221     2.5376855371     5.3630690338
  102      C      -3.4529680200     2.7915712327     3.2721335840
  103      H      -3.9469732282     3.3363217181     2.4589129725
  104      H      -2.4507624195     3.2362895510     3.2382138012
  105      C      -3.4911350489     1.2007715452     3.0237837659
  106      C      -2.7573607327     0.4172106938     4.0390869941
  107      C      -3.3725698202    -0.2665374619     5.1031467848
  108      H      -4.4249071988    -0.4743570523     4.9303982403
  109      C      -2.6414901879    -0.7884152233     6.1923194861
  110      H      -3.1589967537    -1.3145687117     6.9891974322
  111      C      -1.2360542161    -0.8742407476     6.0682803454
  112      H      -0.6773051536    -1.4347434620     6.8114930958
  113      C      -0.5653181682    -0.2301439089     5.0065720915
  114      H       0.5008323355    -0.0335407041     5.0820458176
  115      C      -1.2996685106     0.4468332607     3.9920350116
  116      H      -0.7701951536     1.0571427077     3.2663509596
  117      C      -2.1163915160    -2.7654677269    -0.5257846946
  118      C      -4.1425952109    -3.6500015304     0.6241024899
  119      C      -6.9305911410    -3.1369912958    -2.9397495262
  120      C      -3.1254538780     1.8245724342    -2.2981135210
  121      C      -8.3137005886    -0.1522918236    -1.7630174766
  122      C      -2.9023412182    -2.9078228299     0.6835651681
  123      C      -5.7721275077     2.0249760056    -3.1566978828
  124      C      -4.5791551405    -3.8374589569    -2.8221919173
  125      C      -6.5861651890    -0.6394651145     1.7968451089
  126      C      -4.0090171117     2.4710601443    -1.4992019785
  127      C      -4.6217735536     0.6591912642     2.1807384700
  128      C      -6.8732874148     0.6586265123     1.3086822713
  129      C      -6.1904681314     2.3818877074    -0.7224589546
  130      C      -6.9622871585     1.3110517495    -3.2013875015
  131      C      -4.5145000375    -1.9430426730     2.0125185871
  132      C      -7.2968315448    -1.0524967693    -3.7918859799
  133      C      -3.2356049449     0.6969754419     1.6255538662
  134      C      -2.9319210691     1.5592849347     0.4561333079
  135      C      -8.1021993007    -1.2043159638    -2.6829122607
  136      C      -3.2504292502    -0.9218835644    -4.3125813425
  137      C      -5.2275412635    -2.1586623932    -4.4813599417
  138      C      -4.2255886625    -2.9408324283    -3.8827958084
  139      C      -3.7537904349    -4.1011713344    -1.7584349503
  140      C      -2.0923940917     0.8893092540    -0.4130001924
  141      C      -5.2173191479    -0.7440380685     2.1645556106
  142      C      -4.5980830919    -4.2015541694    -0.6431245918
  143      C      -5.3720784123     2.5345114363    -1.8676511939
  144      C      -5.1513629942    -3.0808636669     1.4656264953
  145      C      -7.7414756891     0.8063892901     0.2697211162
  146      C      -1.8334870295     0.0068967620    -2.6588250580
  147      C      -5.9617237873    -3.9719795654    -2.3850670579
  148      C      -5.6408363298     1.4354224592     1.4335877556
  149      C      -2.2190196054    -2.3880010684    -2.6981190144
  150      C      -7.3785911725     1.7089210919    -0.8016206473
  151      C      -7.2264092843    -1.7602086810     1.1784622529
  152      C      -5.3540790254     0.2934523380    -4.5707329795
  153      C      -4.7642507231     1.4309763144    -3.9830529843
  154      C      -8.0880039936    -1.6283463747     0.1056529087
  155      C      -2.1090390474     1.0791897744    -1.7592447220
  156      C      -3.9293638158     2.3101416488    -0.0926901263
  157      C      -2.7114338911     0.1543399003    -3.7117385536
  158      C      -2.5619676076    -0.6324743229     1.2749457364
  159      C      -6.8916228940    -3.5635487228    -0.1617160064
  160      C      -5.2948352305     2.2297732756     0.3269355882
  161      C      -8.3797632738    -0.3210034318    -0.3598403264
  162      C      -1.5482854356    -1.2815477441    -2.1365705171
  163      C      -7.9041277816    -2.5385564549    -2.1780093143
  164      C      -2.5880313349    -3.2894610048    -1.6911069358
  165      C      -6.5657878426    -2.2587297693    -3.9689454476
  166      C      -6.5179321041    -2.9431979459     1.0293398727
  167      C      -7.9155063979    -2.7314175140    -0.7688776175
  168      C      -3.1833101916    -1.8718982050     1.5251972773
  169      C      -1.8445426495    -0.4064411942     0.0880980401
  170      C      -4.6019273093    -0.9183645147    -4.7007895501
  171      C      -5.9391250502    -4.2301330732    -1.0131836577
  172      C      -7.7108224237     1.0697037452    -2.0161533062
  173      C      -3.4321210901     1.3505902803    -3.5503663464
  174      C      -6.6838449977     0.1952699050    -4.0494569789
  175      C      -1.5476272254    -1.4958729592    -0.7663284695
  176      C      -3.0274170456    -2.2406251234    -3.8307813248
 ----------------------------------------------------------------

    9   -5804.2862819785      7.86E-06 Convergence criterion met
 Total energy in the final basis set = -5804.2862819785

                    Orbital Energies (a.u.)
 --------------------------------------------------------------

 Alpha MOs
 -- Occupied --
-19.185 -19.183 -19.148 -19.131 -10.320 -10.312 -10.254 -10.249
-10.247 -10.246 -10.243 -10.240 -10.237 -10.236 -10.235 -10.233
-10.231 -10.231 -10.230 -10.229 -10.226 -10.226 -10.225 -10.225
-10.225 -10.225 -10.225 -10.224 -10.223 -10.223 -10.223 -10.223
-10.222 -10.222 -10.222 -10.222 -10.222 -10.221 -10.221 -10.221
-10.220 -10.220 -10.220 -10.220 -10.219 -10.219 -10.219 -10.219
-10.219 -10.219 -10.219 -10.219 -10.219 -10.219 -10.219 -10.219
-10.218 -10.218 -10.218 -10.218 -10.218 -10.218 -10.218 -10.218
-10.218 -10.218 -10.218 -10.217 -10.217 -10.217 -10.217 -10.217
-10.217 -10.216 -10.216 -10.216 -10.216 -10.216 -10.216 -10.216
-10.216 -10.215 -10.215 -10.215 -10.215 -10.215 -10.215 -10.215
-10.215 -10.215 -10.215 -10.214 -10.214 -10.214 -10.214 -10.214
-10.214 -10.213 -10.213 -10.213 -10.213 -10.213 -10.213 -10.213
-10.213 -10.212 -10.212 -10.212 -10.212 -10.212 -10.212 -10.212
-10.212 -10.212 -10.211 -10.211 -10.211 -10.211 -10.211 -10.211
-10.211 -10.210 -10.210 -10.210 -10.210 -10.210 -10.210 -10.209
-10.209 -10.208 -10.208 -10.207 -10.207 -10.206 -10.205 -10.205
-10.205 -10.205 -10.204 -10.203 -10.202 -10.202 -10.201 -10.201
-10.201 -10.200 -10.198 -10.187  -1.087  -1.081  -1.018  -1.003
 -0.985  -0.982  -0.967  -0.966  -0.965  -0.963  -0.963  -0.958
 -0.938  -0.932  -0.930  -0.928  -0.926  -0.924  -0.924  -0.922
 -0.920  -0.919  -0.898  -0.895  -0.894  -0.889  -0.888  -0.884
 -0.878  -0.871  -0.852  -0.847  -0.845  -0.843  -0.842  -0.838
 -0.837  -0.831  -0.823  -0.819  -0.807  -0.806  -0.802  -0.799
 -0.796  -0.794  -0.794  -0.793  -0.792  -0.789  -0.788  -0.781
 -0.772  -0.772  -0.770  -0.770  -0.768  -0.767  -0.765  -0.757
 -0.747  -0.745  -0.745  -0.738  -0.737  -0.729  -0.719  -0.717
 -0.715  -0.715  -0.715  -0.714  -0.713  -0.711  -0.710  -0.709
 -0.708  -0.707  -0.705  -0.705  -0.703  -0.696  -0.675  -0.671
 -0.662  -0.660  -0.658  -0.656  -0.650  -0.646  -0.636  -0.631
 -0.630  -0.627  -0.626  -0.626  -0.621  -0.620  -0.619  -0.618
 -0.618  -0.616  -0.614  -0.614  -0.612  -0.611  -0.611  -0.609
 -0.608  -0.605  -0.603  -0.600  -0.567  -0.565  -0.564  -0.562
 -0.562  -0.562  -0.558  -0.557  -0.555  -0.555  -0.553  -0.549
 -0.539  -0.537  -0.535  -0.531  -0.530  -0.528  -0.526  -0.526
 -0.524  -0.523  -0.520  -0.520  -0.519  -0.518  -0.514  -0.511
 -0.510  -0.503  -0.501  -0.496  -0.494  -0.493  -0.489  -0.488
 -0.487  -0.483  -0.483  -0.481  -0.480  -0.479  -0.475  -0.475
 -0.474  -0.470  -0.470  -0.469  -0.469  -0.468  -0.468  -0.467
 -0.466  -0.465  -0.463  -0.462  -0.462  -0.460  -0.459  -0.458
 -0.458  -0.453  -0.453  -0.451  -0.448  -0.446  -0.445  -0.443
 -0.442  -0.442  -0.441  -0.439  -0.438  -0.437  -0.435  -0.433
 -0.431  -0.429  -0.429  -0.428  -0.427  -0.426  -0.425  -0.424
 -0.424  -0.423  -0.422  -0.422  -0.421  -0.421  -0.421  -0.420
 -0.419  -0.419  -0.418  -0.417  -0.415  -0.414  -0.413  -0.412
 -0.412  -0.411  -0.411  -0.409  -0.408  -0.403  -0.403  -0.397
 -0.397  -0.397  -0.394  -0.391  -0.390  -0.388  -0.384  -0.384
 -0.382  -0.380  -0.377  -0.373  -0.372  -0.371  -0.369  -0.368
 -0.365  -0.364  -0.363  -0.363  -0.361  -0.361  -0.359  -0.358
 -0.357  -0.356  -0.355  -0.355  -0.354  -0.354  -0.353  -0.352
 -0.350  -0.349  -0.349  -0.348  -0.348  -0.346  -0.345  -0.344
 -0.344  -0.343  -0.342  -0.342  -0.339  -0.339  -0.337  -0.335
 -0.334  -0.333  -0.330  -0.330  -0.328  -0.327  -0.323  -0.321
 -0.321  -0.312  -0.300  -0.295  -0.291  -0.285  -0.277  -0.275
 -0.273  -0.272  -0.271  -0.268  -0.265  -0.265  -0.264  -0.263
 -0.262  -0.262  -0.259  -0.258  -0.256  -0.256  -0.255  -0.253
 -0.251  -0.245  -0.245  -0.241  -0.226  -0.216  -0.215  -0.213
 -0.212  -0.210  -0.208  -0.206  -0.202  -0.201

          Ground-State Mulliken Net Atomic Charges

     Atom                 Charge (a.u.)
  ----------------------------------------
      1 O                    -0.482523
      2 C                    -0.078073
      3 H                     0.128181
      4 H                     0.132674
      5 H                     0.126235
      6 O                    -0.468683
      7 C                     0.570614
      8 C                    -0.238131
      9 H                     0.132074
     10 H                     0.133969
     11 C                    -0.196213
     12 H                     0.131506
     13 H                     0.124367
     14 C                    -0.173469
     15 H                     0.114985
     16 H                     0.114651
     17 C                    -0.012051
     18 C                     0.090596
     19 C                    -0.109440
     20 H                     0.090594
     21 C                    -0.090848
     22 H                     0.093263
     23 C                    -0.073003
     24 H                     0.097248
     25 C                    -0.102336
     26 H                     0.091162
     27 C                    -0.104867
     28 H                     0.091138
     29 C                    -0.019618
     30 C                     0.003624
     31 C                     0.007301
     32 C                    -0.024011
     33 C                    -0.012640
     34 C                    -0.010464
     35 C                    -0.001217
     36 C                    -0.020369
     37 C                     0.006367
     38 C                    -0.000084
     39 C                    -0.070446
     40 C                     0.018672
     41 C                    -0.013365
     42 C                    -0.018916
     43 C                     0.018120
     44 C                    -0.016321
     45 C                    -0.083738
     46 C                     0.032275
     47 C                     0.015271
     48 C                     0.010145
     49 C                    -0.000656
     50 C                    -0.003931
     51 C                     0.000125
     52 C                     0.013471
     53 C                     0.006924
     54 C                    -0.006494
     55 C                     0.017497
     56 C                    -0.016721
     57 C                    -0.007722
     58 C                     0.004635
     59 C                    -0.003565
     60 C                     0.039624
     61 C                    -0.004488
     62 C                     0.031326
     63 C                    -0.028846
     64 C                    -0.030386
     65 C                     0.003935
     66 C                     0.003941
     67 C                    -0.039411
     68 C                    -0.004223
     69 C                    -0.015239
     70 C                     0.041889
     71 C                     0.042331
     72 C                    -0.046174
     73 C                    -0.006027
     74 C                    -0.000861
     75 C                    -0.004983
     76 C                     0.046321
     77 C                    -0.011245
     78 C                    -0.018644
     79 C                    -0.008629
     80 C                     0.005485
     81 C                     0.004954
     82 C                     0.004733
     83 C                     0.009610
     84 C                     0.003923
     85 C                     0.025692
     86 C                     0.022741
     87 C                    -0.021908
     88 C                     0.002054
     89 O                    -0.497928
     90 C                    -0.093618
     91 H                     0.135651
     92 H                     0.127000
     93 H                     0.127809
     94 O                    -0.424754
     95 C                     0.593360
     96 C                    -0.257616
     97 H                     0.130357
     98 H                     0.131263
     99 C                    -0.171784
    100 H                     0.102497
    101 H                     0.125315
    102 C                    -0.195792
    103 H                     0.102675
    104 H                     0.111516
    105 C                     0.023830
    106 C                     0.079243
    107 C                    -0.114117
    108 H                     0.092839
    109 C                    -0.086919
    110 H                     0.096653
    111 C                    -0.087621
    112 H                     0.092439
    113 C                    -0.093175
    114 H                     0.096750
    115 C                    -0.110394
    116 H                     0.095991
    117 C                    -0.027057
    118 C                    -0.015211
    119 C                     0.033007
    120 C                     0.028308
    121 C                     0.025819
    122 C                    -0.010724
    123 C                    -0.002702
    124 C                     0.014125
    125 C                    -0.007170
    126 C                    -0.009790
    127 C                    -0.082995
    128 C                     0.014654
    129 C                     0.025896
    130 C                    -0.004711
    131 C                    -0.006402
    132 C                     0.008203
    133 C                    -0.118743
    134 C                     0.046905
    135 C                    -0.008088
    136 C                     0.009264
    137 C                    -0.006637
    138 C                     0.008636
    139 C                    -0.024517
    140 C                     0.024486
    141 C                     0.044953
    142 C                     0.005751
    143 C                    -0.022167
    144 C                    -0.029564
    145 C                    -0.009642
    146 C                    -0.003795
    147 C                    -0.007967
    148 C                     0.010406
    149 C                    -0.001505
    150 C                    -0.024480
    151 C                     0.009763
    152 C                    -0.006241
    153 C                    -0.016192
    154 C                     0.011397
    155 C                    -0.007824
    156 C                    -0.009468
    157 C                     0.027233
    158 C                     0.035420
    159 C                    -0.016531
    160 C                    -0.003422
    161 C                    -0.031688
    162 C                    -0.012086
    163 C                    -0.013702
    164 C                     0.038901
    165 C                    -0.015703
    166 C                     0.014601
    167 C                    -0.017206
    168 C                     0.028849
    169 C                     0.014955
    170 C                    -0.004633
    171 C                     0.000598
    172 C                     0.018091
    173 C                    -0.007199
    174 C                    -0.012681
    175 C                    -0.008312
    176 C                    -0.030197
  ----------------------------------------
  Sum of atomic charges =     0.000000

                    Cartesian Multipole Moments
 -----------------------------------------------------------------
    Charge (ESU x 10^10)
                 0.0000
    Dipole Moment (Debye)
         X       1.3568      Y      -0.2798      Z       0.1719
       Tot       1.3960
    Quadrupole Moments (Debye-Ang)
        XX    -782.3757     XY     -22.3623     YY    -807.6640
        XZ     -14.5764     YZ      14.0517     ZZ    -819.6127

 Total job time:  849.56s(wall), 7187.04s(cpu)
        *  Thank you very much for using Q-Chem.  Have a nice day.  *
