 Q-Chem 4.4, Q-Chem, Inc., Pleasanton, CA (2016)
 Q-Chem 4.4.2 for Intel X86 Linux

User input:
--------------------------------------------------------------
$comment
SP
$end

$rem
MEM_STATIC 5000
MEM_TOTAL 20000
JOBTYPE SP
EXCHANGE B3LYP
BASIS 6-31g(d,p)
$end

$molecule
0 1
O          14.691000    -15.231000      1.398000
C          15.815000    -14.739000      2.161000
H          15.399000    -13.899000      2.732000
H          16.587000    -14.257000      1.547000
H          16.319000    -15.453000      2.823000
O          16.021000    -16.521000      0.036000
C          14.940000    -16.065000      0.329000
C          13.721000    -16.445000     -0.493000
H          13.253000    -17.261000      0.070000
H          14.069000    -16.879000     -1.439000
C          12.722000    -15.306000     -0.767000
H          11.819000    -15.634000     -1.297000
H          12.331000    -14.864000      0.158000
C          13.438000    -14.263000     -1.672000
H          14.389000    -13.988000     -1.199000
H          13.687000    -14.662000     -2.662000
C          12.528000    -13.005000     -1.743000
C          11.571000    -13.058000     -2.995000
C          10.218000    -13.461000     -2.801000
H           9.898000    -13.929000     -1.875000
C           9.319000    -13.449000     -3.893000
H           8.287000    -13.779000     -3.810000
C           9.798000    -12.999000     -5.154000
H           9.160000    -12.931000     -6.031000
C          11.123000    -12.596000     -5.314000
H          11.481000    -12.441000     -6.327000
C          11.976000    -12.539000     -4.225000
H          13.016000    -12.260000     -4.366000
C          12.426000     -7.563000     -2.361000
C          10.261000     -7.994000     -1.391000
C          11.195000     -6.270000      2.722000
C          16.169000     -9.456000      0.432000
C          11.892000     -9.310000      4.206000
C          11.302000     -8.407000     -2.268000
C          15.358000     -9.393000      3.101000
C          11.762000     -5.365000      0.491000
C          10.508000    -11.233000      0.934000
C          15.712000    -10.635000      1.032000
C          12.092000    -12.086000     -0.550000
C          11.524000    -11.758000      1.722000
C          14.159000    -11.430000      2.516000
C          14.395000     -8.973000      4.067000
C          10.502000    -10.269000     -1.244000
C          12.860000     -7.131000      4.021000
C          13.162000    -11.613000     -1.478000
C          14.490000    -11.208000     -0.989000
C          11.717000     -7.895000      4.164000
C          15.149000     -6.147000      0.768000
C          13.469000     -5.524000      2.219000
C          13.097000     -5.218000      0.901000
C          11.456000     -5.889000     -0.786000
C          14.908000    -10.016000     -1.536000
C          10.764000    -11.381000     -0.422000
C          10.326000     -6.773000     -0.653000
C          15.276000    -10.632000      2.324000
C           9.761000     -9.133000     -0.747000
C          11.825000    -11.213000      2.951000
C          15.558000     -7.738000     -0.978000
C          10.849000     -5.929000      1.423000
C          12.502000    -12.253000      0.882000
C          13.793000     -6.169000     -1.239000
C          13.129000    -11.050000      3.423000
C           9.748000    -10.135000      1.439000
C          15.086000     -7.144000      3.000000
C          15.861000     -8.204000      2.529000
C          10.018000     -9.578000      2.746000
C          15.773000     -9.138000     -0.872000
C          14.842000    -11.510000      0.364000
C          15.893000     -7.168000      0.304000
C          12.792000    -10.410000     -2.243000
C           9.489000     -7.890000      1.363000
C          13.842000    -11.984000      1.226000
C          11.047000    -10.154000      3.464000
C          14.587000     -7.216000     -1.770000
C          10.692000     -7.344000      3.418000
C          12.524000     -6.392000     -1.564000
C          12.551000     -6.049000      3.159000
C           9.451000     -9.076000      0.615000
C           9.816000     -8.214000      2.690000
C          11.469000     -9.810000     -2.237000
C          13.840000     -9.532000     -2.241000
C          14.761000     -6.126000      2.146000
C           9.989000     -6.790000      0.708000
C          13.242000     -9.851000      4.149000
C          16.219000     -8.225000      1.184000
C          14.160000     -7.630000      3.963000
C          13.692000     -8.141000     -2.413000
C          14.144000     -5.537000     -0.002000
O          12.859000     -9.359000     -5.627000
C          11.393000     -9.230000     -5.639000
H          11.101000     -8.174000     -5.573000
H          10.971000     -9.684000     -4.734000
H          10.997000     -9.686000     -6.555000
O          13.421000     -7.094000     -5.946000
C          13.694000     -8.238000     -5.847000
C          15.123000     -8.755000     -6.068000
H          15.111000     -9.551000     -6.822000
H          15.457000     -9.236000     -5.140000
C          16.206000     -7.780000     -6.463000
H          15.956000     -7.437000     -7.474000
H          16.348000     -6.874000     -5.861000
C          17.559000     -8.444000     -6.643000
H          17.378000     -9.413000     -7.123000
H          18.139000     -7.934000     -7.422000
C          18.327000     -8.617000     -5.238000
C          18.684000     -7.339000     -4.588000
C          17.965000     -6.769000     -3.522000
H          17.354000     -7.487000     -2.982000
C          18.172000     -5.440000     -3.093000
H          17.597000     -5.044000     -2.261000
C          19.323000     -4.764000     -3.558000
H          19.595000     -3.817000     -3.102000
C          20.099000     -5.300000     -4.608000
H          20.775000     -4.655000     -5.163000
C          19.786000     -6.574000     -5.161000
H          20.298000     -6.907000     -6.059000
C          22.846000    -10.677000     -2.881000
C          21.112000    -10.808000     -1.096000
C          20.641000    -15.334000     -1.271000
C          21.071000    -12.869000     -7.037000
C          17.747000    -15.221000     -3.225000
C          21.697000    -10.099000     -2.213000
C          19.448000    -15.053000     -6.422000
C          22.634000    -13.913000     -1.477000
C          17.416000    -11.285000     -2.684000
C          19.728000    -12.714000     -7.133000
C          18.142000     -9.925000     -4.505000
C          16.906000    -11.895000     -3.856000
C          17.735000    -13.269000     -6.089000
C          18.881000    -15.723000     -5.346000
C          19.403000     -9.916000     -2.220000
C          19.928000    -16.318000     -3.202000
C          19.448000     -9.623000     -5.164000
C          19.913000    -10.459000     -6.299000
C          18.820000    -15.834000     -2.539000
C          23.167000    -14.521000     -4.917000
C          22.295000    -15.711000     -3.103000
C          23.066000    -14.632000     -2.639000
C          22.816000    -12.562000     -1.322000
C          21.269000    -10.696000     -6.180000
C          18.295000    -10.219000     -3.017000
C          21.654000    -12.096000     -0.690000
C          18.871000    -13.776000     -6.765000
C          19.686000    -10.684000     -1.067000
C          16.728000    -13.245000     -3.885000
C          22.987000    -12.393000     -5.939000
C          21.432000    -14.308000     -0.756000
C          17.437000    -11.137000     -4.988000
C          23.726000    -12.556000     -3.634000
C          17.170000    -13.968000     -5.058000
C          17.726000    -12.115000     -1.560000
C          21.215000    -15.940000     -5.298000
C          20.876000    -15.164000     -6.425000
C          17.577000    -13.489000     -1.584000
C          21.868000    -11.833000     -6.624000
C          19.133000    -11.493000     -6.726000
C          22.809000    -13.760000     -5.967000
C          20.691000     -9.497000     -4.279000
C          19.423000    -12.984000     -0.325000
C          17.930000    -11.895000     -6.064000
C          17.048000    -14.083000     -2.758000
C          23.474000    -11.756000     -4.768000
C          19.270000    -15.258000     -1.298000
C          23.312000    -11.890000     -2.473000
C          21.073000    -16.020000     -2.414000
C          18.830000    -11.807000     -0.779000
C          18.619000    -14.084000     -0.828000
C          20.619000     -9.589000     -2.875000
C          21.742000    -10.097000     -4.993000
C          22.354000    -15.591000     -4.503000
C          20.853000    -13.144000     -0.247000
C          17.814000    -15.141000     -4.607000
C          21.684000    -14.065000     -6.753000
C          19.994000    -16.237000     -4.612000
C          22.861000    -10.607000     -4.291000
C          23.641000    -13.951000     -3.704000
$end

--------------------------------------------------------------

             Standard Nuclear Orientation (Angstroms)
    I     Atom           X                Y                Z
 ----------------------------------------------------------------
    1      O       0.9727308208     5.4040830526     1.4120832660
    2      C       0.5998442019     4.8961150227     2.7122882691
    3      H       1.5131754302     4.4089136430     3.0771963163
    4      H      -0.1184980668     4.0668710547     2.6717564726
    5      H       0.2233830135     5.6225291858     3.4421207411
    6      O      -1.2073505783     5.8250107331     0.8136611899
    7      C      -0.0298881626     5.7765515091     0.5424049214
    8      C       0.4352686184     6.1884221738    -0.8432489765
    9      H       0.7586887951     7.2294211828    -0.7267609831
   10      H      -0.4395524892     6.2064580838    -1.5056225385
   11      C       1.5481996784     5.3194425704    -1.4569727779
   12      H       1.9109737055     5.6913084994    -2.4234114651
   13      H       2.4511803866     5.2987724720    -0.8340212648
   14      C       0.9556442328     3.9016327348    -1.6982678543
   15      H       0.5081830921     3.5484603477    -0.7608230332
   16      H       0.1539209403     3.8997434647    -2.4456219825
   17      C       2.1341731379     2.9627422290    -2.0793967536
   18      C       2.3168753184     2.8756259178    -3.6431079359
   19      C       3.3427779777     3.6542249411    -4.2529942325
   20      H       3.8437751312     4.4492204215    -3.7090419935
   21      C       3.5760528230     3.5415285681    -5.6435665514
   22      H       4.3204718212     4.1362331717    -6.1660412298
   23      C       2.7879039623     2.6193521606    -6.3855059336
   24      H       2.9296772274     2.4536444180    -7.4500425865
   25      C       1.8000146759     1.8584034431    -5.7620752582
   26      H       1.1101362597     1.3137128262    -6.3990508487
   27      C       1.6286331370     1.9188642721    -4.3895768588
   28      H       0.8320759283     1.3510619812    -3.9179634877
   29      C       4.0001053382    -2.1859029285    -1.9473283400
   30      C       6.0223952748    -0.9340719756    -2.3437481653
   31      C       7.7915427049    -1.4962075015     1.8174321986
   32      C       1.5332747447    -0.5648876015     2.1369590070
   33      C       6.7504860345     1.5629315448     3.0370773535
   34      C       4.6282449836    -1.0934210803    -2.5768400535
   35      C       3.4231487309     0.4041516917     3.9465418773
   36      C       6.6644985713    -3.1549232809     0.3695687782
   37      C       5.6505681175     2.6812199239    -0.6856878388
   38      C       1.7269303331     0.8171655944     2.2433379367
   39      C       3.3760979614     2.5987274194    -1.1945114779
   40      C       4.9903021564     3.1405991175     0.4464979309
   41      C       3.3512505518     2.4015072895     2.5556442291
   42      C       4.7975003356     0.5641529132     4.2965165561
   43      C       5.0318781552     1.1328965306    -2.3865503848
   44      C       6.7127400616    -0.7404601424     3.6791458677
   45      C       2.2715066936     1.6045282614    -1.3403167088
   46      C       1.5767239079     1.0396270634    -0.1720301356
   47      C       7.4092526505     0.2989468338     3.0916959964
   48      C       3.7633656437    -3.2298321158     2.3029177904
   49      C       6.0129849013    -2.9218854964     2.7033076944
   50      C       5.8303213865    -3.5094417703     1.4421353567
   51      C       6.1323970548    -2.9865713328    -0.9294564708
   52      C       1.4435099038    -0.3280248943    -0.2531421062
   53      C       4.7721858929     2.3355272289    -1.7030949491
   54      C       6.7683669653    -1.8436462946    -1.5338649668
   55      C       2.6663394805     1.3226771424     3.0926538547
   56      C       6.2858715358     0.4359254030    -2.2182713051
   57      C       5.5125995817     2.9396081666     1.7054161320
   58      C       2.0371215924    -2.4124292414     0.8541210426
   59      C       7.6098269228    -2.1167400400     0.5905186958
   60      C       3.6326353534     3.0839993735     0.2002331930
   61      C       3.9365556291    -3.4732384900    -0.1008350184
   62      C       4.7376408026     2.5974277815     2.8154253549
   63      C       6.9090959590     2.0264274185    -0.5257395751
   64      C       4.4496848051    -1.6168965838     4.0079711557
   65      C       3.2089227174    -0.9903919700     3.8893650397
   66      C       7.4963613719     1.8463368273     0.7834910058
   67      C       1.3808686003    -1.1529443877     0.8762776105
   68      C       1.7929234808     1.6394055633     1.1082981409
   69      C       2.5655667148    -2.6288968368     2.1787102366
   70      C       2.6786677763     0.3639099431    -2.0218004144
   71      C       7.9349898517     0.0133334073    -0.4369914885
   72      C       2.8107314889     2.5962109522     1.2360099516
   73      C       6.7744764291     2.3276517848     1.8574365542
   74      C       2.6581578300    -2.8819249047    -0.2578487474
   75      C       8.1057123456    -0.1690689630     1.9932210959
   76      C       4.7273050729    -3.0401449723    -1.0769806643
   77      C       6.9807717378    -1.9156911948     2.9333308812
   78      C       7.1759884156     0.8807960138    -1.2363471329
   79      C       8.1511877711     0.6317764543     0.8054338241
   80      C       3.9754833508     0.1582718406    -2.6433688631
   81      C       2.1678378032    -0.7109832975    -1.3488596591
   82      C       4.7099696428    -2.7269043187     3.2520613516
   83      C       7.6517231002    -1.3242999145    -0.5767127970
   84      C       5.4311234040     1.6919196494     3.6379719518
   85      C       2.3014901260    -1.4754581953     2.9518647203
   86      C       5.4491612332    -0.6373237479     4.2580210084
   87      C       2.7366911056    -1.9997564203    -1.3917404043
   88      C       4.4551840507    -3.7644225689     1.2026335821
   89      O       1.4863875498    -1.6521560732    -4.6815920753
   90      C       2.7116300302    -1.3947907190    -5.4552101585
   91      H       3.3775786557    -2.2665420590    -5.4189054830
   92      H       3.2906233418    -0.5926643552    -4.9813061159
   93      H       2.4418346958    -1.1549574467    -6.4913078754
   94      O       1.7476850828    -3.9703318255    -4.3566077975
   95      C       1.1386107324    -2.9625357718    -4.2763485304
   96      C      -0.3098166643    -2.9261714696    -3.7675197636
   97      H      -0.9445575275    -2.4245822004    -4.5076469430
   98      H      -0.3400385382    -2.2878306515    -2.8754947425
   99      C      -0.9923755140    -4.2205080930    -3.3955720226
  100      H      -1.1199138487    -4.7795508692    -4.3301709460
  101      H      -0.4897371352    -4.9030324094    -2.6992106095
  102      C      -2.4166806764    -4.0172553543    -2.9118901759
  103      H      -2.8563689164    -3.2295793672    -3.5350777809
  104      H      -3.0445687178    -4.8729914610    -3.1890423420
  105      C      -2.4632697176    -3.6273585980    -1.3499721305
  106      C      -1.9710277613    -4.6916264843    -0.4509366903
  107      C      -0.6910467277    -4.7015611609     0.1319585454
  108      H      -0.2256232765    -3.7203968541     0.1657611203
  109      C      -0.1589165944    -5.8413993125     0.7728466085
  110      H       0.8326992612    -5.8007946416     1.2141109914
  111      C      -1.0415080288    -6.9008144243     1.0837710058
  112      H      -0.6944218274    -7.6992206425     1.7324679147
  113      C      -2.3472726388    -6.9318772202     0.5489945236
  114      H      -2.8995981977    -7.8675659063     0.5278011360
  115      C      -2.8294100970    -5.8529647610    -0.2449484069
  116      H      -3.7763185091    -5.9551943208    -0.7668205906
  117      C      -5.8170169616    -2.1875347185     2.7609519285
  118      C      -3.6581960530    -1.0725820761     3.3145897971
  119      C      -5.0749160418     3.1423305836     2.3324707899
  120      C      -7.1052893277    -0.9922374923    -1.9443051156
  121      C      -3.5866455565     3.1893136877    -0.8280615309
  122      C      -4.3681395624    -2.2153920991     2.7830256291
  123      C      -6.3461384567     1.6167920385    -2.5758626054
  124      C      -6.2360061053     1.2618292267     3.4045297954
  125      C      -1.5810071670    -0.1655585651    -0.0428323811
  126      C      -6.0074869525    -0.8162226253    -2.7193784744
  127      C      -2.4774049199    -2.1567683742    -1.0042228142
  128      C      -1.9335964831     0.1664959492    -1.3736984802
  129      C      -4.1372770078     0.5273728915    -2.9783685327
  130      C      -5.6545320621     2.7066647891    -2.0639808003
  131      C      -2.4526824817    -1.7917824321     1.5798826525
  132      C      -5.7504665626     3.6372230209     0.2101845299
  133      C      -3.7149303334    -2.9730093667    -0.8214593243
  134      C      -4.9224039755    -2.6747858891    -1.6316544620
  135      C      -4.3725690255     3.6833503801     0.2377461664
  136      C      -8.4587012625     0.6280229282     0.7314662320
  137      C      -7.3833021046     2.4991064844     1.6312678639
  138      C      -7.3847577541     1.4531312739     2.5693039720
  139      C      -5.7998243554     0.0244319410     3.8057073600
  140      C      -6.0513458110    -2.7719964697    -0.8410177343
  141      C      -2.0364397146    -1.4715189778     0.2841761739
  142      C      -4.3993048287     0.0915303837     3.7762649680
  143      C      -5.5523749649     0.4910954213    -3.0048773429
  144      C      -2.4484731060    -0.8084331294     2.5959182966
  145      C      -2.3153960032     1.4405103523    -1.6671970784
  146      C      -7.9705325395    -1.5878798095     0.0556449873
  147      C      -5.0894357336     2.1553502816     3.3169712022
  148      C      -2.5882349274    -1.0118296723    -1.9402196510
  149      C      -7.5811843372    -0.9241572570     2.3564264525
  150      C      -3.4787221678     1.6295232710    -2.5068210128
  151      C      -1.6352535174     0.8587328872     0.9552960446
  152      C      -7.5965096807     2.3164079989    -0.8096397117
  153      C      -7.5407333258     1.3481738423    -1.8326927975
  154      C      -2.0472635803     2.1487643983     0.6783133586
  155      C      -7.1671791113    -2.0211534337    -1.0406593664
  156      C      -4.8798179629    -1.6563852210    -2.5377071705
  157      C      -8.3583267391    -0.2979842133    -0.2392143174
  158      C      -4.2671737162    -3.1390940753     0.5968471009
  159      C      -2.7719542867     1.5939418128     2.7794600166
  160      C      -3.7618938179    -0.7742518396    -2.6760664978
  161      C      -2.3793756577     2.4704627409    -0.6622703741
  162      C      -7.5896145650    -1.9390276815     1.3769230310
  163      C      -3.9531720682     3.4190874911     1.5900140088
  164      C      -6.4675021367    -1.0718639959     3.1935451273
  165      C      -6.2025197891     3.3092144305     1.5174072520
  166      C      -2.0536420815     0.5300257182     2.2361331172
  167      C      -2.7695764727     2.6557555939     1.7885155983
  168      C      -3.6063576338    -2.6064223293     1.7213233862
  169      C      -5.6662904444    -3.0798103599     0.4812840368
  170      C      -8.0212003576     1.9453688680     0.5068384660
  171      C      -3.9499602854     1.3944929126     3.5851311675
  172      C      -4.2379911563     2.6756636313    -1.9383432650
  173      C      -7.9241427565     0.0318762280    -1.5350238553
  174      C      -6.4133438907     3.1143447913    -0.9239270188
  175      C      -6.4429554766    -2.6871422245     1.5982747096
  176      C      -8.0736441974     0.3544781224     2.0723052588
 ----------------------------------------------------------------

    9   -5804.3001806351      8.64E-06 Convergence criterion met
 Total energy in the final basis set = -5804.3001806351

                    Orbital Energies (a.u.)
 --------------------------------------------------------------

 Alpha MOs
 -- Occupied --
-19.196 -19.185 -19.147 -19.136 -10.320 -10.317 -10.245 -10.245
-10.244 -10.241 -10.240 -10.238 -10.236 -10.232 -10.231 -10.231
-10.229 -10.228 -10.227 -10.227 -10.227 -10.226 -10.226 -10.225
-10.225 -10.224 -10.223 -10.223 -10.222 -10.222 -10.222 -10.222
-10.221 -10.221 -10.221 -10.221 -10.221 -10.221 -10.220 -10.220
-10.220 -10.220 -10.220 -10.220 -10.220 -10.219 -10.219 -10.219
-10.219 -10.219 -10.219 -10.219 -10.218 -10.218 -10.218 -10.218
-10.218 -10.218 -10.218 -10.218 -10.218 -10.218 -10.218 -10.217
-10.217 -10.217 -10.217 -10.217 -10.217 -10.217 -10.217 -10.216
-10.216 -10.216 -10.216 -10.216 -10.216 -10.216 -10.216 -10.216
-10.216 -10.216 -10.216 -10.216 -10.215 -10.215 -10.215 -10.215
-10.215 -10.215 -10.215 -10.215 -10.215 -10.214 -10.214 -10.214
-10.214 -10.214 -10.214 -10.214 -10.214 -10.214 -10.213 -10.213
-10.213 -10.213 -10.213 -10.213 -10.213 -10.213 -10.213 -10.212
-10.212 -10.212 -10.212 -10.212 -10.211 -10.211 -10.211 -10.210
-10.210 -10.210 -10.210 -10.209 -10.209 -10.209 -10.209 -10.208
-10.207 -10.207 -10.206 -10.206 -10.206 -10.206 -10.205 -10.205
-10.204 -10.203 -10.202 -10.201 -10.201 -10.201 -10.199 -10.198
-10.198 -10.198 -10.197 -10.187  -1.091  -1.086  -1.018  -1.014
 -0.985  -0.982  -0.968  -0.965  -0.963  -0.962  -0.961  -0.958
 -0.933  -0.932  -0.929  -0.926  -0.926  -0.924  -0.924  -0.923
 -0.920  -0.918  -0.895  -0.894  -0.890  -0.888  -0.887  -0.884
 -0.876  -0.871  -0.855  -0.846  -0.845  -0.844  -0.843  -0.838
 -0.837  -0.831  -0.823  -0.819  -0.807  -0.806  -0.801  -0.799
 -0.799  -0.796  -0.794  -0.793  -0.791  -0.789  -0.783  -0.781
 -0.775  -0.772  -0.771  -0.770  -0.770  -0.765  -0.761  -0.757
 -0.753  -0.745  -0.740  -0.736  -0.732  -0.729  -0.720  -0.718
 -0.717  -0.715  -0.715  -0.714  -0.713  -0.713  -0.710  -0.709
 -0.707  -0.705  -0.705  -0.704  -0.703  -0.694  -0.676  -0.671
 -0.663  -0.658  -0.658  -0.656  -0.647  -0.645  -0.636  -0.631
 -0.629  -0.626  -0.625  -0.622  -0.620  -0.619  -0.618  -0.618
 -0.617  -0.615  -0.615  -0.614  -0.612  -0.612  -0.610  -0.608
 -0.607  -0.605  -0.602  -0.600  -0.570  -0.566  -0.564  -0.564
 -0.562  -0.561  -0.558  -0.557  -0.554  -0.554  -0.553  -0.548
 -0.538  -0.535  -0.535  -0.532  -0.531  -0.528  -0.527  -0.526
 -0.523  -0.523  -0.521  -0.520  -0.519  -0.514  -0.514  -0.511
 -0.511  -0.503  -0.500  -0.499  -0.494  -0.493  -0.490  -0.487
 -0.486  -0.484  -0.483  -0.480  -0.479  -0.477  -0.476  -0.474
 -0.473  -0.471  -0.470  -0.469  -0.469  -0.468  -0.467  -0.467
 -0.465  -0.465  -0.463  -0.461  -0.460  -0.459  -0.458  -0.457
 -0.456  -0.454  -0.453  -0.451  -0.448  -0.446  -0.446  -0.444
 -0.442  -0.442  -0.440  -0.439  -0.438  -0.437  -0.437  -0.434
 -0.432  -0.431  -0.431  -0.429  -0.428  -0.426  -0.426  -0.425
 -0.424  -0.423  -0.423  -0.422  -0.421  -0.421  -0.420  -0.419
 -0.418  -0.417  -0.417  -0.416  -0.414  -0.414  -0.413  -0.412
 -0.411  -0.411  -0.409  -0.409  -0.404  -0.403  -0.399  -0.397
 -0.397  -0.395  -0.393  -0.392  -0.391  -0.387  -0.384  -0.382
 -0.381  -0.380  -0.376  -0.375  -0.372  -0.371  -0.369  -0.367
 -0.365  -0.364  -0.363  -0.362  -0.361  -0.360  -0.359  -0.358
 -0.356  -0.356  -0.354  -0.354  -0.353  -0.353  -0.352  -0.351
 -0.351  -0.349  -0.348  -0.348  -0.347  -0.345  -0.345  -0.344
 -0.344  -0.343  -0.342  -0.342  -0.340  -0.339  -0.337  -0.335
 -0.334  -0.333  -0.332  -0.330  -0.328  -0.324  -0.323  -0.321
 -0.312  -0.305  -0.302  -0.300  -0.291  -0.285  -0.276  -0.273
 -0.273  -0.272  -0.271  -0.269  -0.267  -0.266  -0.265  -0.264
 -0.263  -0.262  -0.261  -0.260  -0.257  -0.256  -0.255  -0.251
 -0.250  -0.248  -0.245  -0.241  -0.225  -0.217  -0.216  -0.214
 -0.213  -0.209  -0.207  -0.205  -0.204  -0.202

          Ground-State Mulliken Net Atomic Charges

     Atom                 Charge (a.u.)
  ----------------------------------------
      1 O                    -0.472873
      2 C                    -0.096346
      3 H                     0.122321
      4 H                     0.128249
      5 H                     0.128092
      6 O                    -0.463541
      7 C                     0.604060
      8 C                    -0.258130
      9 H                     0.129220
     10 H                     0.134913
     11 C                    -0.186320
     12 H                     0.102217
     13 H                     0.122888
     14 C                    -0.194281
     15 H                     0.117973
     16 H                     0.121959
     17 C                     0.018120
     18 C                     0.059374
     19 C                    -0.104331
     20 H                     0.093774
     21 C                    -0.093669
     22 H                     0.094829
     23 C                    -0.087212
     24 H                     0.087720
     25 C                    -0.093986
     26 H                     0.095611
     27 C                    -0.096574
     28 H                     0.103491
     29 C                    -0.000058
     30 C                     0.001629
     31 C                     0.013093
     32 C                     0.008299
     33 C                    -0.026714
     34 C                    -0.011476
     35 C                    -0.006735
     36 C                    -0.010277
     37 C                     0.001367
     38 C                     0.004993
     39 C                    -0.086363
     40 C                     0.037168
     41 C                    -0.039609
     42 C                    -0.028175
     43 C                    -0.012522
     44 C                     0.023030
     45 C                    -0.084727
     46 C                     0.009116
     47 C                     0.006996
     48 C                     0.014966
     49 C                    -0.001901
     50 C                     0.009359
     51 C                    -0.040054
     52 C                     0.020001
     53 C                     0.027807
     54 C                    -0.002554
     55 C                     0.015939
     56 C                    -0.000458
     57 C                     0.014705
     58 C                    -0.004975
     59 C                     0.013509
     60 C                     0.009434
     61 C                     0.009383
     62 C                    -0.006925
     63 C                    -0.025909
     64 C                     0.008900
     65 C                    -0.008808
     66 C                    -0.000632
     67 C                     0.005610
     68 C                    -0.023416
     69 C                    -0.004407
     70 C                     0.051721
     71 C                     0.005410
     72 C                     0.034394
     73 C                     0.001929
     74 C                    -0.027921
     75 C                    -0.009644
     76 C                     0.057979
     77 C                    -0.027639
     78 C                     0.010450
     79 C                    -0.006279
     80 C                    -0.016635
     81 C                     0.028595
     82 C                    -0.003246
     83 C                     0.009723
     84 C                    -0.002608
     85 C                    -0.005019
     86 C                     0.022437
     87 C                    -0.024239
     88 C                    -0.023150
     89 O                    -0.509187
     90 C                    -0.092359
     91 H                     0.130023
     92 H                     0.136194
     93 H                     0.115571
     94 O                    -0.430006
     95 C                     0.607297
     96 C                    -0.260426
     97 H                     0.126875
     98 H                     0.129844
     99 C                    -0.171180
    100 H                     0.101751
    101 H                     0.126249
    102 C                    -0.195066
    103 H                     0.101737
    104 H                     0.109476
    105 C                     0.024752
    106 C                     0.076805
    107 C                    -0.108749
    108 H                     0.091349
    109 C                    -0.093920
    110 H                     0.096825
    111 C                    -0.087313
    112 H                     0.093050
    113 C                    -0.090726
    114 H                     0.094507
    115 C                    -0.107163
    116 H                     0.092287
    117 C                    -0.020432
    118 C                    -0.014855
    119 C                     0.032141
    120 C                     0.037051
    121 C                     0.027483
    122 C                    -0.009648
    123 C                    -0.002928
    124 C                     0.012437
    125 C                    -0.009408
    126 C                    -0.011138
    127 C                    -0.084087
    128 C                     0.006910
    129 C                     0.025950
    130 C                    -0.004078
    131 C                    -0.006534
    132 C                     0.008779
    133 C                    -0.118407
    134 C                     0.053829
    135 C                     0.004492
    136 C                     0.008977
    137 C                    -0.005609
    138 C                     0.010920
    139 C                    -0.023260
    140 C                     0.016229
    141 C                     0.048307
    142 C                     0.006696
    143 C                    -0.021873
    144 C                    -0.027896
    145 C                    -0.019970
    146 C                    -0.012409
    147 C                    -0.007645
    148 C                     0.010117
    149 C                     0.003465
    150 C                    -0.027317
    151 C                     0.018429
    152 C                    -0.006076
    153 C                    -0.015752
    154 C                     0.004678
    155 C                    -0.018945
    156 C                    -0.010241
    157 C                     0.033628
    158 C                     0.040586
    159 C                    -0.024119
    160 C                    -0.004789
    161 C                    -0.030338
    162 C                    -0.014471
    163 C                    -0.000110
    164 C                     0.037437
    165 C                    -0.015274
    166 C                     0.014660
    167 C                    -0.009259
    168 C                     0.028964
    169 C                     0.010864
    170 C                    -0.004375
    171 C                     0.000867
    172 C                     0.016254
    173 C                    -0.008939
    174 C                    -0.014278
    175 C                    -0.015864
    176 C                    -0.030733
  ----------------------------------------
  Sum of atomic charges =     0.000000

                    Cartesian Multipole Moments
 -----------------------------------------------------------------
    Charge (ESU x 10^10)
                 0.0000
    Dipole Moment (Debye)
         X       1.3080      Y       0.0911      Z      -2.4874
       Tot       2.8118
    Quadrupole Moments (Debye-Ang)
        XX    -823.4973     XY      24.8292     YY    -801.8167
        XZ       2.5922     YZ     -11.4908     ZZ    -791.4253

 Total job time:  910.55s(wall), 7810.60s(cpu)
        *  Thank you very much for using Q-Chem.  Have a nice day.  *
