 Q-Chem 4.4, Q-Chem, Inc., Pleasanton, CA (2016)
 Q-Chem 4.4.2 for Intel X86 Linux

User input:
--------------------------------------------------------------
$comment
SP
$end

$rem
MEM_STATIC 5000
MEM_TOTAL 20000
JOBTYPE SP
EXCHANGE B3LYP
BASIS 6-31g(d,p)
$end

$molecule
0 1
O          -9.211000     32.907000    -14.624000
C          -8.194000     33.558000    -15.409000
H          -7.176000     33.270000    -15.117000
H          -8.327000     34.647000    -15.403000
H          -8.390000     33.322000    -16.462000
O          -8.796000     34.085000    -12.661000
C          -9.373000     33.268000    -13.307000
C         -10.509000     32.453000    -12.632000
H         -11.434000     32.728000    -13.155000
H         -10.614000     32.930000    -11.650000
C         -10.315000     30.911000    -12.706000
H         -10.194000     30.608000    -13.754000
H          -9.440000     30.632000    -12.106000
C         -11.510000     30.319000    -12.010000
H         -11.488000     30.678000    -10.974000
H         -12.439000     30.557000    -12.542000
C         -11.375000     28.741000    -11.828000
C         -11.465000     27.985000    -13.151000
C         -10.346000     27.828000    -13.965000
H          -9.383000     28.245000    -13.686000
C         -10.417000     27.229000    -15.226000
H          -9.586000     27.171000    -15.922000
C         -11.600000     26.600000    -15.651000
H         -11.669000     25.980000    -16.540000
C         -12.754000     26.723000    -14.776000
H         -13.689000     26.294000    -15.125000
C         -12.714000     27.481000    -13.605000
H         -13.547000     27.577000    -12.915000
C         -13.062000     24.144000     -9.300000
C         -10.711000     23.794000     -9.711000
C          -9.292000     23.898000     -5.525000
C         -13.562000     28.467000     -6.736000
C          -8.100000     27.176000     -5.830000
C         -11.917000     24.343000    -10.097000
C         -11.340000     28.813000     -5.071000
C         -11.293000     22.954000     -6.448000
C          -8.577000     27.165000     -9.819000
C         -12.484000     29.284000     -7.111000
C         -10.528000     28.249000    -10.728000
C          -8.766000     28.324000     -9.126000
C         -10.256000     29.620000     -7.160000
C         -10.119000     28.149000     -4.726000
C         -10.216000     25.699000    -10.814000
C          -9.548000     25.822000     -4.353000
C         -11.999000     28.020000    -10.623000
C         -12.778000     28.583000     -9.446000
C          -8.454000     25.961000     -5.195000
C         -13.527000     25.319000     -5.153000
C         -11.507000     24.411000     -4.566000
C         -12.153000     23.537000     -5.487000
C         -11.726000     22.893000     -7.723000
C         -13.757000     27.623000     -8.975000
C          -9.633000     27.000000    -10.727000
C         -10.632000     22.949000     -8.588000
C         -11.377000     29.500000     -6.313000
C          -9.650000     24.594000    -10.118000
C          -8.323000     28.360000     -7.802000
C         -14.456000     26.376000     -7.101000
C          -9.887000     23.022000     -6.408000
C          -9.916000     29.017000     -9.538000
C         -13.748000     24.058000     -7.185000
C          -9.076000     28.978000     -6.840000
C          -8.050000     26.012000     -9.214000
C         -11.818000     26.776000     -4.142000
C         -12.387000     27.902000     -4.729000
C          -7.580000     26.061000     -7.884000
C         -14.135000     27.621000     -7.670000
C         -12.100000     29.277000     -8.420000
C         -14.069000     26.475000     -5.740000
C         -12.462000     26.630000    -10.592000
C          -8.425000     23.955000     -8.161000
C         -10.719000     29.557000     -8.506000
C          -7.693000     27.229000     -7.179000
C         -14.303000     25.190000     -7.817000
C          -8.234000     24.747000     -5.880000
C         -12.973000     23.392000     -8.112000
C         -10.095000     24.577000     -4.587000
C          -8.491000     24.711000     -9.333000
C          -7.777000     24.809000     -7.250000
C         -11.615000     25.536000    -10.809000
C         -13.547000     26.487000     -9.735000
C         -12.392000     25.490000     -4.326000
C          -9.468000     23.066000     -7.759000
C          -8.972000     28.286000     -5.609000
C         -13.514000     27.765000     -5.562000
C         -10.418000     26.889000     -4.176000
C         -13.846000     25.239000     -9.173000
C         -13.381000     24.124000     -5.802000
O         -12.028000      8.808000     -5.644000
C         -11.163000      7.819000     -6.294000
H         -11.736000      6.950000     -6.639000
H         -10.457000      7.481000     -5.526000
H         -10.534000      8.236000     -7.091000
O         -10.217000     10.160000     -5.351000
C         -11.394000      9.900000     -5.152000
C         -12.298000     10.724000     -4.183000
H         -12.060000     10.506000     -3.135000
H         -13.292000     10.324000     -4.418000
C         -12.290000     12.230000     -4.506000
H         -13.050000     12.817000     -3.977000
H         -11.325000     12.613000     -4.153000
C         -12.438000     12.610000     -6.045000
H         -11.808000     11.933000     -6.636000
H         -13.481000     12.463000     -6.351000
C         -12.049000     14.061000     -6.435000
C         -10.641000     14.450000     -6.064000
C          -9.598000     13.857000     -6.819000
H          -9.863000     13.158000     -7.606000
C          -8.255000     14.108000     -6.500000
H          -7.485000     13.575000     -7.051000
C          -7.915000     14.899000     -5.438000
H          -6.870000     15.019000     -5.168000
C          -9.001000     15.484000     -4.685000
H          -8.766000     16.069000     -3.801000
C         -10.345000     15.227000     -5.014000
H         -11.107000     15.708000     -4.408000
C         -13.657000     19.407000     -6.374000
C         -12.416000     19.221000     -8.477000
C         -15.962000     19.449000    -11.308000
C         -17.307000     15.934000     -6.329000
C         -16.180000     16.107000    -11.817000
C         -12.634000     18.844000     -7.178000
C         -18.161000     15.443000     -8.887000
C         -15.428000     20.651000     -9.231000
C         -12.548000     15.445000     -9.949000
C         -16.848000     14.794000     -6.978000
C         -12.701000     14.728000     -7.649000
C         -13.640000     14.558000     -9.813000
C         -16.243000     14.022000     -8.959000
C         -17.966000     15.787000    -10.225000
C         -11.826000     17.013000     -8.226000
C         -17.628000     17.952000    -11.222000
C         -13.148000     15.193000     -6.307000
C         -14.601000     15.048000     -6.015000
C         -16.535000     17.431000    -11.985000
C         -18.029000     19.168000     -7.335000
C         -17.669000     19.694000     -9.553000
C         -16.782000     20.444000     -8.741000
C         -14.370000     20.586000     -8.357000
C         -15.062000     16.239000     -5.420000
C         -12.043000     15.681000     -8.621000
C         -13.279000     20.114000     -9.080000
C         -17.284000     14.529000     -8.234000
C         -11.966000     18.092000     -9.164000
C         -14.718000     14.664000    -10.719000
C         -16.743000     18.020000     -5.619000
C         -15.057000     20.157000    -10.482000
C         -13.785000     14.113000     -8.507000
C         -15.807000     20.029000     -6.572000
C         -15.983000     14.364000    -10.290000
C         -12.677000     16.568000    -10.883000
C         -18.769000     17.646000     -9.081000
C         -18.593000     16.576000     -8.186000
C         -13.766000     16.611000    -11.741000
C         -16.377000     16.655000     -5.541000
C         -15.540000     14.389000     -6.839000
C         -17.878000     18.093000     -6.468000
C         -12.975000     16.643000     -6.163000
C         -13.249000     18.732000    -11.085000
C         -15.123000     13.829000     -8.084000
C         -14.860000     15.680000    -11.700000
C         -15.726000     18.987000     -5.633000
C         -15.522000     18.313000    -12.064000
C         -14.496000     20.325000     -7.028000
C         -17.320000     19.215000    -10.813000
C         -12.321000     17.863000    -10.497000
C         -14.142000     17.936000    -11.946000
C         -12.218000     17.489000     -6.987000
C         -14.051000     17.200000     -5.484000
C         -18.408000     18.934000     -8.677000
C         -13.730000     19.856000    -10.385000
C         -16.891000     15.231000    -10.949000
C         -18.201000     16.840000     -6.873000
C         -18.353000     17.134000    -10.348000
C         -14.395000     18.571000     -5.573000
C         -16.979000     20.105000     -7.394000
$end

--------------------------------------------------------------

             Standard Nuclear Orientation (Angstroms)
    I     Atom           X                Y                Z
 ----------------------------------------------------------------
    1      O     -12.6087723807    -2.7629326844    -3.1748519767
    2      C     -13.5989274871    -2.7044089788    -4.2191138410
    3      H     -13.5093617969    -1.8081453834    -4.8461876441
    4      H     -14.6109690697    -2.8165296703    -3.8106450104
    5      H     -13.5033638493    -3.6204623780    -4.8146260248
    6      O     -13.5057913670    -1.0425185676    -1.8907919294
    7      C     -12.6973024085    -1.8863104892    -2.1190347760
    8      C     -11.5408345645    -2.1014678717    -1.1058045818
    9      H     -11.6780275276    -3.1104381160    -0.6960044635
   10      H     -11.8096917011    -1.4430539639    -0.2708884385
   11      C     -10.1200617569    -1.9883560482    -1.7298929926
   12      H     -10.0327042566    -2.6906971434    -2.5688445127
   13      H      -9.9546147899    -0.9540678391    -2.0559929798
   14      C      -9.1601904524    -2.2324266039    -0.5976467108
   15      H      -9.3362751882    -1.4467455218     0.1469071173
   16      H      -9.2624990835    -3.2498110423    -0.2011989228
   17      C      -7.6485055712    -1.9641207567    -1.0268946488
   18      C      -7.1241420980    -3.0000932148    -2.0177372266
   19      C      -7.3682660686    -2.8747044548    -3.3830529944
   20      H      -7.9438875309    -2.0433313815    -3.7787520533
   21      C      -6.9884154965    -3.8556947549    -4.3035607750
   22      H      -7.2411559807    -3.8331254824    -5.3590009086
   23      C      -6.1831478983    -4.9358606938    -3.9028855453
   24      H      -5.7214786252    -5.6345719013    -4.5943666592
   25      C      -5.8881554137    -5.0373352256    -2.4833249254
   26      H      -5.3191985401    -5.9027642133    -2.1556242339
   27      C      -6.4282765335    -4.1488185088    -1.5526196984
   28      H      -6.2124984092    -4.1782465373    -0.4887687726
   29      C      -2.4301481202    -1.0425204946     0.4859042377
   30      C      -2.7066719185     0.2007531025    -1.5626140931
   31      C      -2.4349003976     4.2849182736     0.1085256662
   32      C      -6.0297026530     0.4454591486     3.7017320855
   33      C      -5.9032182751     4.7494325440    -0.0105146349
   34      C      -3.0186579823    -0.8968300452    -0.7862063845
   35      C      -6.5966604326     3.1501117312     3.2628263054
   36      C      -1.2218757694     2.3007647348     0.6905668893
   37      C      -6.4489121695     1.4297655367    -2.2063744060
   38      C      -7.1245602052     0.8486098256     2.9213767357
   39      C      -7.1888934443    -0.5656005623    -1.0755871387
   40      C      -7.4003229818     1.7968277775    -1.3012038268
   41      C      -7.9696910119     2.2655179766     1.3859920246
   42      C      -6.1847663183     4.2297352650     2.4169431788
   43      C      -4.8312515632    -0.3569200889    -2.0781923556
   44      C      -4.0240314829     4.9484480244     1.5834109714
   45      C      -6.6119077049    -1.4461379011    -0.0177362742
   46      C      -6.7748506845    -1.0855982889     1.4494378032
   47      C      -4.5507650468     5.0283480686     0.3022830561
   48      C      -2.7560239402     1.7463957786     3.7889649351
   49      C      -2.2544795681     3.5396164107     2.4539570673
   50      C      -1.4213577692     2.4447687109     2.0842956243
   51      C      -1.2763654777     1.0570520035     0.1738033905
   52      C      -5.5497706965    -1.3475352361     2.1791295591
   53      C      -6.1984260838     0.0564272082    -2.0721225674
   54      C      -1.7273882983     1.1218498593    -1.1455057671
   55      C      -7.4540933459     2.1711472710     2.6950769022
   56      C      -3.7866531210     0.5690788779    -2.3559278554
   57      C      -7.3159955828     3.0847139316    -0.7675755442
   58      C      -3.8799066577    -0.3603678217     3.5179875007
   59      C      -1.6052989121     3.2522536987    -0.2741690565
   60      C      -7.8676153786     0.7125393561    -0.5406451933
   61      C      -1.8358136352     0.1035852160     2.2982025630
   62      C      -7.5735851228     3.2987848436     0.5599026189
   63      C      -5.3644979463     2.2628569714    -2.5275713147
   64      C      -4.3785621793     3.5913453995     3.6181388282
   65      C      -5.4243838471     2.7449717074     3.9732650208
   66      C      -5.2978680353     3.5726437439    -2.0058241866
   67      C      -5.2424606693    -0.6120100240     3.2793459967
   68      C      -7.4252988707     0.1142513931     1.8117552021
   69      C      -3.8368396587     0.9169424655     4.1332229547
   70      C      -5.1674459065    -1.6893539077    -0.0602343574
   71      C      -3.1303160722     2.8657249303    -2.1730793158
   72      C      -8.0271932146     0.9486439992     0.8450757424
   73      C      -6.2734639781     3.9984099045    -1.1450374925
   74      C      -2.8981400895    -0.7676771298     2.6163808608
   75      C      -3.5524655900     4.6891509439    -0.6356745683
   76      C      -1.5314537658    -0.0683667010     0.9635461997
   77      C      -2.7434117388     4.4464270502     1.4739668650
   78      C      -4.0354864418     1.9186253203    -2.6559301526
   79      C      -3.9464013272     3.9548865763    -1.8168872813
   80      C      -4.3508723947    -1.2673360282    -1.1168528360
   81      C      -4.6364521929    -1.7519304630     1.2228294956
   82      C      -3.0440512605     3.1103884219     3.5482174916
   83      C      -1.9700257120     2.5078449234    -1.4211337189
   84      C      -6.7286815384     4.3135841848     1.0711376238
   85      C      -5.1717960047     1.3807939146     4.2141079810
   86      C      -4.8160938900     4.4819047744     2.6234554605
   87      C      -3.2772765474    -1.4910388203     1.4403751588
   88      C      -1.7528191635     1.3852348627     2.9324108102
   89      O      12.6409202171     2.8050145611    -2.2867769859
   90      C      13.2803492351     2.9096442054    -3.6017025231
   91      H      14.1880449377     2.2967617843    -3.6562795283
   92      H      13.5694716479     3.9611891242    -3.7164435974
   93      H      12.6021403443     2.7106642772    -4.4414517051
   94      O      10.9754877616     4.1785600066    -3.0169698685
   95      C      11.5299474865     3.5627492897    -2.1192607984
   96      C      11.1109778294     3.6774054641    -0.6204374639
   97      H      11.4400207320     4.6294888539    -0.1871477373
   98      H      11.6848207858     2.8583860354    -0.1696909312
   99      C       9.6116976520     3.3986497517    -0.4039121708
  100      H       9.3130939490     3.2825788136     0.6445978987
  101      H       9.0805659280     4.2880299180    -0.7636690490
  102      C       9.0245472346     2.1311999408    -1.1678823039
  103      H       9.4290982864     2.1176032833    -2.1880115003
  104      H       9.3553571920     1.2196792674    -0.6552529699
  105      C       7.4787390617     2.0535843221    -1.2830990918
  106      C       6.8424855501     3.2472411832    -1.9477725206
  107      C       7.0436785937     3.3789384159    -3.3448051609
  108      H       7.6434054725     2.6305458443    -3.8531664791
  109      C       6.5460284179     4.4944360263    -4.0350372839
  110      H       6.7868876698     4.5990363488    -5.0893785917
  111      C       5.8867354154     5.4968817111    -3.3796287198
  112      H       5.5753273156     6.3833068848    -3.9242390454
  113      C       5.7028134264     5.3356588383    -1.9552657439
  114      H       5.2354924488     6.1405377844    -1.3960815291
  115      C       6.2047747852     4.2121285089    -1.2723745423
  116      H       6.0210967542     4.1556378692    -0.2035844841
  117      C       2.7365291973     0.8998460493     1.4278849730
  118      C       2.2766434014     0.1345167112    -0.8524794845
  119      C       2.4046026794    -4.3338066319    -0.0410770412
  120      C       6.9163592525    -1.3693018124     3.0910875138
  121      C       5.5731681299    -4.7706416571    -1.1568445559
  122      C       2.9054031921     0.9806693321     0.0225867232
  123      C       7.1569477300    -3.8449445997     1.9391018481
  124      C       1.4761259440    -2.4499749001     1.2368110439
  125      C       5.6804169293    -0.9600435273    -2.7652386580
  126      C       7.7945128076    -1.5264299271     2.0254238289
  127      C       6.7872817772     0.6924593459    -1.3971807416
  128      C       6.8056716828    -1.5506518917    -2.1466010423
  129      C       8.0636586617    -2.6016172775     0.1128594063
  130      C       6.5586169794    -4.7347073028     1.0463938078
  131      C       4.2985451374     0.7705418517    -1.7434061879
  132      C       4.2388268051    -5.3225657626     0.7847184771
  133      C       6.6691113215     1.3979970840    -0.0913284362
  134      C       7.1926687422     0.6679711352     1.0962942906
  135      C       4.3581178197    -5.1660073083    -0.6328562491
  136      C       3.8154227078    -2.6887102137     3.8882261568
  137      C       2.8574890181    -4.1383478973     2.3694392618
  138      C       2.0693111479    -2.9640836555     2.4615920453
  139      C       1.4399465540    -1.0947596679     1.0142178582
  140      C       6.2570729062     0.7817098071     2.1435530677
  141      C       5.5593890413     0.3661823060    -2.2168024362
  142      C       1.5194175439    -0.9106829063    -0.3625879043
  143      C       7.9394200416    -2.7522991070     1.4649743243
  144      C       3.1399846859    -0.0574599312    -1.9327094578
  145      C       6.8018291059    -2.9442231951    -1.9183462350
  146      C       4.9052612108    -0.5199668212     3.7296066909
  147      C       1.6548600586    -3.1360403530     0.0351262638
  148      C       7.4839069342    -0.6494610703    -1.3388027710
  149      C       2.6041455650    -0.6778177389     3.0222624520
  150      C       7.4533927566    -3.4433712763    -0.8226355058
  151      C       4.4778097072    -1.7789922380    -2.9474058306
  152      C       5.1535216460    -4.4496891969     2.8777588133
  153      C       6.2879517864    -3.6307042660     3.0164416874
  154      C       4.5449129904    -3.1419093435    -2.6986326148
  155      C       6.1420299296    -0.1841137595     3.1288814149
  156      C       7.9036376601    -0.5519308638     1.0596840387
  157      C       4.9557446120    -1.9071109105     4.0256433469
  158      C       5.2633992176     1.5810949244     0.2876354956
  159      C       2.5021078927    -2.3650797257    -2.0507521647
  160      C       8.1360029679    -1.2014937180    -0.1899512929
  161      C       5.6969305231    -3.8042540622    -2.1514278286
  162      C       3.7410445091     0.1112027947     3.2650656406
  163      C       3.2654359598    -4.5841705389    -1.1599675531
  164      C       1.9412740147    -0.1687103782     1.8752297571
  165      C       3.0254265403    -4.8460460770     1.1820883133
  166      C       3.2188025033    -1.2891541682    -2.5900313410
  167      C       3.3275754779    -3.5789796609    -2.1827984183
  168      C       4.1399118120     1.4342582537    -0.5393808536
  169      C       5.0916397911     1.3714131423     1.6498389494
  170      C       3.9030756629    -3.9428119513     3.2409960654
  171      C       1.6528951716    -2.1835239011    -0.9414225307
  172      C       6.7221305354    -4.5596284582    -0.3434075144
  173      C       6.1636949597    -2.3907336282     3.6444242178
  174      C       5.3364354858    -5.1177836601     1.6284864990
  175      C       3.8421981090     1.0415521759     2.2294812751
  176      C       2.6648154211    -2.0689848552     3.3628754626
 ----------------------------------------------------------------

    9   -5804.2801276421      8.19E-06 Convergence criterion met
 Total energy in the final basis set = -5804.2801276421

                    Orbital Energies (a.u.)
 --------------------------------------------------------------

 Alpha MOs
 -- Occupied --
-19.203 -19.197 -19.140 -19.139 -10.322 -10.316 -10.251 -10.249
-10.245 -10.242 -10.241 -10.240 -10.237 -10.235 -10.229 -10.227
-10.226 -10.226 -10.225 -10.224 -10.224 -10.221 -10.221 -10.220
-10.218 -10.218 -10.218 -10.218 -10.218 -10.217 -10.217 -10.216
-10.216 -10.216 -10.216 -10.216 -10.216 -10.215 -10.215 -10.215
-10.215 -10.214 -10.214 -10.214 -10.214 -10.214 -10.214 -10.213
-10.213 -10.213 -10.213 -10.213 -10.213 -10.213 -10.213 -10.212
-10.212 -10.212 -10.212 -10.212 -10.212 -10.212 -10.212 -10.212
-10.212 -10.212 -10.212 -10.212 -10.212 -10.212 -10.212 -10.211
-10.211 -10.211 -10.211 -10.211 -10.211 -10.211 -10.211 -10.211
-10.211 -10.211 -10.211 -10.210 -10.210 -10.210 -10.210 -10.210
-10.210 -10.210 -10.210 -10.210 -10.210 -10.210 -10.210 -10.209
-10.209 -10.209 -10.209 -10.209 -10.209 -10.208 -10.208 -10.208
-10.208 -10.208 -10.207 -10.207 -10.207 -10.207 -10.207 -10.207
-10.207 -10.207 -10.206 -10.206 -10.206 -10.206 -10.206 -10.206
-10.205 -10.205 -10.205 -10.205 -10.205 -10.205 -10.204 -10.204
-10.204 -10.204 -10.204 -10.203 -10.203 -10.203 -10.202 -10.202
-10.200 -10.200 -10.200 -10.200 -10.199 -10.199 -10.198 -10.198
-10.196 -10.194 -10.191 -10.191  -1.099  -1.095  -1.027  -1.012
 -0.981  -0.981  -0.964  -0.963  -0.962  -0.962  -0.960  -0.958
 -0.933  -0.933  -0.926  -0.925  -0.924  -0.923  -0.922  -0.920
 -0.919  -0.918  -0.896  -0.894  -0.888  -0.887  -0.885  -0.884
 -0.875  -0.872  -0.852  -0.851  -0.841  -0.838  -0.837  -0.837
 -0.834  -0.834  -0.820  -0.819  -0.807  -0.801  -0.797  -0.795
 -0.794  -0.794  -0.792  -0.791  -0.789  -0.788  -0.783  -0.780
 -0.769  -0.768  -0.766  -0.766  -0.765  -0.764  -0.763  -0.759
 -0.749  -0.749  -0.741  -0.737  -0.733  -0.731  -0.715  -0.714
 -0.712  -0.712  -0.711  -0.710  -0.709  -0.708  -0.707  -0.706
 -0.705  -0.704  -0.704  -0.702  -0.699  -0.698  -0.673  -0.670
 -0.658  -0.658  -0.655  -0.654  -0.646  -0.644  -0.631  -0.630
 -0.625  -0.623  -0.622  -0.621  -0.619  -0.619  -0.617  -0.615
 -0.614  -0.611  -0.611  -0.611  -0.610  -0.608  -0.607  -0.607
 -0.605  -0.604  -0.600  -0.600  -0.569  -0.567  -0.562  -0.561
 -0.561  -0.560  -0.557  -0.555  -0.553  -0.553  -0.552  -0.551
 -0.536  -0.534  -0.532  -0.531  -0.527  -0.525  -0.522  -0.521
 -0.519  -0.519  -0.517  -0.516  -0.514  -0.513  -0.512  -0.510
 -0.505  -0.505  -0.498  -0.496  -0.493  -0.490  -0.485  -0.484
 -0.483  -0.482  -0.482  -0.481  -0.479  -0.479  -0.477  -0.477
 -0.472  -0.471  -0.470  -0.469  -0.467  -0.466  -0.465  -0.464
 -0.463  -0.463  -0.461  -0.461  -0.459  -0.459  -0.458  -0.457
 -0.455  -0.453  -0.452  -0.451  -0.448  -0.447  -0.445  -0.443
 -0.441  -0.440  -0.437  -0.436  -0.436  -0.434  -0.433  -0.429
 -0.428  -0.426  -0.426  -0.426  -0.425  -0.424  -0.422  -0.422
 -0.421  -0.419  -0.419  -0.418  -0.417  -0.417  -0.416  -0.416
 -0.415  -0.415  -0.413  -0.413  -0.413  -0.412  -0.411  -0.411
 -0.411  -0.410  -0.409  -0.408  -0.402  -0.397  -0.396  -0.395
 -0.394  -0.392  -0.388  -0.386  -0.385  -0.383  -0.383  -0.382
 -0.380  -0.377  -0.376  -0.375  -0.369  -0.368  -0.368  -0.364
 -0.363  -0.362  -0.361  -0.360  -0.359  -0.359  -0.357  -0.356
 -0.355  -0.355  -0.355  -0.353  -0.353  -0.352  -0.352  -0.350
 -0.349  -0.348  -0.347  -0.346  -0.345  -0.345  -0.343  -0.343
 -0.342  -0.341  -0.338  -0.338  -0.334  -0.334  -0.333  -0.332
 -0.332  -0.330  -0.329  -0.327  -0.326  -0.325  -0.323  -0.323
 -0.315  -0.307  -0.307  -0.304  -0.288  -0.285  -0.271  -0.269
 -0.269  -0.268  -0.266  -0.265  -0.265  -0.264  -0.262  -0.261
 -0.260  -0.260  -0.259  -0.257  -0.255  -0.254  -0.253  -0.252
 -0.246  -0.245  -0.244  -0.241  -0.220  -0.217  -0.210  -0.208
 -0.207  -0.204  -0.203  -0.201  -0.200  -0.195

          Ground-State Mulliken Net Atomic Charges

     Atom                 Charge (a.u.)
  ----------------------------------------
      1 O                    -0.467551
      2 C                    -0.089988
      3 H                     0.129714
      4 H                     0.128848
      5 H                     0.123857
      6 O                    -0.442997
      7 C                     0.582262
      8 C                    -0.256116
      9 H                     0.120508
     10 H                     0.132479
     11 C                    -0.183496
     12 H                     0.131382
     13 H                     0.110526
     14 C                    -0.164551
     15 H                     0.111324
     16 H                     0.111903
     17 C                    -0.010053
     18 C                     0.083145
     19 C                    -0.104717
     20 H                     0.089962
     21 C                    -0.092562
     22 H                     0.090895
     23 C                    -0.085762
     24 H                     0.096737
     25 C                    -0.100209
     26 H                     0.090012
     27 C                    -0.097271
     28 H                     0.093950
     29 C                    -0.008270
     30 C                     0.023595
     31 C                     0.015200
     32 C                    -0.003587
     33 C                    -0.007509
     34 C                    -0.001788
     35 C                    -0.030534
     36 C                     0.030425
     37 C                     0.019766
     38 C                     0.025389
     39 C                    -0.078103
     40 C                     0.026274
     41 C                    -0.021399
     42 C                    -0.014225
     43 C                     0.000491
     44 C                     0.000921
     45 C                    -0.087747
     46 C                    -0.015648
     47 C                     0.012124
     48 C                     0.021391
     49 C                    -0.007319
     50 C                    -0.021011
     51 C                     0.022894
     52 C                    -0.012785
     53 C                     0.005137
     54 C                    -0.032895
     55 C                     0.001451
     56 C                    -0.011523
     57 C                     0.001550
     58 C                    -0.017661
     59 C                    -0.018321
     60 C                     0.012664
     61 C                    -0.006960
     62 C                     0.021852
     63 C                     0.031031
     64 C                     0.008858
     65 C                     0.002178
     66 C                    -0.002182
     67 C                     0.019761
     68 C                     0.025824
     69 C                    -0.009348
     70 C                     0.043347
     71 C                     0.027293
     72 C                    -0.020096
     73 C                    -0.016179
     74 C                    -0.002811
     75 C                    -0.017485
     76 C                     0.002622
     77 C                     0.012050
     78 C                    -0.025635
     79 C                    -0.028566
     80 C                    -0.013697
     81 C                     0.038722
     82 C                    -0.026824
     83 C                    -0.012331
     84 C                    -0.018733
     85 C                     0.001319
     86 C                     0.018944
     87 C                    -0.016345
     88 C                     0.001478
     89 O                    -0.456945
     90 C                    -0.093193
     91 H                     0.128272
     92 H                     0.130243
     93 H                     0.139072
     94 O                    -0.472734
     95 C                     0.591736
     96 C                    -0.259701
     97 H                     0.138719
     98 H                     0.124335
     99 C                    -0.186979
    100 H                     0.107052
    101 H                     0.129801
    102 C                    -0.187580
    103 H                     0.120690
    104 H                     0.107635
    105 C                     0.003723
    106 C                     0.106638
    107 C                    -0.090493
    108 H                     0.090737
    109 C                    -0.083391
    110 H                     0.089893
    111 C                    -0.076123
    112 H                     0.093737
    113 C                    -0.111593
    114 H                     0.087861
    115 C                    -0.105816
    116 H                     0.092652
    117 C                    -0.013537
    118 C                     0.029762
    119 C                    -0.031993
    120 C                    -0.024458
    121 C                     0.015869
    122 C                    -0.009691
    123 C                    -0.003076
    124 C                    -0.010877
    125 C                    -0.032047
    126 C                     0.029044
    127 C                    -0.089391
    128 C                     0.023353
    129 C                     0.001676
    130 C                     0.012122
    131 C                     0.015557
    132 C                     0.001584
    133 C                    -0.095696
    134 C                     0.030781
    135 C                     0.018319
    136 C                    -0.015847
    137 C                     0.030163
    138 C                    -0.040600
    139 C                     0.041801
    140 C                    -0.017994
    141 C                     0.021188
    142 C                    -0.024036
    143 C                    -0.003069
    144 C                    -0.003662
    145 C                     0.017278
    146 C                    -0.005042
    147 C                     0.026334
    148 C                     0.068767
    149 C                    -0.001139
    150 C                    -0.004741
    151 C                     0.005710
    152 C                    -0.020473
    153 C                     0.001744
    154 C                    -0.001640
    155 C                    -0.002030
    156 C                    -0.001646
    157 C                     0.013201
    158 C                     0.046984
    159 C                    -0.017244
    160 C                    -0.065350
    161 C                    -0.019486
    162 C                    -0.013701
    163 C                     0.006626
    164 C                    -0.013273
    165 C                     0.000974
    166 C                    -0.005783
    167 C                    -0.011030
    168 C                    -0.021106
    169 C                     0.011781
    170 C                     0.006797
    171 C                    -0.003080
    172 C                    -0.031496
    173 C                     0.012664
    174 C                    -0.011307
    175 C                     0.010312
    176 C                     0.007645
  ----------------------------------------
  Sum of atomic charges =     0.000000

                    Cartesian Multipole Moments
 -----------------------------------------------------------------
    Charge (ESU x 10^10)
                 0.0000
    Dipole Moment (Debye)
         X       2.1601      Y      -1.4180      Z      -3.2558
       Tot       4.1565
    Quadrupole Moments (Debye-Ang)
        XX    -751.7917     XY      48.7871     YY    -797.2592
        XZ      13.2448     YZ       8.9214     ZZ    -790.6661

 Total job time:  838.05s(wall), 7109.27s(cpu)
        *  Thank you very much for using Q-Chem.  Have a nice day.  *
