 Q-Chem 4.4, Q-Chem, Inc., Pleasanton, CA (2016)
 Q-Chem 4.4.2 for Intel X86 Linux

User input:
--------------------------------------------------------------
$comment
SP
$end

$rem
MEM_STATIC 5000
MEM_TOTAL 20000
JOBTYPE SP
EXCHANGE B3LYP
BASIS 6-31g(d,p)
$end

$molecule
0 1
O          11.716000    -20.367000    -12.496000
C          11.272000    -19.219000    -13.282000
H          10.177000    -19.154000    -13.310000
H          11.621000    -19.243000    -14.322000
H          11.596000    -18.285000    -12.808000
O          10.053000    -21.683000    -13.276000
C          10.999000    -21.514000    -12.637000
C          11.672000    -22.606000    -11.858000
H          12.700000    -22.646000    -12.239000
H          11.149000    -23.549000    -12.063000
C          11.551000    -22.377000    -10.389000
H          11.653000    -21.323000    -10.105000
H          10.500000    -22.570000    -10.143000
C          12.612000    -23.192000     -9.637000
H          12.472000    -24.243000     -9.919000
H          13.592000    -22.830000     -9.970000
C          12.570000    -22.954000     -8.073000
C          11.794000    -21.758000     -7.607000
C          10.386000    -21.808000     -7.483000
H           9.898000    -22.773000     -7.382000
C           9.680000    -20.672000     -7.152000
H           8.608000    -20.746000     -6.994000
C          10.387000    -19.508000     -6.842000
H           9.760000    -18.637000     -6.675000
C          11.769000    -19.413000     -7.103000
H          12.263000    -18.460000     -6.938000
C          12.452000    -20.520000     -7.501000
H          13.518000    -20.452000     -7.701000
C          15.521000    -22.843000     -3.376000
C          13.502000    -23.775000     -2.684000
C          14.951000    -27.907000     -1.961000
C          17.366000    -25.551000     -7.191000
C          13.678000    -29.175000     -4.929000
C          14.138000    -22.891000     -3.460000
C          16.512000    -28.133000     -6.881000
C          15.975000    -25.741000     -1.406000
C          11.625000    -25.713000     -5.524000
C          16.277000    -25.976000     -7.938000
C          12.591000    -24.174000     -7.126000
C          12.129000    -26.501000     -6.594000
C          14.477000    -27.397000     -7.827000
C          15.810000    -28.974000     -6.043000
C          12.429000    -23.647000     -4.640000
C          15.720000    -29.125000     -3.658000
C          13.814000    -23.289000     -7.207000
C          15.081000    -23.922000     -7.680000
C          14.302000    -29.157000     -3.694000
C          18.482000    -26.080000     -3.952000
C          17.271000    -27.440000     -2.635000
C          17.210000    -26.153000     -2.027000
C          15.517000    -24.461000     -1.622000
C          16.167000    -23.441000     -6.855000
C          11.924000    -24.349000     -5.786000
C          14.107000    -24.558000     -1.744000
C          15.845000    -27.328000     -7.735000
C          12.389000    -24.206000     -3.408000
C          12.554000    -27.843000     -6.398000
C          18.022000    -24.241000     -5.424000
C          14.873000    -26.657000     -1.374000
C          12.810000    -25.605000     -7.474000
C          17.377000    -24.097000     -3.094000
C          13.721000    -28.289000     -7.010000
C          11.588000    -26.317000     -4.267000
C          17.588000    -28.194000     -4.891000
C          17.676000    -27.660000     -6.206000
C          11.924000    -27.696000     -4.025000
C          17.344000    -24.219000     -6.657000
C          15.138000    -25.221000     -8.189000
C          18.512000    -25.559000     -5.255000
C          14.236000    -22.598000     -5.889000
C          12.630000    -26.379000     -2.193000
C          13.961000    -26.099000     -8.058000
C          12.515000    -28.397000     -5.107000
C          17.410000    -23.538000     -4.380000
C          13.841000    -28.380000     -2.626000
C          16.223000    -23.638000     -2.434000
C          16.143000    -28.309000     -2.562000
C          11.975000    -25.570000     -3.176000
C          12.645000    -27.677000     -2.757000
C          13.541000    -22.751000     -4.689000
C          15.633000    -22.670000     -5.787000
C          18.045000    -27.412000     -3.791000
C          13.713000    -25.878000     -1.456000
C          14.422000    -29.092000     -6.142000
C          18.070000    -26.352000     -6.352000
C          16.490000    -29.036000     -4.826000
C          16.265000    -22.805000     -4.565000
C          17.942000    -25.358000     -2.893000
O          17.710000    -11.322000    -12.088000
C          18.796000    -11.588000    -13.060000
H          18.456000    -11.379000    -14.082000
H          19.081000    -12.637000    -12.912000
H          19.644000    -10.941000    -12.804000
O          18.948000    -11.860000    -10.229000
C          17.884000    -11.660000    -10.773000
C          16.603000    -11.463000    -10.012000
H          15.821000    -11.201000    -10.735000
H          16.820000    -10.676000     -9.279000
C          16.263000    -12.792000     -9.341000
H          17.172000    -13.334000     -9.051000
H          15.637000    -12.591000     -8.463000
C          15.482000    -13.655000    -10.344000
H          14.537000    -13.120000    -10.503000
H          16.022000    -13.685000    -11.298000
C          15.133000    -15.039000     -9.864000
C          13.918000    -15.096000     -8.900000
C          12.601000    -15.235000     -9.401000
H          12.361000    -15.456000    -10.437000
C          11.552000    -15.356000     -8.461000
H          10.500000    -15.417000     -8.723000
C          11.765000    -15.413000     -7.099000
H          10.870000    -15.518000     -6.492000
C          13.072000    -15.278000     -6.589000
H          13.241000    -15.297000     -5.516000
C          14.129000    -15.041000     -7.474000
H          15.163000    -15.034000     -7.141000
C          17.530000    -19.598000     -7.884000
C          15.614000    -20.376000     -9.061000
C          17.964000    -22.030000    -12.650000
C          20.351000    -16.535000    -10.879000
C          17.430000    -19.427000    -14.687000
C          16.199000    -19.463000     -8.197000
C          20.108000    -17.394000    -13.520000
C          18.476000    -22.165000    -10.324000
C          14.643000    -17.907000    -12.163000
C          19.501000    -15.859000    -11.798000
C          15.437000    -16.167000    -10.817000
C          15.437000    -17.069000    -13.020000
C          18.029000    -16.092000    -13.506000
C          19.583000    -18.343000    -14.400000
C          14.728000    -18.333000     -9.699000
C          19.250000    -20.771000    -14.020000
C          16.336000    -15.900000     -9.666000
C          17.813000    -15.692000    -10.034000
C          17.894000    -20.695000    -14.336000
C          21.164000    -19.929000    -10.470000
C          20.212000    -21.497000    -11.852000
C          19.845000    -21.825000    -10.524000
C          17.765000    -21.589000     -9.230000
C          18.639000    -16.408000     -9.124000
C          14.714000    -17.435000    -10.817000
C          16.394000    -21.465000     -9.512000
C          19.394000    -16.225000    -13.133000
C          14.727000    -19.740000     -9.987000
C          16.183000    -17.626000    -14.059000
C          20.536000    -18.012000     -9.089000
C          17.573000    -22.248000    -11.352000
C          15.998000    -16.062000    -12.201000
C          19.633000    -20.214000     -8.657000
C          17.426000    -17.137000    -14.305000
C          14.594000    -19.253000    -12.428000
C          20.954000    -19.426000    -12.861000
C          21.009000    -18.028000    -12.626000
C          15.395000    -19.770000    -13.447000
C          19.923000    -16.808000     -9.537000
C          18.225000    -15.419000    -11.354000
C          21.168000    -18.522000    -10.223000
C          16.539000    -17.030000     -8.648000
C          15.458000    -21.236000    -11.737000
C          17.296000    -15.563000    -12.438000
C          16.161000    -19.020000    -14.287000
C          19.640000    -18.859000     -8.344000
C          17.090000    -21.524000    -13.531000
C          18.317000    -20.661000     -8.361000
C          19.285000    -21.640000    -12.942000
C          14.634000    -20.200000    -11.371000
C          15.852000    -21.043000    -13.063000
C          15.658000    -18.170000     -8.608000
C          17.870000    -17.197000     -8.242000
C          21.046000    -20.362000    -11.821000
C          16.316000    -21.874000    -10.860000
C          18.167000    -18.256000    -14.666000
C          21.150000    -17.624000    -11.282000
C          20.113000    -19.609000    -13.965000
C          18.375000    -18.480000     -7.951000
C          20.417000    -20.848000     -9.684000
$end

--------------------------------------------------------------

             Standard Nuclear Orientation (Angstroms)
    I     Atom           X                Y                Z
 ----------------------------------------------------------------
    1      O       2.1868426390    -3.3601387405     4.2204032520
    2      C       3.4529643796    -4.0497201303     4.4533179248
    3      H       3.2895725078    -5.0727544699     4.8148947991
    4      H       4.0937510166    -3.5458531510     5.1878160889
    5      H       3.9999482596    -4.1697893266     3.5107681791
    6      O       1.2247546054    -4.2785961828     6.0470525183
    7      C       1.1991068377    -3.5796290033     5.1291281892
    8      C       0.0299756298    -2.6990742108     4.7974815762
    9      H       0.4297655813    -1.6776520708     4.7772378950
   10      H      -0.7178395742    -2.8035587052     5.5941360879
   11      C      -0.6408458685    -3.1401253208     3.5402960546
   12      H       0.0622248803    -3.4751575710     2.7686608341
   13      H      -1.1554407129    -4.0757384367     3.7896677523
   14      C      -1.4916821316    -1.9992412555     2.9659170833
   15      H      -2.2015040531    -1.7004808179     3.7473388904
   16      H      -0.8080727660    -1.1751476966     2.7295253712
   17      C      -2.1922015592    -2.3870857440     1.6008701301
   18      C      -1.6636293302    -3.6093093918     0.9105595092
   19      C      -2.0705956477    -4.9034580303     1.3104316362
   20      H      -3.0011000769    -5.0194193926     1.8584138163
   21      C      -1.4990565426    -6.0170754429     0.7345042887
   22      H      -1.8734479535    -7.0001201270     1.0048341251
   23      C      -0.5951299397    -5.8413541066    -0.3156784138
   24      H      -0.1260745295    -6.7591711712    -0.6581077613
   25      C      -0.0804827850    -4.5642393970    -0.6176491486
   26      H       0.6917477859    -4.4832292677    -1.3769694396
   27      C      -0.5959469848    -3.4709110556     0.0062673496
   28      H      -0.2039354215    -2.4841297265    -0.2251836016
   29      C      -4.1287430432    -0.5115879732    -3.2483407534
   30      C      -5.6891644829    -2.1431235975    -2.6764793741
   31      C      -9.0904949661     0.5567692823    -1.7614474720
   32      C      -3.7510968491     2.8011768366     0.5165611932
   33      C      -8.6984639910     0.3470716652     1.6794413120
   34      C      -4.4115763164    -1.7485075764    -2.6896957546
   35      C      -6.1678862711     2.8984969238     1.7978877285
   36      C      -7.4576627580     0.6199952926    -3.5993861140
   37      C      -6.0317727194    -2.6862865933     1.1877367891
   38      C      -3.8991654159     2.0817245173     1.6934295205
   39      C      -3.6958483646    -2.0865532710     1.4154610764
   40      C      -5.9514403034    -1.7592144326     2.2619546031
   41      C      -5.4763125545     0.9255238818     2.8964960165
   42      C      -7.4600183859     2.4173762697     1.7625817220
   43      C      -4.7106948029    -2.8441029942    -0.7936958043
   44      C      -8.9441349207     1.9877964054    -0.0627909116
   45      C      -2.6853919544    -1.2709618876     0.6413141018
   46      C      -2.6568282674     0.1993704622     0.9001845263
   47      C      -9.2486379118     0.7049146363     0.4611712004
   48      C      -5.7639948193     3.4704239688    -2.2251112959
   49      C      -7.8480164806     2.6293155780    -2.2257362453
   50      C      -7.1759419023     2.0060625552    -3.3164357597
   51      C      -6.4104274517    -0.2260880750    -3.8861981577
   52      C      -2.5086476805     0.8827075566    -0.3657044614
   53      C      -4.7317762398    -2.8606952582     0.6417223472
   54      C      -6.7166640605    -1.4636706061    -3.2641036167
   55      C      -5.1843856560     2.1397530446     2.3263423301
   56      C      -5.8600552931    -2.8862924851    -1.5072050969
   57      C      -7.0438735473    -0.9176313832     2.6059496300
   58      C      -3.5627323989     2.6320513631    -1.7648069069
   59      C      -8.4397147948    -0.0651727712    -2.8116028180
   60      C      -4.5961432066    -1.3101506478     2.3118394363
   61      C      -4.8973997241     1.5961504918    -3.5000975211
   62      C      -6.8087267236     0.4168375827     2.9209854221
   63      C      -7.2305277267    -2.7136777897     0.4746658565
   64      C      -7.1113888697     3.5722988737    -0.1456633459
   65      C      -5.9250707237     3.6815179204     0.6307678851
   66      C      -8.3972210669    -1.9480992672     0.8293730256
   67      C      -2.9931405734     2.2098959946    -0.5491560536
   68      C      -3.3951406616     0.8066203335     1.9179631871
   69      C      -4.6070624966     3.5291246615    -1.4325131447
   70      C      -2.7875752295    -1.3554797800    -0.8998232393
   71      C      -8.2293590460    -2.0848412508    -1.5248302307
   72      C      -4.4184873727     0.0222695840     2.6327564514
   73      C      -8.2222916484    -0.9706444243     1.8419873295
   74      C      -3.7190739261     1.6410125322    -2.7405570606
   75      C      -9.3275522288    -0.1784099924    -0.6206717323
   76      C      -5.1464822627     0.2608258055    -3.8646011168
   77      C      -8.8211382528     1.8964194241    -1.4849452869
   78      C      -7.1674080668    -2.8123034383    -0.8980496603
   79      C      -8.9447300131    -1.5072115787    -0.4488593476
   80      C      -3.7329192707    -2.1396760186    -1.5614839553
   81      C      -2.6077585999    -0.0654007247    -1.4199761118
   82      C      -7.0106220949     3.5237137060    -1.5661768230
   83      C      -8.0162308941    -1.3966631839    -2.7281782017
   84      C      -7.7913476609     1.2036843715     2.3687515725
   85      C      -4.7151388553     3.5949355601    -0.0142006169
   86      C      -8.0521093315     2.8585101127     0.5784524027
   87      C      -3.2710905790     0.3572399897    -2.5567691941
   88      C      -5.8984261491     2.5360296626    -3.2464831666
   89      O      10.4444687223    -1.1990369076    -2.4913606992
   90      C      11.0092075179     0.0567350906    -1.9445126570
   91      H      11.6805022557    -0.1585096740    -1.1037998248
   92      H      10.1482589410     0.6721537923    -1.6554497411
   93      H      11.5604923525     0.5576333236    -2.7497672698
   94      O       9.2281060579    -0.1822829831    -4.1540820607
   95      C       9.4699531430    -1.1387710153    -3.4507523856
   96      C       8.9279157157    -2.5129305334    -3.7278300755
   97      H       9.3796944001    -3.2030429214    -3.0049622368
   98      H       9.1889236984    -2.7216399082    -4.7728478887
   99      C       7.4166413697    -2.4576358861    -3.5155228615
  100      H       7.0121795842    -1.4769874267    -3.7963862859
  101      H       6.9500659628    -3.2522146368    -4.1105968053
  102      C       7.1281350937    -2.6932752420    -2.0248930542
  103      H       7.4455586273    -3.7264697381    -1.8344135705
  104      H       7.7559553257    -2.0265478247    -1.4216250315
  105      C       5.6787186935    -2.5942053445    -1.6286175766
  106      C       4.8333414464    -3.8502565992    -1.9698543797
  107      C       4.7268541977    -4.9235565011    -1.0525219502
  108      H       5.0837768829    -4.8893912832    -0.0272532368
  109      C       3.8789325603    -6.0002013249    -1.3996628730
  110      H       3.7559180150    -6.8988798733    -0.8027430389
  111      C       3.1105379083    -6.0135929174    -2.5455478253
  112      H       2.4956208588    -6.8987077639    -2.6831985817
  113      C       3.2066469486    -4.9495348179    -3.4648505030
  114      H       2.6222349398    -4.9683463036    -4.3804703652
  115      C       4.1178800357    -3.9167191163    -3.2207419460
  116      H       4.1539490631    -3.0269964072    -3.8429850868
  117      C       1.4278406947     0.9177368044    -1.8449242636
  118      C       1.0657794272    -0.3602640282     0.1292323944
  119      C       2.2642402875     2.9968417190     3.0331383103
  120      C       6.1574960527     2.9027676515    -1.8518329912
  121      C       5.3784823098     1.9097383681     3.6074526242
  122      C       1.4312110498    -0.2990417882    -1.2068071134
  123      C       6.9091434698     3.4349108168     0.7794520204
  124      C       0.9532035047     3.1235340996     1.0442248897
  125      C       4.5811914747    -1.6204245819     1.7769822282
  126      C       7.0360110285     2.0337336031    -1.1468306791
  127      C       5.3793854495    -1.7474355437    -0.4176718662
  128      C       5.9010543170    -1.0506441310     1.7979897325
  129      C       7.5021989677     1.0554696422     0.8441503424
  130      C       6.5366467718     3.4444161199     2.1254764849
  131      C       2.8698737007    -1.8034625569    -0.0390259150
  132      C       4.3133167015     3.9521462417     3.0998924753
  133      C       5.1334346770    -1.2131872969    -1.7808952625
  134      C       5.8186851992     0.1282507434    -2.0828765630
  135      C       4.2659892117     2.7342582254     3.7772969987
  136      C       3.3882813046     4.8056266654    -0.8232109749
  137      C       2.7143862657     4.7316558070     1.3711558560
  138      C       1.6263582721     4.2899478620     0.5793565276
  139      C       0.6463688502     2.0791585858     0.1226689875
  140      C       4.9082379854     0.9912389836    -2.7532265971
  141      C       4.2142724695    -1.9524586386     0.4373312181
  142      C       0.6150377751     0.8244484196     0.7545406219
  143      C       7.4737757563     2.2926056604     0.1450583645
  144      C       1.9084912319    -1.2476034561     0.8716652559
  145      C       6.1994409113     0.0097065496     2.6540901206
  146      C       4.0079946138     3.3046085431    -2.6505954477
  147      C       1.2758983151     2.4984360185     2.2207462233
  148      C       6.3618517426    -1.0378138994     0.4611905263
  149      C       1.8155283586     3.1991703463    -1.6343221053
  150      C       6.9909189950     1.0144795665     2.1972754671
  151      C       3.6454234732    -1.1344973345     2.6559332835
  152      C       5.0935529326     4.8339140098     0.9389577176
  153      C       6.0890232133     4.3397558521     0.0571977528
  154      C       3.9760830762    -0.0415217080     3.4580052920
  155      C       5.0926216719     2.3828879800    -2.6608105436
  156      C       6.8677805327     0.6297518241    -1.2862783911
  157      C       4.3734106535     4.2594225660    -1.7017639033
  158      C       3.7000373049    -0.7902032129    -2.1285868478
  159      C       1.8547194775     0.2579248131     2.7598840539
  160      C       7.1678481945     0.0122738302    -0.0263127863
  161      C       5.2101825904     0.5315066325     3.5171061390
  162      C       2.7225597001     2.6633897279    -2.5422187263
  163      C       2.9805178458     2.1608108701     3.7973842650
  164      C       1.0139955733     2.1038545352    -1.2134783481
  165      C       3.0190570283     4.1166611194     2.6348153278
  166      C       2.3017723948    -0.9336830553     2.2437034875
  167      C       2.8395163215     0.7728278955     3.6059401938
  168      C       2.5812428861    -1.1931098887    -1.3141384093
  169      C       3.6186851721     0.4224761231    -2.8264956230
  170      C       3.7792431721     5.0813082132     0.5175956861
  171      C       1.0319144369     1.1276403310     2.0678408594
  172      C       6.4572535830     2.1591069590     2.7774412713
  173      C       5.6837039956     4.0968235020    -1.2717616916
  174      C       5.3923238614     4.3146007387     2.2041200228
  175      C       2.5366915299     1.3001202903    -2.6147753499
  176      C       2.0536823984     4.3201682300    -0.7636973881
 ----------------------------------------------------------------

    9   -5804.2929162711      8.81E-06 Convergence criterion met
 Total energy in the final basis set = -5804.2929162711

                    Orbital Energies (a.u.)
 --------------------------------------------------------------

 Alpha MOs
 -- Occupied --
-19.193 -19.192 -19.139 -19.136 -10.314 -10.308 -10.250 -10.247
-10.247 -10.246 -10.242 -10.241 -10.240 -10.239 -10.238 -10.236
-10.235 -10.234 -10.232 -10.231 -10.230 -10.229 -10.228 -10.228
-10.228 -10.228 -10.227 -10.226 -10.226 -10.226 -10.226 -10.225
-10.225 -10.224 -10.223 -10.223 -10.223 -10.223 -10.223 -10.223
-10.222 -10.222 -10.222 -10.221 -10.221 -10.221 -10.221 -10.221
-10.220 -10.220 -10.220 -10.219 -10.219 -10.219 -10.219 -10.219
-10.218 -10.218 -10.218 -10.218 -10.218 -10.218 -10.217 -10.217
-10.217 -10.217 -10.217 -10.217 -10.217 -10.217 -10.216 -10.216
-10.216 -10.216 -10.216 -10.216 -10.216 -10.215 -10.215 -10.215
-10.215 -10.215 -10.215 -10.214 -10.214 -10.214 -10.214 -10.214
-10.214 -10.213 -10.213 -10.213 -10.213 -10.212 -10.212 -10.212
-10.212 -10.212 -10.212 -10.212 -10.211 -10.211 -10.211 -10.211
-10.211 -10.211 -10.211 -10.210 -10.210 -10.210 -10.210 -10.209
-10.209 -10.209 -10.209 -10.209 -10.208 -10.208 -10.208 -10.208
-10.208 -10.208 -10.207 -10.207 -10.207 -10.207 -10.206 -10.206
-10.206 -10.206 -10.206 -10.205 -10.205 -10.203 -10.202 -10.202
-10.201 -10.201 -10.200 -10.200 -10.196 -10.196 -10.195 -10.195
-10.195 -10.192 -10.190 -10.189  -1.110  -1.087  -1.033  -1.010
 -0.988  -0.981  -0.970  -0.968  -0.966  -0.962  -0.959  -0.957
 -0.943  -0.930  -0.930  -0.929  -0.925  -0.925  -0.922  -0.921
 -0.920  -0.919  -0.899  -0.894  -0.894  -0.889  -0.885  -0.879
 -0.878  -0.871  -0.861  -0.853  -0.845  -0.842  -0.842  -0.840
 -0.839  -0.837  -0.825  -0.820  -0.812  -0.809  -0.800  -0.799
 -0.798  -0.796  -0.795  -0.793  -0.792  -0.790  -0.789  -0.784
 -0.776  -0.772  -0.771  -0.769  -0.769  -0.768  -0.764  -0.760
 -0.758  -0.757  -0.747  -0.739  -0.735  -0.728  -0.718  -0.717
 -0.716  -0.715  -0.714  -0.714  -0.713  -0.712  -0.710  -0.710
 -0.709  -0.707  -0.707  -0.706  -0.704  -0.701  -0.675  -0.670
 -0.662  -0.661  -0.660  -0.656  -0.649  -0.644  -0.635  -0.632
 -0.628  -0.627  -0.625  -0.624  -0.621  -0.621  -0.620  -0.619
 -0.618  -0.615  -0.615  -0.614  -0.613  -0.612  -0.611  -0.611
 -0.609  -0.606  -0.605  -0.601  -0.569  -0.568  -0.567  -0.563
 -0.562  -0.560  -0.558  -0.558  -0.557  -0.556  -0.554  -0.550
 -0.541  -0.536  -0.534  -0.533  -0.530  -0.530  -0.529  -0.524
 -0.523  -0.523  -0.522  -0.519  -0.519  -0.517  -0.514  -0.513
 -0.512  -0.508  -0.507  -0.498  -0.496  -0.493  -0.490  -0.489
 -0.486  -0.485  -0.483  -0.481  -0.480  -0.480  -0.479  -0.478
 -0.477  -0.474  -0.473  -0.471  -0.469  -0.468  -0.468  -0.467
 -0.466  -0.465  -0.465  -0.464  -0.462  -0.462  -0.460  -0.459
 -0.458  -0.456  -0.455  -0.450  -0.450  -0.448  -0.447  -0.446
 -0.445  -0.443  -0.441  -0.440  -0.439  -0.438  -0.437  -0.436
 -0.433  -0.433  -0.432  -0.432  -0.428  -0.428  -0.427  -0.426
 -0.425  -0.425  -0.423  -0.423  -0.421  -0.421  -0.420  -0.419
 -0.418  -0.417  -0.417  -0.417  -0.415  -0.414  -0.413  -0.412
 -0.411  -0.411  -0.410  -0.409  -0.405  -0.404  -0.401  -0.399
 -0.398  -0.396  -0.393  -0.393  -0.391  -0.390  -0.387  -0.386
 -0.379  -0.378  -0.377  -0.372  -0.371  -0.369  -0.368  -0.368
 -0.366  -0.366  -0.364  -0.363  -0.362  -0.361  -0.359  -0.359
 -0.359  -0.358  -0.357  -0.356  -0.355  -0.354  -0.354  -0.353
 -0.353  -0.352  -0.350  -0.348  -0.348  -0.346  -0.344  -0.344
 -0.344  -0.341  -0.340  -0.338  -0.338  -0.338  -0.337  -0.337
 -0.335  -0.333  -0.332  -0.332  -0.330  -0.329  -0.327  -0.326
 -0.315  -0.308  -0.305  -0.299  -0.289  -0.283  -0.275  -0.273
 -0.272  -0.271  -0.270  -0.270  -0.268  -0.267  -0.266  -0.265
 -0.264  -0.264  -0.263  -0.263  -0.260  -0.260  -0.258  -0.257
 -0.255  -0.248  -0.246  -0.244  -0.224  -0.216  -0.215  -0.213
 -0.211  -0.208  -0.208  -0.206  -0.205  -0.202

          Ground-State Mulliken Net Atomic Charges

     Atom                 Charge (a.u.)
  ----------------------------------------
      1 O                    -0.468605
      2 C                    -0.098889
      3 H                     0.132470
      4 H                     0.126139
      5 H                     0.119915
      6 O                    -0.426504
      7 C                     0.577992
      8 C                    -0.242909
      9 H                     0.119205
     10 H                     0.123239
     11 C                    -0.202125
     12 H                     0.132079
     13 H                     0.111585
     14 C                    -0.184856
     15 H                     0.114452
     16 H                     0.124145
     17 C                     0.008212
     18 C                     0.055475
     19 C                    -0.101650
     20 H                     0.094048
     21 C                    -0.090303
     22 H                     0.091162
     23 C                    -0.089380
     24 H                     0.080017
     25 C                    -0.100451
     26 H                     0.101810
     27 C                    -0.073574
     28 H                     0.089139
     29 C                    -0.042869
     30 C                     0.038980
     31 C                     0.013951
     32 C                     0.014868
     33 C                    -0.009533
     34 C                     0.007130
     35 C                    -0.003073
     36 C                    -0.002374
     37 C                     0.009898
     38 C                     0.008629
     39 C                    -0.075101
     40 C                    -0.006394
     41 C                     0.003000
     42 C                     0.019861
     43 C                     0.001876
     44 C                    -0.038279
     45 C                    -0.088487
     46 C                     0.051583
     47 C                     0.008101
     48 C                    -0.002264
     49 C                    -0.003300
     50 C                    -0.010281
     51 C                    -0.006036
     52 C                    -0.004444
     53 C                     0.005724
     54 C                     0.013641
     55 C                     0.005258
     56 C                    -0.021677
     57 C                     0.007407
     58 C                    -0.021892
     59 C                    -0.004229
     60 C                     0.046710
     61 C                    -0.009069
     62 C                    -0.011382
     63 C                     0.012710
     64 C                     0.009692
     65 C                    -0.040584
     66 C                    -0.035755
     67 C                    -0.027243
     68 C                    -0.035842
     69 C                    -0.013312
     70 C                     0.028870
     71 C                     0.000988
     72 C                    -0.030552
     73 C                     0.008201
     74 C                     0.019832
     75 C                     0.029093
     76 C                     0.002778
     77 C                     0.001994
     78 C                    -0.012348
     79 C                    -0.020065
     80 C                     0.001534
     81 C                    -0.004830
     82 C                    -0.003825
     83 C                    -0.019331
     84 C                    -0.005676
     85 C                     0.038373
     86 C                     0.005143
     87 C                     0.026918
     88 C                     0.013101
     89 O                    -0.481938
     90 C                    -0.091088
     91 H                     0.130094
     92 H                     0.133410
     93 H                     0.137104
     94 O                    -0.468425
     95 C                     0.598705
     96 C                    -0.243989
     97 H                     0.122394
     98 H                     0.135680
     99 C                    -0.193434
    100 H                     0.130737
    101 H                     0.102890
    102 C                    -0.197148
    103 H                     0.108113
    104 H                     0.114744
    105 C                     0.029734
    106 C                     0.065064
    107 C                    -0.106177
    108 H                     0.097753
    109 C                    -0.085420
    110 H                     0.089503
    111 C                    -0.076195
    112 H                     0.094002
    113 C                    -0.096951
    114 H                     0.099472
    115 C                    -0.100667
    116 H                     0.100047
    117 C                     0.010557
    118 C                     0.002263
    119 C                     0.036776
    120 C                     0.001334
    121 C                     0.024274
    122 C                     0.003082
    123 C                     0.020706
    124 C                     0.006642
    125 C                    -0.028540
    126 C                     0.007641
    127 C                    -0.104703
    128 C                    -0.001641
    129 C                    -0.035782
    130 C                    -0.042477
    131 C                    -0.006130
    132 C                    -0.013921
    133 C                    -0.062127
    134 C                     0.038005
    135 C                    -0.005570
    136 C                    -0.012552
    137 C                    -0.003172
    138 C                    -0.018825
    139 C                     0.003958
    140 C                     0.017636
    141 C                     0.057112
    142 C                    -0.011613
    143 C                    -0.007825
    144 C                    -0.010604
    145 C                    -0.015239
    146 C                    -0.053649
    147 C                     0.015371
    148 C                     0.052556
    149 C                     0.003203
    150 C                     0.024819
    151 C                     0.013427
    152 C                     0.029450
    153 C                    -0.008640
    154 C                     0.014681
    155 C                    -0.004893
    156 C                    -0.018331
    157 C                     0.045549
    158 C                     0.024606
    159 C                     0.002108
    160 C                    -0.016734
    161 C                    -0.013037
    162 C                     0.020980
    163 C                    -0.020040
    164 C                    -0.028112
    165 C                     0.006168
    166 C                     0.010910
    167 C                    -0.009327
    168 C                    -0.025867
    169 C                    -0.017886
    170 C                     0.000315
    171 C                    -0.009984
    172 C                    -0.000203
    173 C                    -0.009781
    174 C                    -0.015690
    175 C                     0.021402
    176 C                     0.001712
  ----------------------------------------
  Sum of atomic charges =     0.000000

                    Cartesian Multipole Moments
 -----------------------------------------------------------------
    Charge (ESU x 10^10)
                 0.0000
    Dipole Moment (Debye)
         X       4.5619      Y      -3.7702      Z      -0.0454
       Tot       5.9184
    Quadrupole Moments (Debye-Ang)
        XX    -806.9130     XY     -17.0074     YY    -792.3489
        XZ       8.9584     YZ      15.8911     ZZ    -827.8415

 Total job time:  877.86s(wall), 7537.56s(cpu)
        *  Thank you very much for using Q-Chem.  Have a nice day.  *
