 Q-Chem 4.4, Q-Chem, Inc., Pleasanton, CA (2016)
 Q-Chem 4.4.2 for Intel X86 Linux

User input:
--------------------------------------------------------------
$comment
SP
$end

$rem
MEM_STATIC 5000
MEM_TOTAL 20000
JOBTYPE SP
EXCHANGE B3LYP
BASIS 6-31g(d,p)
$end

$molecule
0 1
O          11.711000      9.004000      7.119000
C          11.495000      9.131000      8.543000
H          12.450000      9.446000      8.981000
H          11.216000      8.179000      9.011000
H          10.645000      9.810000      8.685000
O           9.635000      9.801000      6.632000
C          10.682000      9.287000      6.291000
C          10.988000      8.923000      4.801000
H          11.962000      8.424000      4.727000
H          11.136000      9.907000      4.338000
C           9.709000      8.211000      4.117000
H           9.759000      7.195000      4.525000
H           8.826000      8.758000      4.471000
C           9.908000      8.130000      2.614000
H          10.071000      9.166000      2.291000
H          10.878000      7.687000      2.359000
C           8.688000      7.548000      1.847000
C           7.455000      8.453000      1.828000
C           7.372000      9.466000      0.823000
H           8.079000      9.537000      0.001000
C           6.221000     10.286000      0.818000
H           6.169000     10.990000     -0.008000
C           5.119000     10.110000      1.701000
H           4.241000     10.740000      1.593000
C           5.205000      9.095000      2.641000
H           4.393000      8.939000      3.344000
C           6.376000      8.350000      2.715000
H           6.464000      7.698000      3.579000
C           5.492000      3.158000      1.139000
C           5.180000      4.370000     -0.956000
C           7.649000      1.405000     -3.418000
C          10.334000      2.364000      2.346000
C          10.664000      3.301000     -3.263000
C           5.394000      4.364000      0.472000
C          11.805000      1.945000     -0.085000
C           5.981000      1.013000     -1.686000
C           8.570000      6.395000     -1.736000
C          11.064000      3.409000      1.791000
C           8.913000      6.649000      0.616000
C           9.938000      6.218000     -1.433000
C          11.638000      4.421000     -0.118000
C          11.674000      1.956000     -1.472000
C           6.532000      6.104000     -0.384000
C           9.868000      0.998000     -2.854000
C           8.455000      6.078000      1.952000
C           9.368000      5.011000      2.444000
C           9.800000      2.197000     -3.557000
C           8.370000      0.020000      0.683000
C           8.136000     -0.103000     -1.535000
C           6.873000      0.129000     -0.988000
C           5.281000      1.937000     -0.896000
C           8.564000      3.985000      2.906000
C           7.870000      6.564000     -0.567000
C           5.169000      3.141000     -1.627000
C          11.739000      3.209000      0.581000
C           5.938000      5.373000     -1.477000
C          10.777000      5.295000     -2.173000
C           8.235000      1.518000      2.583000
C           6.390000      1.619000     -2.926000
C          10.146000      6.262000     -0.015000
C           6.260000      1.066000      1.152000
C          11.615000      4.392000     -1.515000
C           8.001000      5.686000     -2.795000
C          10.297000      0.248000     -0.604000
C          10.939000      0.891000      0.456000
C           8.748000      4.838000     -3.544000
C           9.011000      2.651000      2.830000
C          10.576000      4.713000      1.832000
C           9.007000      0.597000      1.816000
C           7.095000      5.419000      1.949000
C           6.613000      3.976000     -3.363000
C          10.955000      5.359000      0.664000
C          10.166000      4.625000     -3.247000
C           6.923000      1.732000      2.248000
C           8.468000      2.500000     -3.802000
C           5.376000      1.909000      0.502000
C           8.568000      0.509000     -2.758000
C           6.676000      5.206000     -2.710000
C           7.920000      3.736000     -3.869000
C           6.223000      5.489000      0.804000
C           7.217000      4.195000      2.651000
C           9.024000     -0.257000     -0.539000
C           5.827000      2.936000     -2.894000
C          11.546000      3.135000     -2.216000
C          10.282000      1.112000      1.675000
C          10.781000      0.931000     -1.763000
C           6.448000      3.048000      2.185000
C           6.988000      0.168000      0.403000
O          14.721000      0.455000     -1.766000
C          15.233000      1.071000     -0.523000
H          16.154000      1.665000     -0.568000
H          15.290000      0.346000      0.298000
H          14.522000      1.870000     -0.276000
O          14.869000      2.509000     -2.873000
C          14.544000      1.293000     -2.833000
C          14.139000      0.558000     -4.156000
H          14.983000     -0.135000     -4.255000
H          14.265000      1.384000     -4.867000
C          12.760000     -0.023000     -4.197000
H          12.538000     -0.487000     -3.228000
H          12.036000      0.764000     -4.441000
C          12.774000     -1.089000     -5.279000
H          13.416000     -0.817000     -6.126000
H          13.355000     -1.848000     -4.739000
C          11.432000     -1.679000     -5.738000
C          10.861000     -2.759000     -4.842000
C           9.807000     -2.508000     -3.981000
H           9.455000     -1.493000     -3.825000
C           9.190000     -3.498000     -3.202000
H           8.358000     -3.256000     -2.548000
C           9.618000     -4.863000     -3.323000
H           9.212000     -5.757000     -2.859000
C          10.678000     -5.135000     -4.230000
H          10.904000     -6.182000     -4.411000
C          11.316000     -4.103000     -4.982000
H          12.066000     -4.413000     -5.704000
C           8.606000     -3.517000    -10.099000
C           6.861000     -2.564000     -8.741000
C           6.091000      1.121000    -11.278000
C          12.332000     -0.009000    -10.960000
C           7.966000      3.341000     -9.242000
C           8.070000     -3.286000     -8.853000
C          11.065000      2.581000    -10.962000
C           6.502000     -1.197000    -11.972000
C           8.304000      0.437000     -6.501000
C          12.328000      0.753000     -9.748000
C          10.368000     -0.742000     -6.351000
C           9.229000      1.396000     -6.694000
C          11.195000      2.263000     -8.476000
C           9.824000      3.216000    -10.826000
C           8.203000     -1.934000     -6.985000
C           7.614000      2.684000    -11.603000
C          11.158000     -1.734000     -7.190000
C          11.967000     -1.122000     -8.361000
C           7.097000      2.925000    -10.315000
C           9.651000     -0.455000    -13.130000
C           7.691000      0.630000    -13.030000
C           7.425000     -0.742000    -12.888000
C           6.705000     -2.358000    -11.197000
C          11.846000     -1.893000     -9.503000
C           8.895000     -0.854000     -6.354000
C           6.254000     -2.096000     -9.908000
C          11.683000      2.018000     -9.789000
C           6.923000     -1.759000     -7.655000
C           9.043000      2.549000     -7.476000
C          11.242000     -1.836000    -11.880000
C           5.809000     -0.262000    -11.212000
C          10.469000      0.751000     -6.714000
C           8.884000     -2.575000    -12.147000
C           9.978000      2.964000     -8.335000
C           7.020000      0.622000     -7.056000
C           9.759000      1.901000    -12.634000
C          11.066000      1.769000    -12.115000
C           6.740000      1.789000     -7.794000
C          12.050000     -1.399000    -10.781000
C          12.140000      0.253000     -8.488000
C          10.937000     -0.680000    -12.625000
C          10.303000     -2.760000     -7.915000
C           5.666000      0.039000     -8.710000
C          11.404000      1.158000     -7.685000
C           7.796000      2.751000     -8.046000
C          10.178000     -2.746000    -11.590000
C           6.200000      1.927000    -10.104000
C           7.910000     -3.056000    -11.277000
C           7.009000      1.560000    -12.220000
C           6.331000     -0.478000     -7.593000
C           5.949000      1.401000     -8.811000
C           8.902000     -2.894000     -7.760000
C          10.793000     -2.851000     -9.250000
C           9.065000      0.799000    -13.190000
C           5.680000     -0.787000     -9.909000
C           9.315000      3.397000     -9.517000
C          11.613000      0.448000    -12.106000
C           9.016000      2.844000    -11.880000
C           9.973000     -3.290000    -10.288000
C           8.645000     -1.443000    -12.970000
$end

--------------------------------------------------------------

             Standard Nuclear Orientation (Angstroms)
    I     Atom           X                Y                Z
 ----------------------------------------------------------------
    1      O     -12.9980882448    -1.1617875025     2.7214768938
    2      C     -14.3164883325    -1.4769695080     2.2184435826
    3      H     -14.8313738856    -2.0363700918     3.0090495869
    4      H     -14.2833673481    -2.1182990989     1.3291920118
    5      H     -14.7809401271    -0.5333443938     1.9060957405
    6      O     -12.9902842154     0.8772758395     1.7093930117
    7      C     -12.4246756198    -0.0050275577     2.3244650659
    8      C     -10.9340122269     0.1182086077     2.7815946936
    9      H     -10.6121083129    -0.8084991506     3.2722509898
   10      H     -10.9894332293     0.8623810093     3.5863710285
   11      C     -10.0212452603     0.7086348003     1.5862309934
   12      H      -9.8981025090    -0.1620270093     0.9320109417
   13      H     -10.6105040201     1.5041576561     1.1128057089
   14      C      -8.6554387995     1.0954554109     2.1248528709
   15      H      -8.8584392656     1.8122702077     2.9305583741
   16      H      -8.2007910054     0.2774033837     2.6960448386
   17      C      -7.7299483154     1.7674013673     1.0725368558
   18      C      -8.1677217440     3.1673115298     0.6386233138
   19      C      -7.7645212423     4.2824132369     1.4367840359
   20      H      -7.0596694002     4.1919468822     2.2587169525
   21      C      -8.1726393235     5.5676873468     1.0140121183
   22      H      -7.7800037358     6.3872220825     1.6096597593
   23      C      -8.8897127119     5.8150982383    -0.1900072363
   24      H      -9.1114315785     6.8379075390    -0.4800932210
   25      C      -9.2346756096     4.7212972882    -0.9683523274
   26      H      -9.7966852052     4.8660809671    -1.8854520497
   27      C      -8.9224182962     3.4478135451    -0.5074005662
   28      H      -9.3723913010     2.6261195062    -1.0566611614
   29      C      -5.0937470864     1.1048322630    -3.6813273894
   30      C      -3.8299461209     2.9111795693    -2.6347952453
   31      C      -0.2061234374     0.2753224609    -1.7027027271
   32      C      -5.6790530496    -2.9601290761    -0.7375619027
   33      C      -1.1777524964    -0.4193100712     1.6562388646
   34      C      -5.0798726795     2.2318646115    -2.8822437979
   35      C      -3.3095031525    -3.2580870214     0.8579371878
   36      C      -1.5801816147     0.4157569009    -3.7096791330
   37      C      -4.0316524358     2.4186228125     1.3549199581
   38      C      -5.6702060790    -2.5095614989     0.5776797441
   39      C      -6.2155619707     1.4836245020     1.0896157883
   40      C      -4.1859721196     1.3164156289     2.2243374410
   41      C      -4.4568958201    -1.4707388468     2.1418494002
   42      C      -2.0963074346    -2.6435804891     1.1605737221
   43      C      -5.1267318183     3.0055630676    -0.7716574054
   44      C      -0.4634852501    -1.6207414793    -0.3811837406
   45      C      -7.1308803847     0.8848494395     0.0292565918
   46      C      -7.0394918803    -0.5997776058    -0.0113965465
   47      C      -0.4139723933    -0.5038734640     0.4474225069
   48      C      -3.1455454959    -2.6650282272    -3.1064130936
   49      C      -1.1393924972    -1.7615479366    -2.7210788098
   50      C      -1.7572916325    -1.0100086209    -3.7218741514
   51      C      -2.7280749633     1.1845139707    -3.9530501002
   52      C      -6.9770074421    -0.9554312114    -1.3463655378
   53      C      -5.1555595715     2.5353326118     0.5749625406
   54      C      -2.6571987586     2.3432614766    -3.1475677719
   55      C      -4.4960386357    -2.6158075641     1.3325092538
   56      C      -3.8305514996     3.3028198865    -1.3314796674
   57      C      -3.0796678126     0.4412037910     2.5613018587
   58      C      -5.5308169714    -2.2873601240    -2.9062237026
   59      C      -0.7669886037     1.0329660033    -2.6948456241
   60      C      -5.4509063878     0.6783879341     2.0034620058
   61      C      -4.0980944231    -0.7976725868    -4.2776562169
   62      C      -3.2136889482    -0.9479774107     2.5080954302
   63      C      -2.7753059008     2.7019939457     0.8171307940
   64      C      -2.0801690021    -3.2485184837    -1.1199101243
   65      C      -3.3046037182    -3.6230952045    -0.5634346924
   66      C      -1.6985308007     1.9391375971     1.1281285032
   67      C      -6.2687950463    -2.1096311157    -1.7354655036
   68      C      -6.3342489083    -1.3363329897     0.9281408488
   69      C      -4.4030893621    -3.1084911299    -2.6121347525
   70      C      -6.8444817819     1.3051770187    -1.3938353119
   71      C      -1.4941639894     2.6451298307    -1.0613552653
   72      C      -5.6040226287    -0.7003157413     1.9218373015
   73      C      -1.8294684254     0.7831906664     2.0174788458
   74      C      -5.3646811166    -1.1836771344    -3.7022436371
   75      C      -0.3696545860     0.6384968061    -0.3393964672
   76      C      -3.9436544912     0.5772479307    -4.2962808795
   77      C      -0.3435282262    -1.1613174967    -1.6899529779
   78      C      -2.6504504287     3.1875100504    -0.5026931424
   79      C      -0.9076524979     1.8447783166    -0.0428628872
   80      C      -5.8877888212     2.3384472475    -1.6994497965
   81      C      -6.8801420996     0.1375553995    -2.1946174896
   82      C      -1.9247747831    -2.8053092045    -2.4080084014
   83      C      -1.4308339962     2.2659688139    -2.3923636182
   84      C      -2.0024769734    -1.4866154360     1.9432541872
   85      C      -4.4962670002    -3.5175214464    -1.2950382762
   86      C      -1.3731995106    -2.6576196527    -0.0267227160
   87      C      -5.9425730549     0.0286720203    -3.3051284964
   88      C      -2.9980300172    -1.5821679709    -4.0096743232
   89      O      -1.0626972711    -5.4785563387     2.7474599695
   90      C      -2.4381761443    -5.8579303059     3.1357668875
   91      H      -2.6606993144    -6.0252460955     4.1967055593
   92      H      -2.8163567674    -6.6929048409     2.5335111759
   93      H      -3.0490140590    -4.9613278124     2.9686980080
   94      O      -1.0580176082    -3.7699194977     4.3433319087
   95      C      -0.5239729223    -4.3983133191     3.3915974506
   96      C       0.9805504086    -4.1368549465     3.0414145468
   97      H       1.4136508479    -5.1023502483     3.3288668587
   98      H       1.2178634892    -3.3915306726     3.8107306251
   99      C       1.2630569134    -3.6375380167     1.6587520144
  100      H       0.6250978269    -4.1753819835     0.9465209625
  101      H       1.0899191898    -2.5552991607     1.6155850457
  102      C       2.7209623470    -3.9562098418     1.3754923905
  103      H       3.3512461882    -3.8604911607     2.2683178009
  104      H       2.6172413148    -5.0406071464     1.2392336906
  105      C       3.3765222953    -3.3285513261     0.1361252367
  106      C       3.0873558638    -4.0324580923    -1.1738957705
  107      C       2.1883724888    -3.5194035959    -2.0925044877
  108      H       1.5628321725    -2.6707435323    -1.8337760412
  109      C       1.9586181026    -4.0892506599    -3.3535029990
  110      H       1.2507865475    -3.6450022345    -4.0464112368
  111      C       2.7207379237    -5.2352848503    -3.7619500737
  112      H       2.7272493280    -5.7553868344    -4.7152703387
  113      C       3.6702944696    -5.7489265203    -2.8374244651
  114      H       4.3303706720    -6.5297227253    -3.2044431202
  115      C       3.8568198063    -5.1743012771    -1.5441394506
  116      H       4.6550194905    -5.5866401131    -0.9336167659
  117      C       8.0276809274    -1.1260225430    -1.8383193281
  118      C       6.3441240494     0.1111224557    -3.0351929599
  119      C       6.8159627899     4.0420288182    -0.8139686642
  120      C       7.2017712739    -0.8017186730     3.2747190293
  121      C       4.0109398140     3.5789518328     1.3089366117
  122      C       6.8100384505    -1.1007223402    -2.4785378050
  123      C       5.9500848622     1.7490725416     3.7647581160
  124      C       8.5336737103     2.4808953764    -1.6114726270
  125      C       2.9804809246     0.3716404892    -0.8617428723
  126      C       5.7736339499    -0.7434028633     3.3561257245
  127      C       3.4500931035    -1.7899799593     0.0211492152
  128      C       2.7154323803     0.5037074673     0.4515973664
  129      C       3.9147195840     0.5131382534     2.9723096195
  130      C       5.5035858846     2.9135266650     3.1271945840
  131      C       4.5277075840    -0.9795078888    -2.1449364373
  132      C       6.3934981901     4.2514345257     1.3414421810
  133      C       4.6752222144    -2.6431956502     0.3095354950
  134      C       5.4331857076    -2.3019394857     1.6169381006
  135      C       5.1345378839     4.2555478894     0.7095276081
  136      C       9.2675243972     1.4193563050     1.5732293950
  137      C       8.6245114558     3.3571609288     0.6457205826
  138      C       9.1438883701     2.5476356207    -0.3781057681
  139      C       8.4055908987     1.2767402012    -2.3349089458
  140      C       6.8013439440    -2.3134094539     1.4138187267
  141      C       3.4749991401    -0.9292291518    -1.1791714655
  142      C       7.1371815671     1.2527312670    -2.9042307693
  143      C       5.1969791165     0.5341825207     3.5867244878
  144      C       5.0079292325     0.2041176827    -2.8423191693
  145      C       2.8538233699     1.6943225646     1.1856359376
  146      C       8.8544778088    -0.9936571912     1.6609812207
  147      C       7.4071283260     3.2639550941    -1.8346025793
  148      C       3.0645188024    -0.7106701657     1.0494691206
  149      C       9.3903430774     0.1060354465    -0.5026034244
  150      C       3.4330540356     1.7049528078     2.3892595639
  151      C       3.3546331249     1.5211051269    -1.5895115015
  152      C       7.7169849586     2.7514176921     2.8498874974
  153      C       7.3499010739     1.6366735559     3.6357812131
  154      C       3.4456882620     2.7642099774    -0.9327525711
  155      C       7.6967652355    -1.6271954594     2.2177260998
  156      C       4.8972371133    -1.4370188985     2.5663350050
  157      C       8.9563843060     0.2605484729     2.2942025233
  158      C       5.7817013988    -2.5180920391    -0.7245722852
  159      C       5.0587303784     2.6125024740    -2.4916342099
  160      C       3.7461465706    -0.6631248558     2.2806628621
  161      C       3.2339019732     2.8374228496     0.5003805153
  162      C       9.0080068628    -1.0410967606     0.2402510152
  163      C       5.4027996407     4.0726195877    -0.6094518710
  164      C       8.8318786566     0.0715233657    -1.7769124164
  165      C       7.4565435765     4.1109802673     0.4139201555
  166      C       4.3341192167     1.4199337272    -2.5912406783
  167      C       4.5083488467     3.3890080127    -1.4720983754
  168      C       5.6794279777    -1.7775608764    -1.9270429685
  169      C       7.0104176057    -2.3862084975    -0.0150166394
  170      C       8.7140420034     2.6592495330     1.8486091746
  171      C       6.5059499858     2.4997906090    -2.6053199328
  172      C       4.2547277559     2.8641877617     2.4614303262
  173      C       7.9792096057     0.3956445314     3.3069214676
  174      C       6.5908870188     3.5738775994     2.5943936014
  175      C       8.1151210384    -1.7694425946    -0.5996491281
  176      C       9.5736717362     1.3316297411     0.1903491193
 ----------------------------------------------------------------

   10   -5804.2727600543      2.96E-06 Convergence criterion met
 Total energy in the final basis set = -5804.2727600543

                    Orbital Energies (a.u.)
 --------------------------------------------------------------

 Alpha MOs
 -- Occupied --
-19.203 -19.197 -19.138 -19.132 -10.321 -10.318 -10.246 -10.246
-10.243 -10.243 -10.243 -10.239 -10.239 -10.239 -10.231 -10.230
-10.229 -10.227 -10.227 -10.227 -10.227 -10.227 -10.225 -10.224
-10.223 -10.223 -10.222 -10.222 -10.222 -10.222 -10.221 -10.221
-10.220 -10.220 -10.220 -10.220 -10.220 -10.219 -10.219 -10.219
-10.219 -10.219 -10.218 -10.218 -10.218 -10.218 -10.218 -10.218
-10.218 -10.218 -10.218 -10.218 -10.218 -10.217 -10.217 -10.217
-10.217 -10.217 -10.217 -10.217 -10.217 -10.216 -10.216 -10.216
-10.216 -10.216 -10.216 -10.216 -10.216 -10.216 -10.216 -10.216
-10.216 -10.215 -10.215 -10.215 -10.215 -10.215 -10.215 -10.215
-10.214 -10.214 -10.214 -10.214 -10.214 -10.214 -10.214 -10.214
-10.214 -10.214 -10.214 -10.214 -10.214 -10.214 -10.213 -10.213
-10.213 -10.213 -10.213 -10.213 -10.212 -10.212 -10.212 -10.212
-10.212 -10.212 -10.212 -10.212 -10.212 -10.211 -10.211 -10.211
-10.211 -10.210 -10.210 -10.210 -10.210 -10.210 -10.210 -10.210
-10.210 -10.209 -10.209 -10.209 -10.209 -10.209 -10.206 -10.206
-10.206 -10.205 -10.205 -10.204 -10.203 -10.203 -10.202 -10.202
-10.202 -10.202 -10.201 -10.201 -10.200 -10.199 -10.199 -10.199
-10.197 -10.197 -10.194 -10.193  -1.100  -1.082  -1.015  -0.991
 -0.984  -0.980  -0.967  -0.964  -0.963  -0.961  -0.960  -0.957
 -0.935  -0.932  -0.927  -0.926  -0.924  -0.924  -0.923  -0.922
 -0.921  -0.919  -0.896  -0.895  -0.889  -0.889  -0.888  -0.884
 -0.873  -0.872  -0.852  -0.847  -0.844  -0.842  -0.839  -0.838
 -0.834  -0.833  -0.822  -0.821  -0.810  -0.801  -0.799  -0.797
 -0.796  -0.795  -0.794  -0.793  -0.790  -0.790  -0.785  -0.779
 -0.774  -0.772  -0.769  -0.769  -0.767  -0.762  -0.760  -0.758
 -0.748  -0.745  -0.744  -0.739  -0.733  -0.732  -0.720  -0.717
 -0.713  -0.713  -0.712  -0.711  -0.711  -0.710  -0.709  -0.708
 -0.707  -0.706  -0.705  -0.702  -0.702  -0.701  -0.675  -0.671
 -0.662  -0.659  -0.654  -0.654  -0.648  -0.646  -0.631  -0.630
 -0.629  -0.625  -0.625  -0.623  -0.622  -0.620  -0.619  -0.616
 -0.615  -0.614  -0.613  -0.612  -0.611  -0.611  -0.608  -0.605
 -0.604  -0.602  -0.601  -0.600  -0.568  -0.566  -0.564  -0.564
 -0.562  -0.561  -0.561  -0.559  -0.557  -0.555  -0.553  -0.550
 -0.536  -0.534  -0.533  -0.532  -0.531  -0.528  -0.527  -0.526
 -0.523  -0.521  -0.520  -0.518  -0.516  -0.516  -0.513  -0.511
 -0.509  -0.506  -0.500  -0.494  -0.492  -0.491  -0.486  -0.485
 -0.484  -0.483  -0.482  -0.482  -0.477  -0.477  -0.475  -0.475
 -0.474  -0.473  -0.470  -0.469  -0.468  -0.467  -0.466  -0.465
 -0.464  -0.464  -0.463  -0.461  -0.460  -0.460  -0.458  -0.456
 -0.456  -0.455  -0.454  -0.452  -0.452  -0.447  -0.446  -0.444
 -0.443  -0.440  -0.440  -0.438  -0.437  -0.434  -0.433  -0.432
 -0.430  -0.430  -0.429  -0.428  -0.426  -0.425  -0.425  -0.424
 -0.423  -0.421  -0.420  -0.420  -0.420  -0.419  -0.418  -0.417
 -0.417  -0.416  -0.415  -0.415  -0.414  -0.413  -0.413  -0.412
 -0.410  -0.410  -0.408  -0.408  -0.403  -0.398  -0.397  -0.395
 -0.393  -0.392  -0.390  -0.389  -0.389  -0.387  -0.385  -0.383
 -0.382  -0.378  -0.374  -0.371  -0.370  -0.368  -0.367  -0.366
 -0.364  -0.364  -0.363  -0.362  -0.362  -0.359  -0.358  -0.358
 -0.357  -0.356  -0.355  -0.354  -0.352  -0.352  -0.351  -0.350
 -0.349  -0.349  -0.348  -0.347  -0.346  -0.345  -0.344  -0.344
 -0.342  -0.342  -0.340  -0.340  -0.338  -0.338  -0.335  -0.334
 -0.333  -0.332  -0.331  -0.330  -0.329  -0.326  -0.324  -0.324
 -0.314  -0.310  -0.301  -0.297  -0.286  -0.283  -0.274  -0.274
 -0.272  -0.271  -0.268  -0.266  -0.264  -0.264  -0.264  -0.263
 -0.262  -0.260  -0.259  -0.259  -0.257  -0.255  -0.254  -0.253
 -0.251  -0.247  -0.245  -0.242  -0.223  -0.221  -0.216  -0.211
 -0.210  -0.209  -0.205  -0.203  -0.197  -0.196

          Ground-State Mulliken Net Atomic Charges

     Atom                 Charge (a.u.)
  ----------------------------------------
      1 O                    -0.458049
      2 C                    -0.102330
      3 H                     0.127105
      4 H                     0.124111
      5 H                     0.149016
      6 O                    -0.471383
      7 C                     0.586066
      8 C                    -0.266765
      9 H                     0.120924
     10 H                     0.133467
     11 C                    -0.183036
     12 H                     0.110699
     13 H                     0.144823
     14 C                    -0.191816
     15 H                     0.110142
     16 H                     0.108584
     17 C                     0.025679
     18 C                     0.079000
     19 C                    -0.105628
     20 H                     0.096175
     21 C                    -0.096416
     22 H                     0.085721
     23 C                    -0.079108
     24 H                     0.094292
     25 C                    -0.083112
     26 H                     0.096193
     27 C                    -0.109120
     28 H                     0.090144
     29 C                    -0.001692
     30 C                    -0.007099
     31 C                     0.011225
     32 C                    -0.025327
     33 C                    -0.008742
     34 C                    -0.025002
     35 C                    -0.046075
     36 C                    -0.019951
     37 C                     0.027948
     38 C                    -0.015274
     39 C                    -0.104465
     40 C                    -0.011341
     41 C                    -0.001953
     42 C                     0.018118
     43 C                    -0.018946
     44 C                     0.012585
     45 C                    -0.092238
     46 C                     0.062281
     47 C                     0.013971
     48 C                    -0.000768
     49 C                     0.028004
     50 C                    -0.010148
     51 C                     0.024550
     52 C                     0.009611
     53 C                     0.036665
     54 C                     0.010599
     55 C                     0.014425
     56 C                    -0.010896
     57 C                    -0.018971
     58 C                    -0.019374
     59 C                    -0.010090
     60 C                     0.033646
     61 C                    -0.014651
     62 C                    -0.005385
     63 C                     0.008193
     64 C                     0.016611
     65 C                    -0.007526
     66 C                    -0.008377
     67 C                     0.020543
     68 C                     0.011003
     69 C                    -0.002712
     70 C                     0.029559
     71 C                     0.007908
     72 C                     0.000777
     73 C                    -0.004807
     74 C                     0.005868
     75 C                     0.017037
     76 C                     0.004200
     77 C                    -0.050701
     78 C                     0.000617
     79 C                    -0.014438
     80 C                     0.041161
     81 C                    -0.031531
     82 C                     0.000774
     83 C                    -0.019057
     84 C                     0.046359
     85 C                    -0.002341
     86 C                    -0.012148
     87 C                     0.004212
     88 C                     0.001718
     89 O                    -0.463598
     90 C                    -0.098483
     91 H                     0.136131
     92 H                     0.126708
     93 H                     0.131597
     94 O                    -0.496920
     95 C                     0.584866
     96 C                    -0.245937
     97 H                     0.125894
     98 H                     0.143653
     99 C                    -0.184572
    100 H                     0.126000
    101 H                     0.119883
    102 C                    -0.209971
    103 H                     0.111350
    104 H                     0.120473
    105 C                     0.023868
    106 C                     0.078864
    107 C                    -0.092069
    108 H                     0.091098
    109 C                    -0.107589
    110 H                     0.093805
    111 C                    -0.082017
    112 H                     0.094732
    113 C                    -0.094040
    114 H                     0.088547
    115 C                    -0.109406
    116 H                     0.093181
    117 C                    -0.005285
    118 C                     0.015863
    119 C                    -0.010257
    120 C                    -0.030548
    121 C                    -0.031080
    122 C                    -0.011389
    123 C                    -0.014146
    124 C                     0.024063
    125 C                     0.011999
    126 C                     0.004210
    127 C                    -0.069511
    128 C                     0.014156
    129 C                    -0.031387
    130 C                     0.016358
    131 C                    -0.012696
    132 C                    -0.021290
    133 C                    -0.096097
    134 C                     0.010178
    135 C                    -0.008335
    136 C                     0.002309
    137 C                     0.003605
    138 C                    -0.005967
    139 C                    -0.009243
    140 C                     0.046866
    141 C                     0.026031
    142 C                     0.011383
    143 C                     0.007968
    144 C                     0.014152
    145 C                     0.019653
    146 C                    -0.020446
    147 C                    -0.023305
    148 C                     0.002848
    149 C                     0.013396
    150 C                    -0.014443
    151 C                    -0.011994
    152 C                    -0.003282
    153 C                    -0.011341
    154 C                     0.005059
    155 C                    -0.019461
    156 C                     0.001612
    157 C                     0.014486
    158 C                     0.041186
    159 C                    -0.021804
    160 C                     0.014019
    161 C                     0.004941
    162 C                    -0.003217
    163 C                     0.038438
    164 C                    -0.007657
    165 C                     0.002005
    166 C                    -0.014250
    167 C                     0.001409
    168 C                    -0.000011
    169 C                    -0.009917
    170 C                     0.013926
    171 C                    -0.004997
    172 C                     0.018411
    173 C                     0.010178
    174 C                    -0.009266
    175 C                    -0.000540
    176 C                    -0.017113
  ----------------------------------------
  Sum of atomic charges =     0.000000

                    Cartesian Multipole Moments
 -----------------------------------------------------------------
    Charge (ESU x 10^10)
                 0.0000
    Dipole Moment (Debye)
         X      -3.9612      Y      -3.0474      Z      -0.6527
       Tot       5.0402
    Quadrupole Moments (Debye-Ang)
        XX    -787.1747     XY       3.5827     YY    -782.0917
        XZ     -12.0710     YZ       1.8324     ZZ    -813.9647

 Total job time:  936.64s(wall), 7965.11s(cpu)
        *  Thank you very much for using Q-Chem.  Have a nice day.  *
