 Q-Chem 4.4, Q-Chem, Inc., Pleasanton, CA (2016)
 Q-Chem 4.4.2 for Intel X86 Linux

User input:
--------------------------------------------------------------
$comment
SP
$end

$rem
MEM_STATIC 5000
MEM_TOTAL 20000
JOBTYPE SP
EXCHANGE B3LYP
BASIS 6-31g(d,p)
$end

$molecule
0 1
O          11.711000      9.004000      7.119000
C          11.495000      9.131000      8.543000
H          12.450000      9.446000      8.981000
H          11.216000      8.179000      9.011000
H          10.645000      9.810000      8.685000
O           9.635000      9.801000      6.632000
C          10.682000      9.287000      6.291000
C          10.988000      8.923000      4.801000
H          11.962000      8.424000      4.727000
H          11.136000      9.907000      4.338000
C           9.709000      8.211000      4.117000
H           9.759000      7.195000      4.525000
H           8.826000      8.758000      4.471000
C           9.908000      8.130000      2.614000
H          10.071000      9.166000      2.291000
H          10.878000      7.687000      2.359000
C           8.688000      7.548000      1.847000
C           7.455000      8.453000      1.828000
C           7.372000      9.466000      0.823000
H           8.079000      9.537000      0.001000
C           6.221000     10.286000      0.818000
H           6.169000     10.990000     -0.008000
C           5.119000     10.110000      1.701000
H           4.241000     10.740000      1.593000
C           5.205000      9.095000      2.641000
H           4.393000      8.939000      3.344000
C           6.376000      8.350000      2.715000
H           6.464000      7.698000      3.579000
C           5.492000      3.158000      1.139000
C           5.180000      4.370000     -0.956000
C           7.649000      1.405000     -3.418000
C          10.334000      2.364000      2.346000
C          10.664000      3.301000     -3.263000
C           5.394000      4.364000      0.472000
C          11.805000      1.945000     -0.085000
C           5.981000      1.013000     -1.686000
C           8.570000      6.395000     -1.736000
C          11.064000      3.409000      1.791000
C           8.913000      6.649000      0.616000
C           9.938000      6.218000     -1.433000
C          11.638000      4.421000     -0.118000
C          11.674000      1.956000     -1.472000
C           6.532000      6.104000     -0.384000
C           9.868000      0.998000     -2.854000
C           8.455000      6.078000      1.952000
C           9.368000      5.011000      2.444000
C           9.800000      2.197000     -3.557000
C           8.370000      0.020000      0.683000
C           8.136000     -0.103000     -1.535000
C           6.873000      0.129000     -0.988000
C           5.281000      1.937000     -0.896000
C           8.564000      3.985000      2.906000
C           7.870000      6.564000     -0.567000
C           5.169000      3.141000     -1.627000
C          11.739000      3.209000      0.581000
C           5.938000      5.373000     -1.477000
C          10.777000      5.295000     -2.173000
C           8.235000      1.518000      2.583000
C           6.390000      1.619000     -2.926000
C          10.146000      6.262000     -0.015000
C           6.260000      1.066000      1.152000
C          11.615000      4.392000     -1.515000
C           8.001000      5.686000     -2.795000
C          10.297000      0.248000     -0.604000
C          10.939000      0.891000      0.456000
C           8.748000      4.838000     -3.544000
C           9.011000      2.651000      2.830000
C          10.576000      4.713000      1.832000
C           9.007000      0.597000      1.816000
C           7.095000      5.419000      1.949000
C           6.613000      3.976000     -3.363000
C          10.955000      5.359000      0.664000
C          10.166000      4.625000     -3.247000
C           6.923000      1.732000      2.248000
C           8.468000      2.500000     -3.802000
C           5.376000      1.909000      0.502000
C           8.568000      0.509000     -2.758000
C           6.676000      5.206000     -2.710000
C           7.920000      3.736000     -3.869000
C           6.223000      5.489000      0.804000
C           7.217000      4.195000      2.651000
C           9.024000     -0.257000     -0.539000
C           5.827000      2.936000     -2.894000
C          11.546000      3.135000     -2.216000
C          10.282000      1.112000      1.675000
C          10.781000      0.931000     -1.763000
C           6.448000      3.048000      2.185000
C           6.988000      0.168000      0.403000
O          22.161000      5.108000      5.240000
C          22.371000      5.411000      6.603000
H          21.930000      4.621000      7.223000
H          21.899000      6.356000      6.897000
H          23.424000      5.540000      6.881000
O          24.068000      3.822000      5.226000
C          23.165000      4.367000      4.628000
C          22.955000      4.185000      3.139000
H          23.599000      3.350000      2.837000
H          23.312000      5.100000      2.651000
C          21.498000      4.144000      2.732000
H          21.018000      5.078000      3.048000
H          21.363000      4.133000      1.643000
C          20.734000      3.001000      3.491000
H          21.102000      2.061000      3.062000
H          20.959000      2.982000      4.565000
C          19.221000      3.094000      3.067000
C          19.080000      2.919000      1.518000
C          18.952000      1.593000      0.999000
H          18.819000      0.807000      1.737000
C          18.744000      1.394000     -0.366000
H          18.643000      0.442000     -0.879000
C          18.662000      2.508000     -1.217000
H          18.380000      2.416000     -2.262000
C          18.743000      3.808000     -0.693000
H          18.468000      4.642000     -1.333000
C          18.941000      4.033000      0.670000
H          18.948000      5.065000      1.009000
C          14.487000      5.817000      3.604000
C          13.764000      3.435000      3.376000
C          12.422000      2.845000      7.645000
C          17.831000      6.184000      7.376000
C          15.452000      1.298000      8.557000
C          14.659000      4.486000      3.084000
C          17.335000      4.247000      9.283000
C          12.230000      4.742000      6.178000
C          16.540000      1.073000      4.771000
C          18.631000      5.029000      7.352000
C          18.232000      2.551000      4.017000
C          17.510000      1.085000      5.783000
C          18.525000      2.749000      7.761000
C          16.448000      3.203000      9.596000
C          15.818000      2.560000      3.078000
C          14.037000      3.014000      9.294000
C          18.322000      4.090000      3.792000
C          18.678000      4.926000      5.010000
C          14.136000      1.753000      8.728000
C          14.435000      6.774000      7.925000
C          13.067000      5.050000      8.434000
C          12.663000      5.613000      7.196000
C          12.579000      4.980000      4.859000
C          17.794000      5.995000      4.974000
C          16.878000      1.898000      3.683000
C          12.754000      3.678000      4.280000
C          18.337000      4.033000      8.321000
C          14.475000      2.252000      3.392000
C          17.068000      0.996000      7.095000
C          16.128000      7.265000      6.255000
C          12.077000      3.383000      6.405000
C          18.468000      2.051000      5.446000
C          13.932000      6.792000      5.506000
C          17.631000      1.708000      8.109000
C          15.216000      0.699000      5.058000
C          15.245000      5.157000      9.521000
C          16.586000      5.423000      9.235000
C          14.830000      0.432000      6.347000
C          17.443000      6.745000      6.169000
C          19.022000      4.330000      6.234000
C          15.757000      7.001000      7.607000
C          17.021000      4.705000      3.327000
C          13.178000      1.516000      5.278000
C          18.994000      2.942000      6.447000
C          15.802000      0.589000      7.369000
C          15.208000      7.197000      5.178000
C          13.176000      1.630000      7.678000
C          13.417000      6.035000      4.481000
C          13.000000      3.704000      8.649000
C          14.242000      1.313000      4.366000
C          13.524000      0.881000      6.524000
C          15.917000      3.953000      2.929000
C          16.845000      5.880000      3.995000
C          14.181000      5.768000      8.891000
C          12.455000      2.710000      5.238000
C          16.634000      1.961000      9.038000
C          16.881000      6.407000      8.266000
C          15.169000      3.726000      9.776000
C          15.579000      6.533000      4.077000
C          13.517000      6.694000      6.839000
$end

--------------------------------------------------------------

             Standard Nuclear Orientation (Angstroms)
    I     Atom           X                Y                Z
 ----------------------------------------------------------------
    1      O       1.3718267723     6.1091641192    -1.5488765371
    2      C       1.9383822889     7.2513370017    -0.8669550217
    3      H       2.9785357588     7.3372801030    -1.2042805952
    4      H       1.9548259252     7.1232351752     0.2223055205
    5      H       1.2863328997     8.1097995699    -1.0708633664
    6      O      -0.6543853517     7.1222242144    -1.7732148353
    7      C       0.0589348469     6.1426824361    -1.8646380209
    8      C      -0.4642984272     4.7765067509    -2.4178314210
    9      H       0.3277003782     4.0195464508    -2.3639612399
   10      H      -0.5896289707     4.9821425255    -3.4885952526
   11      C      -1.9066713843     4.4221301240    -1.7817351555
   12      H      -1.6418980078     4.0765266465    -0.7759154423
   13      H      -2.4740310758     5.3612511000    -1.7625316979
   14      C      -2.5296546497     3.2603222752    -2.5349053710
   15      H      -2.5687752779     3.5865124685    -3.5819314137
   16      H      -1.8368996865     2.4143095317    -2.6156952141
   17      C      -3.9665837171     2.9015670777    -2.0637975662
   18      C      -5.0305255516     3.9451240045    -2.4083142035
   19      C      -5.6381499258     3.8937077436    -3.7010755844
   20      H      -5.4714636551     3.0753752708    -4.3961451141
   21      C      -6.6244440709     4.8618358880    -3.9963343786
   22      H      -7.1091645045     4.7363005630    -4.9606387825
   23      C      -7.0938212412     5.8256072473    -3.0604397056
   24      H      -7.9011563246     6.4953846853    -3.3416091325
   25      C      -6.5179124985     5.8300298327    -1.7996738428
   26      H      -6.8359676109     6.5604150950    -1.0626071470
   27      C      -5.4787644398     4.9453763687    -1.5364219470
   28      H      -4.9437831183     5.1127384687    -0.6062988836
   29      C      -7.0245110692     1.1495807529     2.1275511698
   30      C      -8.4029170743     0.5658318130     0.2002351448
   31      C      -7.5827838556    -3.9225683207     0.5611724570
   32      C      -2.2685928894    -0.5312499609     1.8303990555
   33      C      -4.9527668526    -3.9565208305    -1.8452613757
   34      C      -7.4679856938     1.4508641993     0.8541747359
   35      C      -2.2978894841    -3.0647975852     0.4778307043
   36      C      -8.0837957798    -2.2674705753     2.2773748068
   37      C      -5.9482838252    -0.1898110925    -2.8989428772
   38      C      -1.9483945512    -0.5970851314     0.4790705409
   39      C      -4.4182948299     1.4287913839    -2.0309977764
   40      C      -4.6249820541    -0.6625972665    -3.0400373715
   41      C      -2.4745516795    -1.5448197839    -1.4761426712
   42      C      -3.1407163298    -3.9536573423    -0.1859631193
   43      C      -6.9647582975     1.4205070425    -1.3369940460
   44      C      -5.3972070008    -4.7110685923     0.4651144877
   45      C      -4.0988553768     2.1973353774    -0.7550669139
   46      C      -3.0562106100     1.5161224724     0.0591584041
   47      C      -5.8341291628    -4.4512311286    -0.8302686668
   48      C      -4.7977853105    -2.2389919566     3.5049150970
   49      C      -6.1654193741    -3.7336955029     2.5642518328
   50      C      -6.9516404917    -2.6898642822     3.0546340685
   51      C      -8.2683922389    -0.8823236878     2.1542153683
   52      C      -3.4884581841     1.5606384170     1.3720621954
   53      C      -5.9277124267     1.0060877722    -2.2247583898
   54      C      -8.7574985375    -0.6202010544     0.8547586535
   55      C      -2.0116105470    -1.8290036570    -0.1828248316
   56      C      -8.0407045936     0.4865478658    -1.1091655481
   57      C      -4.2959284664    -2.0713276558    -2.9368267784
   58      C      -3.9210074080     0.0105951855     3.2979194460
   59      C      -8.3944851053    -2.9288130051     1.0371267132
   60      C      -3.7007728105     0.2478380104    -2.4294074667
   61      C      -6.3504738184    -0.4084414282     3.5713993847
   62      C      -3.2306133658    -2.5097268903    -2.1471896164
   63      C      -6.9852139019    -1.0978994859    -2.6796839305
   64      C      -3.8408971980    -3.7955611079     2.0616065309
   65      C      -2.7409549628    -2.9567275502     1.8726664828
   66      C      -6.7395971459    -2.4295168420    -2.6119962203
   67      C      -3.1394004395     0.5273418523     2.2640251432
   68      C      -2.3505335327     0.4116252344    -0.3932990124
   69      C      -3.6631306201    -1.3872784735     3.4072940119
   70      C      -5.2512855817     2.3752056246     0.2062638293
   71      C      -8.4520176720    -1.9204257106    -1.1482776128
   72      C      -2.6490218650    -0.1639774634    -1.6199885614
   73      C      -5.3767263329    -2.9488447384    -2.7430827679
   74      C      -5.2138661058     0.4599099116     3.3753640352
   75      C      -7.0971420718    -3.8789078174    -0.7728019873
   76      C      -7.4502311591     0.0191009664     2.8486640995
   77      C      -6.4476445791    -4.3894905246     1.3203954009
   78      C      -8.0627559102    -0.7679963751    -1.8292033852
   79      C      -7.6067356667    -2.9594174767    -1.6256448107
   80      C      -6.5964674208     1.9988185014    -0.1474699030
   81      C      -4.7688363088     2.0771122965     1.5040492764
   82      C      -4.8846311891    -3.5160932358     2.9055828720
   83      C      -8.8651824614    -1.8870060931     0.1736660266
   84      C      -3.6500966959    -3.7085826659    -1.4667562508
   85      C      -2.6578470537    -1.7137217075     2.5164681220
   86      C      -4.0456896452    -4.3871407523     0.7762584932
   87      C      -5.6598899377     1.3990215654     2.4369707045
   88      C      -6.1206488410    -1.7618032919     3.6853342150
   89      O       9.2866979392    -1.8889286828    -2.6878598297
   90      C      10.1817841211    -0.8630076799    -2.3137143733
   91      H      10.1396128196    -0.7225002170    -1.2267644047
   92      H       9.9291805053     0.0988678417    -2.7754847646
   93      H      11.2221268762    -1.0385193619    -2.6130746936
   94      O      10.9085487998    -3.4650458408    -2.2682224978
   95      C       9.8221626946    -3.1710891472    -2.7192132880
   96      C       8.8597799004    -4.2114012518    -3.2539235667
   97      H       9.2535260184    -5.1856631688    -2.9393719624
   98      H       8.8993183971    -4.1518021816    -4.3483195910
   99      C       7.4075467623    -3.9021000105    -2.9614673222
  100      H       7.1598253918    -2.9283260779    -3.4007968692
  101      H       6.7186295880    -4.5981478931    -3.4566213104
  102      C       7.1667310397    -3.7404497734    -1.4180610282
  103      H       7.2597461120    -4.7481380131    -0.9950035758
  104      H       7.9244133799    -3.1103609975    -0.9349796625
  105      C       5.6570142070    -3.3395688567    -1.2240415040
  106      C       4.7215638278    -4.4458457624    -1.8164864347
  107      C       4.3484173664    -5.5362062833    -0.9703796727
  108      H       4.6301271562    -5.4419549011     0.0745534694
  109      C       3.4532459187    -6.5024941236    -1.4297769832
  110      H       3.1035787973    -7.3776922983    -0.8899297277
  111      C       2.9269761214    -6.3887375126    -2.7267043266
  112      H       2.1369382683    -7.0409950443    -3.0878321475
  113      C       3.2630100684    -5.2906507870    -3.5344318359
  114      H       2.6860032020    -5.1176592907    -4.4388200370
  115      C       4.1484482314    -4.3060678868    -3.0937576113
  116      H       4.3259295542    -3.4630132246    -3.7553868252
  117      C       1.8990369196     0.6380756654    -1.6361152390
  118      C       1.1812434738    -0.6306643568     0.3945763489
  119      C       2.2965107082     2.5081735433     3.4404425037
  120      C       6.7267720150     2.0352092695    -1.1013250542
  121      C       5.3626440813     0.9392558044     4.1774474341
  122      C       1.7802817805    -0.5820772898    -0.8820137983
  123      C       7.3246348691     2.3987183356     1.5716985459
  124      C       1.3464345677     2.7116670358     1.2396454377
  125      C       4.2920098792    -2.2464475393     2.1102750632
  126      C       7.4019095548     0.9955736993    -0.4395485182
  127      C       5.3215516514    -2.5956344579     0.0045741739
  128      C       5.6497392130    -1.9536439138     2.3000778367
  129      C       7.5435402933    -0.0354047640     1.6326341819
  130      C       6.7434189323     2.3653211380     2.8506616658
  131      C       2.7753326322    -2.2188006885     0.2943379001
  132      C       4.5370674281     3.0596725181     3.6186038515
  133      C       5.2685612360    -1.8724806949    -1.3743698609
  134      C       6.2074832886    -0.6903564056    -1.5480464100
  135      C       4.3315407922     1.8803155638     4.3165680169
  136      C       4.1268711512     4.1901109540    -0.2185843062
  137      C       3.2451262618     4.0888941054     1.8586643789
  138      C       2.2450588369     3.7451746194     0.9128572840
  139      C       0.9456892103     1.8025797075     0.2746742526
  140      C       5.4299401083     0.2923392787    -2.1440739218
  141      C       3.9996203392    -2.6435456802     0.7929161814
  142      C       0.7981650823     0.5579791908     0.9748715003
  143      C       7.6701259014     1.1909374119     0.9415039831
  144      C       1.8020564841    -1.6221195997     1.1272930115
  145      C       5.9667335927    -0.9216477334     3.1713570381
  146      C       4.6811251104     2.6258605507    -1.9911962841
  147      C       1.3456910927     2.1234106847     2.4949433755
  148      C       6.2791682491    -2.0129285059     1.0491608028
  149      C       2.4237023913     2.7546137373    -1.2879102228
  150      C       6.9748136762    -0.0400901573     2.9289941173
  151      C       3.3211007179    -1.7155049530     2.9766793398
  152      C       5.6680723905     3.9816871885     1.6251248015
  153      C       6.6547101519     3.3800590458     0.8406361110
  154      C       3.6747930772    -0.8286645628     3.9616777343
  155      C       5.7566606245     1.7048169179    -2.0350481309
  156      C       7.1494224924    -0.3506277989    -0.5636364293
  157      C       5.0807643771     3.5513506902    -0.9817422445
  158      C       3.9136774551    -1.2784183695    -1.6881068427
  159      C       1.6998781347    -0.2220376444     3.0792743391
  160      C       7.2477009477    -1.0182789365     0.6681428950
  161      C       5.0384777875    -0.4436234003     4.0392941884
  162      C       3.3319908261     2.2341906544    -2.1845466787
  163      C       2.9630467245     1.4912597156     4.1937326245
  164      C       1.4509184709     1.8185770079    -1.0301784137
  165      C       3.3110298589     3.4639866314     3.0701004543
  166      C       2.1243360020    -1.4150811158     2.4456089745
  167      C       2.6553921794     0.1087344396     4.1054515844
  168      C       2.7710926838    -1.5341701919    -0.9319223113
  169      C       4.1081783076    -0.0479295194    -2.2411815285
  170      C       4.4275600628     4.3606543901     1.1562644545
  171      C       1.0561359161     0.7645575570     2.3294804577
  172      C       6.6158941099     1.1661661166     3.5096674733
  173      C       6.3874276211     3.1771389705    -0.5310874369
  174      C       5.7480203861     3.3374287429     2.9278532357
  175      C       3.0712310758     0.9288608821    -2.3218657899
  176      C       2.7747740406     3.7842967541    -0.4074446745
 ----------------------------------------------------------------

    9   -5804.2727016641      8.71E-06 Convergence criterion met
 Total energy in the final basis set = -5804.2727016641

                    Orbital Energies (a.u.)
 --------------------------------------------------------------

 Alpha MOs
 -- Occupied --
-19.197 -19.195 -19.142 -19.134 -10.321 -10.317 -10.246 -10.245
-10.242 -10.241 -10.240 -10.240 -10.240 -10.236 -10.236 -10.228
-10.228 -10.227 -10.226 -10.226 -10.225 -10.224 -10.223 -10.222
-10.222 -10.222 -10.222 -10.221 -10.220 -10.220 -10.220 -10.219
-10.219 -10.219 -10.219 -10.219 -10.219 -10.219 -10.219 -10.218
-10.218 -10.218 -10.217 -10.217 -10.217 -10.217 -10.217 -10.217
-10.216 -10.216 -10.216 -10.216 -10.216 -10.216 -10.216 -10.216
-10.216 -10.216 -10.215 -10.215 -10.215 -10.215 -10.215 -10.215
-10.215 -10.215 -10.215 -10.215 -10.215 -10.214 -10.214 -10.214
-10.214 -10.214 -10.214 -10.214 -10.214 -10.214 -10.214 -10.214
-10.214 -10.213 -10.213 -10.213 -10.213 -10.213 -10.213 -10.213
-10.213 -10.213 -10.212 -10.212 -10.212 -10.212 -10.212 -10.212
-10.212 -10.212 -10.211 -10.211 -10.211 -10.211 -10.211 -10.211
-10.211 -10.211 -10.211 -10.211 -10.211 -10.211 -10.211 -10.211
-10.210 -10.210 -10.210 -10.210 -10.210 -10.209 -10.209 -10.209
-10.209 -10.208 -10.208 -10.208 -10.208 -10.208 -10.208 -10.207
-10.207 -10.206 -10.206 -10.205 -10.205 -10.205 -10.205 -10.205
-10.204 -10.203 -10.202 -10.201 -10.201 -10.200 -10.199 -10.198
-10.197 -10.197 -10.195 -10.194  -1.098  -1.097  -1.020  -1.012
 -0.987  -0.980  -0.969  -0.968  -0.964  -0.963  -0.960  -0.958
 -0.936  -0.933  -0.931  -0.928  -0.927  -0.923  -0.922  -0.922
 -0.920  -0.920  -0.898  -0.898  -0.893  -0.888  -0.886  -0.885
 -0.875  -0.870  -0.856  -0.850  -0.845  -0.844  -0.842  -0.841
 -0.838  -0.836  -0.825  -0.818  -0.812  -0.803  -0.799  -0.797
 -0.796  -0.795  -0.794  -0.793  -0.792  -0.791  -0.788  -0.782
 -0.774  -0.772  -0.770  -0.769  -0.768  -0.765  -0.763  -0.758
 -0.757  -0.746  -0.741  -0.740  -0.732  -0.729  -0.720  -0.718
 -0.716  -0.715  -0.714  -0.713  -0.711  -0.710  -0.709  -0.709
 -0.707  -0.707  -0.706  -0.704  -0.703  -0.698  -0.674  -0.672
 -0.663  -0.660  -0.658  -0.656  -0.649  -0.645  -0.633  -0.630
 -0.627  -0.626  -0.625  -0.623  -0.621  -0.620  -0.619  -0.618
 -0.616  -0.615  -0.614  -0.613  -0.613  -0.611  -0.611  -0.609
 -0.607  -0.606  -0.602  -0.601  -0.570  -0.564  -0.563  -0.563
 -0.562  -0.561  -0.561  -0.558  -0.557  -0.556  -0.556  -0.552
 -0.536  -0.533  -0.533  -0.530  -0.530  -0.529  -0.527  -0.525
 -0.525  -0.523  -0.522  -0.519  -0.517  -0.517  -0.515  -0.513
 -0.507  -0.505  -0.503  -0.497  -0.494  -0.490  -0.488  -0.487
 -0.483  -0.483  -0.482  -0.481  -0.480  -0.480  -0.478  -0.475
 -0.475  -0.474  -0.472  -0.472  -0.471  -0.469  -0.467  -0.467
 -0.466  -0.465  -0.464  -0.463  -0.462  -0.459  -0.459  -0.457
 -0.456  -0.454  -0.453  -0.452  -0.451  -0.448  -0.447  -0.444
 -0.442  -0.441  -0.440  -0.440  -0.437  -0.436  -0.434  -0.434
 -0.432  -0.430  -0.429  -0.428  -0.427  -0.427  -0.425  -0.424
 -0.423  -0.423  -0.422  -0.421  -0.421  -0.420  -0.420  -0.419
 -0.418  -0.417  -0.416  -0.416  -0.415  -0.414  -0.414  -0.413
 -0.412  -0.410  -0.408  -0.408  -0.405  -0.401  -0.400  -0.395
 -0.394  -0.393  -0.390  -0.390  -0.388  -0.388  -0.387  -0.386
 -0.383  -0.379  -0.377  -0.373  -0.373  -0.371  -0.369  -0.366
 -0.365  -0.364  -0.363  -0.362  -0.361  -0.360  -0.359  -0.358
 -0.358  -0.357  -0.355  -0.355  -0.354  -0.353  -0.353  -0.352
 -0.351  -0.349  -0.346  -0.346  -0.345  -0.344  -0.343  -0.342
 -0.342  -0.341  -0.341  -0.339  -0.337  -0.336  -0.336  -0.333
 -0.332  -0.331  -0.329  -0.329  -0.328  -0.328  -0.327  -0.326
 -0.312  -0.307  -0.302  -0.299  -0.286  -0.283  -0.276  -0.274
 -0.273  -0.271  -0.270  -0.268  -0.267  -0.267  -0.266  -0.264
 -0.264  -0.262  -0.261  -0.261  -0.259  -0.258  -0.256  -0.253
 -0.252  -0.249  -0.248  -0.242  -0.222  -0.219  -0.214  -0.212
 -0.211  -0.209  -0.208  -0.204  -0.203  -0.194

          Ground-State Mulliken Net Atomic Charges

     Atom                 Charge (a.u.)
  ----------------------------------------
      1 O                    -0.456482
      2 C                    -0.105459
      3 H                     0.128232
      4 H                     0.124655
      5 H                     0.148260
      6 O                    -0.472364
      7 C                     0.590127
      8 C                    -0.272207
      9 H                     0.122326
     10 H                     0.129980
     11 C                    -0.184713
     12 H                     0.111665
     13 H                     0.143088
     14 C                    -0.192983
     15 H                     0.108310
     16 H                     0.110802
     17 C                     0.025656
     18 C                     0.079308
     19 C                    -0.104999
     20 H                     0.095169
     21 C                    -0.096802
     22 H                     0.084420
     23 C                    -0.078796
     24 H                     0.093263
     25 C                    -0.083121
     26 H                     0.095757
     27 C                    -0.108986
     28 H                     0.090749
     29 C                    -0.000621
     30 C                    -0.008238
     31 C                    -0.003706
     32 C                    -0.017899
     33 C                    -0.007589
     34 C                    -0.026551
     35 C                    -0.040865
     36 C                    -0.020711
     37 C                     0.026733
     38 C                    -0.016806
     39 C                    -0.104550
     40 C                    -0.011384
     41 C                    -0.004143
     42 C                     0.019523
     43 C                    -0.019130
     44 C                    -0.001045
     45 C                    -0.093538
     46 C                     0.062737
     47 C                     0.000410
     48 C                     0.000979
     49 C                     0.022217
     50 C                    -0.010212
     51 C                     0.024022
     52 C                     0.009103
     53 C                     0.037270
     54 C                     0.010774
     55 C                     0.015931
     56 C                    -0.011694
     57 C                    -0.021936
     58 C                    -0.019618
     59 C                    -0.001011
     60 C                     0.032333
     61 C                    -0.016404
     62 C                    -0.017062
     63 C                     0.008423
     64 C                     0.016272
     65 C                    -0.001114
     66 C                    -0.009205
     67 C                     0.019598
     68 C                     0.020580
     69 C                    -0.004129
     70 C                     0.028561
     71 C                     0.006329
     72 C                    -0.001838
     73 C                    -0.007595
     74 C                     0.005965
     75 C                     0.031925
     76 C                     0.003388
     77 C                    -0.016796
     78 C                    -0.000989
     79 C                    -0.014346
     80 C                     0.040556
     81 C                    -0.031435
     82 C                    -0.003110
     83 C                    -0.020169
     84 C                     0.013921
     85 C                    -0.002843
     86 C                    -0.010762
     87 C                     0.003460
     88 C                     0.002318
     89 O                    -0.466361
     90 C                    -0.091594
     91 H                     0.120253
     92 H                     0.118703
     93 H                     0.131663
     94 O                    -0.459673
     95 C                     0.600326
     96 C                    -0.257736
     97 H                     0.135693
     98 H                     0.130759
     99 C                    -0.194347
    100 H                     0.120875
    101 H                     0.114391
    102 C                    -0.182206
    103 H                     0.111115
    104 H                     0.123893
    105 C                     0.009313
    106 C                     0.064944
    107 C                    -0.105598
    108 H                     0.099010
    109 C                    -0.088378
    110 H                     0.097439
    111 C                    -0.081441
    112 H                     0.092809
    113 C                    -0.092990
    114 H                     0.091896
    115 C                    -0.101717
    116 H                     0.098587
    117 C                    -0.028346
    118 C                     0.014305
    119 C                    -0.018966
    120 C                     0.038955
    121 C                    -0.018794
    122 C                    -0.000948
    123 C                     0.002312
    124 C                     0.021542
    125 C                    -0.011148
    126 C                     0.009154
    127 C                    -0.101187
    128 C                    -0.001342
    129 C                    -0.021588
    130 C                     0.010272
    131 C                    -0.024498
    132 C                     0.011880
    133 C                    -0.117661
    134 C                     0.039434
    135 C                    -0.008565
    136 C                    -0.046527
    137 C                     0.009448
    138 C                    -0.033368
    139 C                    -0.004209
    140 C                    -0.008966
    141 C                     0.043741
    142 C                    -0.014507
    143 C                    -0.011801
    144 C                     0.001580
    145 C                     0.037406
    146 C                    -0.005095
    147 C                    -0.006325
    148 C                     0.030379
    149 C                     0.018996
    150 C                     0.000535
    151 C                     0.041689
    152 C                     0.007643
    153 C                    -0.014089
    154 C                    -0.003092
    155 C                    -0.052979
    156 C                     0.020927
    157 C                     0.006604
    158 C                     0.041295
    159 C                    -0.018632
    160 C                    -0.020817
    161 C                    -0.011294
    162 C                    -0.019763
    163 C                     0.009173
    164 C                    -0.023184
    165 C                     0.003539
    166 C                     0.007288
    167 C                    -0.023925
    168 C                     0.012534
    169 C                     0.037751
    170 C                     0.004050
    171 C                     0.017134
    172 C                    -0.001096
    173 C                    -0.004374
    174 C                    -0.018273
    175 C                     0.013649
    176 C                     0.053381
  ----------------------------------------
  Sum of atomic charges =     0.000000

                    Cartesian Multipole Moments
 -----------------------------------------------------------------
    Charge (ESU x 10^10)
                 0.0000
    Dipole Moment (Debye)
         X       0.7570      Y      -0.7098      Z      -2.5621
       Tot       2.7643
    Quadrupole Moments (Debye-Ang)
        XX    -831.4730     XY       4.1856     YY    -800.2590
        XZ      -2.6129     YZ       5.8788     ZZ    -796.4341

 Total job time:  872.94s(wall), 7390.06s(cpu)
        *  Thank you very much for using Q-Chem.  Have a nice day.  *
