 Q-Chem 4.4, Q-Chem, Inc., Pleasanton, CA (2016)
 Q-Chem 4.4.2 for Intel X86 Linux

User input:
--------------------------------------------------------------
$comment
SP
$end

$rem
MEM_STATIC 5000
MEM_TOTAL 20000
JOBTYPE SP
EXCHANGE B3LYP
BASIS 6-31g(d,p)
$end

$molecule
0 1
O          10.411000     12.500000      9.085000
C          11.719000     13.031000      8.992000
H          12.404000     12.178000      9.079000
H          11.964000     13.876000      9.646000
H          11.876000     13.515000      8.020000
O           9.356000     14.428000      8.616000
C           9.371000     13.236000      8.803000
C           8.070000     12.470000      8.844000
H           7.956000     12.070000      7.829000
H           7.254000     13.197000      8.947000
C           7.889000     11.419000      9.888000
H           8.647000     10.630000      9.811000
H           8.038000     11.892000     10.867000
C           6.452000     10.870000      9.897000
H           5.790000     11.639000     10.314000
H           6.124000     10.642000      8.875000
C           6.348000      9.600000     10.752000
C           6.544000      9.926000     12.134000
C           5.429000     10.025000     13.026000
H           4.473000      9.902000     12.525000
C           5.545000     10.515000     14.329000
H           4.691000     10.587000     14.997000
C           6.766000     10.571000     14.919000
H           6.835000     10.951000     15.934000
C           7.892000     10.540000     14.075000
H           8.857000     10.654000     14.560000
C           7.780000     10.125000     12.733000
H           8.622000      9.874000     12.094000
C           8.341000      4.532000     11.334000
C           6.119000      4.410000     12.410000
C           4.247000      1.987000      9.048000
C           8.025000      6.418000      6.610000
C           2.731000      4.683000      7.516000
C           7.275000      5.103000     12.138000
C           5.552000      5.586000      5.611000
C           6.444000      1.783000     10.105000
C           3.576000      6.988000     10.667000
C           6.935000      7.257000      6.601000
C           5.459000      8.490000     10.304000
C           3.540000      7.498000      9.320000
C           4.762000      7.417000      6.874000
C           4.410000      4.894000      5.823000
C           5.494000      6.583000     12.062000
C           4.136000      2.810000      6.878000
C           6.918000      8.352000     10.224000
C           7.488000      8.104000      8.858000
C           3.071000      3.331000      7.667000
C           8.164000      2.942000      7.209000
C           6.201000      1.821000      7.622000
C           7.000000      1.829000      8.805000
C           7.024000      2.531000     11.086000
C           8.524000      7.108000      8.859000
C           4.792000      7.497000     11.259000
C           6.013000      3.104000     11.846000
C           5.732000      6.852000      6.041000
C           5.023000      5.283000     12.304000
C           2.977000      6.770000      8.304000
C           9.230000      5.005000      7.953000
C           5.020000      1.837000     10.223000
C           4.600000      8.318000      9.065000
C           8.817000      3.195000      9.577000
C           3.539000      6.752000      7.029000
C           3.098000      5.776000     10.927000
C           6.166000      3.439000      5.800000
C           6.672000      4.722000      5.571000
C           2.530000      5.006000      9.875000
C           8.814000      6.326000      7.732000
C           6.659000      8.110000      7.702000
C           8.733000      4.231000      6.890000
C           7.618000      7.227000     10.976000
C           3.665000      3.531000     11.318000
C           5.286000      8.228000      7.846000
C           2.421000      5.498000      8.579000
C           9.314000      4.455000      9.240000
C           3.179000      2.854000      8.970000
C           8.228000      3.203000     10.863000
C           4.748000      1.880000      7.721000
C           3.807000      4.888000     11.750000
C           2.937000      3.684000     10.102000
C           6.900000      6.483000     11.931000
C           8.559000      6.570000     10.144000
C           6.953000      2.565000      6.613000
C           4.788000      2.665000     11.325000
C           3.400000      5.447000      6.537000
C           7.914000      5.132000      6.122000
C           4.814000      3.571000      5.938000
C           8.930000      5.272000     10.348000
C           8.199000      2.484000      8.550000
O          22.161000      5.108000      5.240000
C          22.371000      5.411000      6.603000
H          21.930000      4.621000      7.223000
H          21.899000      6.356000      6.897000
H          23.424000      5.540000      6.881000
O          24.068000      3.822000      5.226000
C          23.165000      4.367000      4.628000
C          22.955000      4.185000      3.139000
H          23.599000      3.350000      2.837000
H          23.312000      5.100000      2.651000
C          21.498000      4.144000      2.732000
H          21.018000      5.078000      3.048000
H          21.363000      4.133000      1.643000
C          20.734000      3.001000      3.491000
H          21.102000      2.061000      3.062000
H          20.959000      2.982000      4.565000
C          19.221000      3.094000      3.067000
C          19.080000      2.919000      1.518000
C          18.952000      1.593000      0.999000
H          18.819000      0.807000      1.737000
C          18.744000      1.394000     -0.366000
H          18.643000      0.442000     -0.879000
C          18.662000      2.508000     -1.217000
H          18.380000      2.416000     -2.262000
C          18.743000      3.808000     -0.693000
H          18.468000      4.642000     -1.333000
C          18.941000      4.033000      0.670000
H          18.948000      5.065000      1.009000
C          14.487000      5.817000      3.604000
C          13.764000      3.435000      3.376000
C          12.422000      2.845000      7.645000
C          17.831000      6.184000      7.376000
C          15.452000      1.298000      8.557000
C          14.659000      4.486000      3.084000
C          17.335000      4.247000      9.283000
C          12.230000      4.742000      6.178000
C          16.540000      1.073000      4.771000
C          18.631000      5.029000      7.352000
C          18.232000      2.551000      4.017000
C          17.510000      1.085000      5.783000
C          18.525000      2.749000      7.761000
C          16.448000      3.203000      9.596000
C          15.818000      2.560000      3.078000
C          14.037000      3.014000      9.294000
C          18.322000      4.090000      3.792000
C          18.678000      4.926000      5.010000
C          14.136000      1.753000      8.728000
C          14.435000      6.774000      7.925000
C          13.067000      5.050000      8.434000
C          12.663000      5.613000      7.196000
C          12.579000      4.980000      4.859000
C          17.794000      5.995000      4.974000
C          16.878000      1.898000      3.683000
C          12.754000      3.678000      4.280000
C          18.337000      4.033000      8.321000
C          14.475000      2.252000      3.392000
C          17.068000      0.996000      7.095000
C          16.128000      7.265000      6.255000
C          12.077000      3.383000      6.405000
C          18.468000      2.051000      5.446000
C          13.932000      6.792000      5.506000
C          17.631000      1.708000      8.109000
C          15.216000      0.699000      5.058000
C          15.245000      5.157000      9.521000
C          16.586000      5.423000      9.235000
C          14.830000      0.432000      6.347000
C          17.443000      6.745000      6.169000
C          19.022000      4.330000      6.234000
C          15.757000      7.001000      7.607000
C          17.021000      4.705000      3.327000
C          13.178000      1.516000      5.278000
C          18.994000      2.942000      6.447000
C          15.802000      0.589000      7.369000
C          15.208000      7.197000      5.178000
C          13.176000      1.630000      7.678000
C          13.417000      6.035000      4.481000
C          13.000000      3.704000      8.649000
C          14.242000      1.313000      4.366000
C          13.524000      0.881000      6.524000
C          15.917000      3.953000      2.929000
C          16.845000      5.880000      3.995000
C          14.181000      5.768000      8.891000
C          12.455000      2.710000      5.238000
C          16.634000      1.961000      9.038000
C          16.881000      6.407000      8.266000
C          15.169000      3.726000      9.776000
C          15.579000      6.533000      4.077000
C          13.517000      6.694000      6.839000
$end

--------------------------------------------------------------

             Standard Nuclear Orientation (Angstroms)
    I     Atom           X                Y                Z
 ----------------------------------------------------------------
    1      O       3.1202861902    -6.6622065459    -2.0613670300
    2      C       2.0106863981    -7.5395375970    -2.0378611146
    3      H       1.2465907002    -7.0523268996    -1.4188405166
    4      H       2.2052682605    -8.5859752153    -1.7754259609
    5      H       1.6083082504    -7.6877313721    -3.0477222097
    6      O       4.2997047867    -7.8380386354    -3.5701946118
    7      C       4.1095572768    -6.8603871484    -2.8889461296
    8      C       5.1450952159    -5.7615354410    -2.8539589619
    9      H       4.7899342194    -5.0275399779    -3.5876702994
   10      H       6.0722233156    -6.1582658968    -3.2875860276
   11      C       5.4789469607    -5.1320093906    -1.5426474183
   12      H       4.6011932668    -4.6700476894    -1.0745087215
   13      H       5.8041295706    -5.9297108599    -0.8627212192
   14      C       6.6705598404    -4.1667087475    -1.6639091743
   15      H       7.5831657711    -4.7589635110    -1.8049010546
   16      H       6.5420977390    -3.5088427350    -2.5326794535
   17      C       6.8195099191    -3.3069273866    -0.4016370620
   18      C       7.2210667327    -4.1282420842     0.7023603534
   19      C       8.5817096491    -4.1402373933     1.1464290040
   20      H       9.2366440901    -3.5386537005     0.5225508600
   21      C       9.0602848365    -5.0516023403     2.0907513660
   22      H      10.0960089042    -5.0522752978     2.4193836877
   23      C       8.1844842075    -5.7142958409     2.8881769628
   24      H       8.5762773982    -6.4155026634     3.6190621028
   25      C       6.8456794076    -5.7819893916     2.4590006693
   26      H       6.1748117491    -6.3732933015     3.0752329882
   27      C       6.3645040220    -4.9245724835     1.4495258088
   28      H       5.3134747176    -4.7725739910     1.2203536910
   29      C       4.1848450824     0.2688431583     2.8027042445
   30      C       6.5706742839     0.7631815041     3.2191086408
   31      C       6.5212997125     4.6640915568     0.8826968808
   32      C       3.1103803843     0.3231675482    -2.1788218744
   33      C       7.8829301109     3.3309158418    -1.9952018616
   34      C       5.5658545540    -0.1441430533     2.9789660627
   35      C       4.8086125948     2.2295606625    -3.3135582547
   36      C       4.8808738988     3.7407207021     2.4454071592
   37      C       8.7599813296    -0.0471421956    -0.0521743126
   38      C       4.2672877292    -0.0410979701    -2.8276500700
   39      C       7.2298473604    -1.8797585929    -0.5355677099
   40      C       8.3988788180    -0.0255943266    -1.4467874007
   41      C       6.3694891943     0.4615660662    -3.2151237677
   42      C       5.7787367431     3.1516224449    -3.1221602230
   43      C       7.4559794130    -0.8143091729     1.8186030206
   44      C       5.9878624699     4.7155248101    -1.3781324645
   45      C       5.8503363590    -2.2254696653    -0.1728581134
   46      C       4.7770214104    -1.7373818036    -1.1013651195
   47      C       7.3520994947     4.3511716673    -1.1929538280
   48      C       2.4894980545     3.1236395668    -0.1215033269
   49      C       4.1891784315     4.6319909507     0.2198787446
   50      C       3.9053131365     3.9531265532     1.4432011159
   51      C       4.8731505648     2.5550626864     3.1180292075
   52      C       3.6336818317    -1.2143273404    -0.4053036019
   53      C       7.9828699328    -1.1064007335     0.5497145698
   54      C       6.1884626529     2.1366268889     3.2694081839
   55      C       5.0659240859     0.9116268129    -3.4435473485
   56      C       7.7041020303     0.4040139246     2.4701619181
   57      C       8.3823668785     1.1486285322    -2.1539910727
   58      C       2.2250117433     0.6997188506    -0.0987799310
   59      C       6.2254362362     4.1354139164     2.1608278428
   60      C       7.5134935155    -1.0176463988    -1.7516653308
   61      C       2.8272741777     1.8771719911     1.9832693148
   62      C       7.3974326263     1.4066919724    -3.1053589194
   63      C       9.0392582716     1.0902104593     0.5750906458
   64      C       3.8797439109     3.8418966777    -2.0645980702
   65      C       3.6012305686     2.6222337613    -2.6886322748
   66      C       9.0052802316     2.3152006957    -0.1463470948
   67      C       2.7923573096    -0.2438512702    -0.9675333111
   68      C       5.1009448637    -1.0698073121    -2.3150499611
   69      C       2.1218297692     1.9079132543    -0.8098873512
   70      C       5.2628550941    -1.7302134096     1.1427086863
   71      C       8.2075615151     2.7359417730     2.0291346439
   72      C       6.4221441957    -0.7573715315    -2.5918264198
   73      C       8.7254707406     2.3599601485    -1.5076935754
   74      C       2.5121694948     0.7173809696     1.2735004614
   75      C       7.6385006272     4.2912111730     0.1677008418
   76      C       3.8386742200     1.6332947034     2.9415880630
   77      C       5.5540003718     5.0385599729    -0.0906912179
   78      C       8.5187969895     1.3503279975     1.8518102392
   79      C       8.4481019740     3.2606600880     0.7257314148
   80      C       6.1134186438    -1.1581256937     2.1072512168
   81      C       3.9669530671    -1.1899289005     0.9475559620
   82      C       3.2878211821     4.0667113189    -0.7826854912
   83      C       7.0144571163     3.1134098927     2.6963330493
   84      C       7.0719817993     2.7660066066    -3.0016502666
   85      C       2.7649695752     1.6549698343    -2.0727320828
   86      C       5.1825884083     4.1369708330    -2.3472629930
   87      C       3.4388111572    -0.2455422663     1.7801789307
   88      C       2.8600077821     3.0588274941     1.2451685200
   89      O     -10.4702125716    -2.8482996797     0.8092856521
   90      C     -10.0931157464    -3.6477224624     1.9103756569
   91      H      -9.6269911921    -3.0153975430     2.6757997852
   92      H      -9.3618530134    -4.4170453254     1.6353444809
   93      H     -10.9172577251    -4.2117609718     2.3635693893
   94      O     -12.4677814265    -2.3605264389     1.8400314673
   95      C     -11.7590164165    -2.3302557890     0.8567848816
   96      C     -12.1578260881    -1.5942846100    -0.4056105674
   97      H     -13.0251481355    -0.9770235675    -0.1412126258
   98      H     -12.4732050552    -2.3526578977    -1.1324008146
   99      C     -10.9974089171    -0.9269365875    -1.1114842148
  100      H     -10.2530209787    -1.6913601068    -1.3647731412
  101      H     -11.2807356168    -0.5021361970    -2.0828428558
  102      C     -10.2600584778     0.0774033363    -0.1555335637
  103      H     -10.9460962085     0.9233470793    -0.0259325769
  104      H     -10.0699874112    -0.3464495275     0.8387922076
  105      C      -9.0275839141     0.6518719862    -0.9483678592
  106      C      -9.5096655570     1.3786933114    -2.2480736148
  107      C      -9.8594097351     2.7618742150    -2.1558207146
  108      H      -9.6277140661     3.2463790696    -1.2115214173
  109      C     -10.2176112882     3.4700218587    -3.3031256271
  110      H     -10.5124590952     4.5137816621    -3.3606081773
  111      C     -10.2287900098     2.8087715271    -4.5418927703
  112      H     -10.3793863085     3.3395046043    -5.4776577812
  113      C      -9.8399877507     1.4626261140    -4.6305625514
  114      H      -9.6559613869     1.0408823639    -5.6149646575
  115      C      -9.4681080323     0.7357234981    -3.4987869278
  116      H      -9.1360696475    -0.2873948599    -3.6503565042
  117      C      -3.9795420200    -0.3173968969    -2.8697332245
  118      C      -3.9003893877     2.0953174756    -2.2207484656
  119      C      -1.2255155130     1.6192470783     1.3836698968
  120      C      -5.5355131620    -3.0513009895     1.0862408929
  121      C      -3.9510564359     1.6417371583     3.6145383094
  122      C      -4.6023990001     0.9689417641    -2.6996537388
  123      C      -4.7794543449    -1.8302910644     3.4467797780
  124      C      -1.2037377945     0.5170082850    -0.7545904647
  125      C      -6.3850682104     2.7552389192     0.7155961730
  126      C      -6.5071554476    -2.3003160673     1.7692737731
  127      C      -7.8919750603     1.1409979156    -0.1442420256
  128      C      -6.8863165971     2.0729803102     1.8329417978
  129      C      -6.7298644594    -0.4021182632     3.0823475687
  130      C      -4.0754691107    -0.7198916734     3.9428563674
  131      C      -6.0515221370     2.2689498986    -1.5759037736
  132      C      -2.0426428845     0.3647208280     3.1484513978
  133      C      -7.7394402918    -0.1638591731    -0.9816947840
  134      C      -7.4383613514    -1.4313138667    -0.1993482678
  135      C      -2.6019845123     1.6299440485     3.2298463967
  136      C      -2.1347375027    -2.6055961410     0.4394108510
  137      C      -1.0627498589    -0.8020310111     1.2764749546
  138      C      -1.0392533635    -0.7393846834    -0.1406885336
  139      C      -1.9592594791     0.6374325121    -1.9090994467
  140      C      -6.4305972047    -2.0580257981    -0.9184842630
  141      C      -6.9240185115     2.2858357316    -0.4959343550
  142      C      -2.6007046238     1.9173189341    -1.8018200307
  143      C      -6.0873941596    -1.6553597833     2.9631099649
  144      C      -4.7823836574     2.8874393381    -1.5137158897
  145      C      -6.0184294238     1.8556463028     2.8932091149
  146      C      -4.1853492860    -3.0431765622    -0.7852297859
  147      C      -1.2613519349     1.6845379755    -0.0093562514
  148      C      -7.6795811790     1.0151420356     1.3679703063
  149      C      -2.5713709278    -1.6304573681    -1.7884467804
  150      C      -6.0059578177     0.6961444761     3.6056057550
  151      C      -5.1567488472     3.4343807404     0.7878383258
  152      C      -2.6107203048    -2.0020983598     2.7257257462
  153      C      -3.8763385894    -2.5925479134     2.7054111596
  154      C      -4.3848076022     3.3621129578     1.9195141106
  155      C      -5.5154390482    -3.0028330497    -0.2991694755
  156      C      -7.4195061342    -1.4399340471     1.2046809959
  157      C      -3.4030418883    -3.1445283570     0.4034518154
  158      C      -6.6065105385    -0.1053952060    -1.9817463519
  159      C      -3.0609569540     3.3326967135     0.1047206937
  160      C      -7.6014989698    -0.2845235434     1.9822426819
  161      C      -4.8542610978     2.5485242433     2.9832827974
  162      C      -3.7650084988    -2.3066463246    -1.9217991114
  163      C      -2.1467580564     2.4191284871     2.1302165518
  164      C      -2.6406704974    -0.4439803523    -2.4786415795
  165      C      -1.2000180376     0.3290434071     2.0276461119
  166      C      -4.4042636752     3.4600203220    -0.3246564732
  167      C      -3.0438078785     3.3501646598     1.5451573567
  168      C      -5.9090997773     1.0634011257    -2.2821749876
  169      C      -5.9573877269    -1.3036733756    -1.9573741574
  170      C      -1.7543777379    -1.9643881678     1.6451831281
  171      C      -2.1747145339     2.5431253199    -0.6308854421
  172      C      -4.7067258153     0.4964868212     4.0451419024
  173      C      -4.2994802832    -3.2273108594     1.5170218676
  174      C      -2.7425516489    -0.8069457331     3.5459651598
  175      C      -4.6457310009    -1.4759782340    -2.4919362858
  176      C      -1.7220161176    -1.8561579104    -0.6992389620
 ----------------------------------------------------------------

    9   -5804.2485640090      8.34E-06 Convergence criterion met
 Total energy in the final basis set = -5804.2485640090

                    Orbital Energies (a.u.)
 --------------------------------------------------------------

 Alpha MOs
 -- Occupied --
-19.204 -19.197 -19.142 -19.126 -10.321 -10.311 -10.250 -10.246
-10.244 -10.241 -10.240 -10.240 -10.239 -10.236 -10.232 -10.229
-10.228 -10.227 -10.225 -10.225 -10.225 -10.224 -10.223 -10.223
-10.222 -10.222 -10.221 -10.221 -10.221 -10.220 -10.220 -10.219
-10.219 -10.218 -10.218 -10.218 -10.218 -10.218 -10.218 -10.218
-10.217 -10.217 -10.217 -10.217 -10.217 -10.217 -10.217 -10.217
-10.216 -10.216 -10.216 -10.216 -10.216 -10.215 -10.215 -10.215
-10.215 -10.215 -10.215 -10.215 -10.215 -10.215 -10.215 -10.214
-10.214 -10.214 -10.214 -10.214 -10.214 -10.214 -10.214 -10.214
-10.214 -10.214 -10.214 -10.213 -10.213 -10.213 -10.213 -10.213
-10.212 -10.212 -10.212 -10.212 -10.212 -10.212 -10.212 -10.212
-10.212 -10.212 -10.211 -10.211 -10.211 -10.211 -10.211 -10.210
-10.210 -10.210 -10.210 -10.210 -10.210 -10.210 -10.210 -10.210
-10.209 -10.209 -10.209 -10.209 -10.209 -10.209 -10.209 -10.209
-10.209 -10.208 -10.208 -10.208 -10.207 -10.207 -10.207 -10.206
-10.206 -10.206 -10.206 -10.206 -10.206 -10.206 -10.205 -10.205
-10.205 -10.205 -10.204 -10.204 -10.204 -10.204 -10.203 -10.203
-10.202 -10.202 -10.201 -10.201 -10.199 -10.197 -10.196 -10.196
-10.194 -10.193 -10.192 -10.192  -1.121  -1.098  -1.020  -1.018
 -0.986  -0.986  -0.968  -0.968  -0.967  -0.966  -0.963  -0.962
 -0.939  -0.935  -0.932  -0.929  -0.928  -0.927  -0.926  -0.926
 -0.920  -0.919  -0.900  -0.897  -0.896  -0.892  -0.886  -0.880
 -0.879  -0.874  -0.857  -0.856  -0.844  -0.844  -0.843  -0.843
 -0.841  -0.839  -0.824  -0.822  -0.812  -0.810  -0.802  -0.799
 -0.798  -0.797  -0.795  -0.795  -0.791  -0.790  -0.789  -0.787
 -0.775  -0.772  -0.772  -0.771  -0.770  -0.767  -0.766  -0.763
 -0.757  -0.753  -0.745  -0.739  -0.735  -0.731  -0.719  -0.718
 -0.717  -0.715  -0.714  -0.714  -0.713  -0.711  -0.710  -0.710
 -0.709  -0.708  -0.706  -0.706  -0.705  -0.704  -0.676  -0.673
 -0.662  -0.662  -0.659  -0.658  -0.648  -0.646  -0.632  -0.631
 -0.629  -0.628  -0.626  -0.624  -0.622  -0.622  -0.619  -0.618
 -0.617  -0.616  -0.615  -0.614  -0.614  -0.613  -0.612  -0.611
 -0.610  -0.607  -0.605  -0.605  -0.582  -0.569  -0.565  -0.564
 -0.562  -0.561  -0.561  -0.560  -0.560  -0.557  -0.555  -0.552
 -0.537  -0.535  -0.532  -0.531  -0.529  -0.529  -0.529  -0.526
 -0.524  -0.523  -0.521  -0.521  -0.519  -0.518  -0.516  -0.515
 -0.510  -0.507  -0.502  -0.502  -0.498  -0.493  -0.492  -0.488
 -0.487  -0.486  -0.485  -0.482  -0.481  -0.480  -0.478  -0.478
 -0.476  -0.474  -0.474  -0.473  -0.471  -0.468  -0.467  -0.467
 -0.466  -0.466  -0.464  -0.464  -0.463  -0.462  -0.460  -0.459
 -0.457  -0.455  -0.454  -0.452  -0.451  -0.448  -0.446  -0.445
 -0.443  -0.443  -0.441  -0.440  -0.439  -0.437  -0.435  -0.434
 -0.434  -0.432  -0.431  -0.428  -0.428  -0.426  -0.425  -0.424
 -0.423  -0.422  -0.422  -0.421  -0.421  -0.420  -0.419  -0.419
 -0.418  -0.418  -0.417  -0.417  -0.416  -0.415  -0.415  -0.413
 -0.412  -0.412  -0.408  -0.406  -0.405  -0.404  -0.400  -0.397
 -0.394  -0.394  -0.394  -0.392  -0.390  -0.389  -0.387  -0.386
 -0.386  -0.376  -0.374  -0.373  -0.373  -0.372  -0.368  -0.368
 -0.367  -0.366  -0.364  -0.363  -0.361  -0.360  -0.358  -0.358
 -0.358  -0.357  -0.356  -0.356  -0.354  -0.353  -0.353  -0.352
 -0.351  -0.351  -0.349  -0.345  -0.345  -0.344  -0.343  -0.342
 -0.341  -0.341  -0.341  -0.339  -0.339  -0.338  -0.336  -0.335
 -0.334  -0.334  -0.332  -0.331  -0.330  -0.328  -0.327  -0.326
 -0.313  -0.312  -0.303  -0.301  -0.288  -0.286  -0.276  -0.272
 -0.270  -0.270  -0.268  -0.268  -0.267  -0.266  -0.264  -0.264
 -0.264  -0.263  -0.262  -0.261  -0.260  -0.258  -0.257  -0.254
 -0.253  -0.248  -0.247  -0.241  -0.223  -0.220  -0.214  -0.213
 -0.210  -0.208  -0.207  -0.205  -0.202  -0.202

          Ground-State Mulliken Net Atomic Charges

     Atom                 Charge (a.u.)
  ----------------------------------------
      1 O                    -0.424428
      2 C                    -0.097537
      3 H                     0.126288
      4 H                     0.133828
      5 H                     0.127501
      6 O                    -0.478381
      7 C                     0.585961
      8 C                    -0.259754
      9 H                     0.125767
     10 H                     0.130218
     11 C                    -0.183758
     12 H                     0.112823
     13 H                     0.118820
     14 C                    -0.179864
     15 H                     0.116828
     16 H                     0.105414
     17 C                     0.007498
     18 C                     0.099649
     19 C                    -0.104410
     20 H                     0.082561
     21 C                    -0.089468
     22 H                     0.087814
     23 C                    -0.078705
     24 H                     0.090743
     25 C                    -0.103812
     26 H                     0.088992
     27 C                    -0.099362
     28 H                     0.090239
     29 C                    -0.001230
     30 C                    -0.006957
     31 C                     0.035643
     32 C                     0.011004
     33 C                     0.007379
     34 C                    -0.006072
     35 C                     0.015760
     36 C                    -0.021961
     37 C                     0.000259
     38 C                     0.004806
     39 C                    -0.108915
     40 C                     0.037991
     41 C                    -0.021184
     42 C                     0.031298
     43 C                     0.010694
     44 C                     0.012678
     45 C                    -0.054926
     46 C                     0.009218
     47 C                    -0.018690
     48 C                     0.000243
     49 C                    -0.032125
     50 C                     0.019782
     51 C                     0.033504
     52 C                    -0.009284
     53 C                     0.018975
     54 C                     0.013692
     55 C                    -0.015578
     56 C                     0.013090
     57 C                    -0.016744
     58 C                     0.015079
     59 C                    -0.014026
     60 C                     0.016018
     61 C                    -0.015307
     62 C                    -0.015110
     63 C                     0.007701
     64 C                    -0.003612
     65 C                    -0.013242
     66 C                     0.005964
     67 C                     0.004039
     68 C                    -0.017216
     69 C                    -0.034619
     70 C                     0.021174
     71 C                    -0.025906
     72 C                     0.019352
     73 C                    -0.005033
     74 C                     0.005489
     75 C                     0.005582
     76 C                    -0.018905
     77 C                    -0.043298
     78 C                    -0.012021
     79 C                    -0.002099
     80 C                    -0.025500
     81 C                     0.030883
     82 C                    -0.002776
     83 C                    -0.002028
     84 C                    -0.006874
     85 C                    -0.004681
     86 C                     0.018925
     87 C                    -0.003159
     88 C                     0.020259
     89 O                    -0.465846
     90 C                    -0.091549
     91 H                     0.120434
     92 H                     0.118598
     93 H                     0.131463
     94 O                    -0.459889
     95 C                     0.599949
     96 C                    -0.257290
     97 H                     0.135503
     98 H                     0.130593
     99 C                    -0.194538
    100 H                     0.121033
    101 H                     0.114108
    102 C                    -0.182599
    103 H                     0.110869
    104 H                     0.124022
    105 C                     0.010987
    106 C                     0.063969
    107 C                    -0.105114
    108 H                     0.099062
    109 C                    -0.088785
    110 H                     0.096926
    111 C                    -0.081870
    112 H                     0.092057
    113 C                    -0.092562
    114 H                     0.091530
    115 C                    -0.101373
    116 H                     0.098882
    117 C                    -0.021211
    118 C                     0.004659
    119 C                    -0.018602
    120 C                     0.038871
    121 C                    -0.019173
    122 C                    -0.001523
    123 C                     0.002195
    124 C                     0.030464
    125 C                    -0.011195
    126 C                     0.008518
    127 C                    -0.101869
    128 C                    -0.002607
    129 C                    -0.021187
    130 C                     0.008683
    131 C                    -0.024978
    132 C                     0.010785
    133 C                    -0.118874
    134 C                     0.040428
    135 C                    -0.008311
    136 C                    -0.036001
    137 C                     0.016563
    138 C                    -0.020654
    139 C                    -0.009092
    140 C                    -0.007699
    141 C                     0.043677
    142 C                    -0.015802
    143 C                    -0.012093
    144 C                     0.001322
    145 C                     0.039131
    146 C                    -0.005251
    147 C                     0.002686
    148 C                     0.030621
    149 C                     0.044486
    150 C                    -0.000445
    151 C                     0.041315
    152 C                     0.007902
    153 C                    -0.014307
    154 C                    -0.002899
    155 C                    -0.053372
    156 C                     0.020771
    157 C                     0.006928
    158 C                     0.040067
    159 C                    -0.018231
    160 C                    -0.021811
    161 C                    -0.011873
    162 C                    -0.020771
    163 C                     0.007492
    164 C                    -0.021279
    165 C                     0.005182
    166 C                     0.007746
    167 C                    -0.023529
    168 C                     0.013449
    169 C                     0.036863
    170 C                     0.004872
    171 C                     0.008745
    172 C                    -0.000142
    173 C                    -0.004345
    174 C                    -0.017463
    175 C                     0.014535
    176 C                    -0.009810
  ----------------------------------------
  Sum of atomic charges =     0.000000

                    Cartesian Multipole Moments
 -----------------------------------------------------------------
    Charge (ESU x 10^10)
                 0.0000
    Dipole Moment (Debye)
         X      -2.1155      Y      -0.5514      Z      -1.4044
       Tot       2.5984
    Quadrupole Moments (Debye-Ang)
        XX    -795.0733     XY      -9.3751     YY    -808.4712
        XZ      39.8544     YZ     -20.3954     ZZ    -810.2912

 Total job time:  842.09s(wall), 7147.41s(cpu)
        *  Thank you very much for using Q-Chem.  Have a nice day.  *
