 Q-Chem 4.4, Q-Chem, Inc., Pleasanton, CA (2016)
 Q-Chem 4.4.2 for Intel X86 Linux

User input:
--------------------------------------------------------------
$comment
SP
$end

$rem
MEM_STATIC 5000
MEM_TOTAL 20000
JOBTYPE SP
EXCHANGE B3LYP
BASIS 6-31g(d,p)
$end

$molecule
0 1
O          -4.178000      6.413000    -12.960000
C          -3.160000      7.336000    -12.494000
H          -3.583000      8.289000    -12.152000
H          -2.503000      7.688000    -13.299000
H          -2.666000      7.033000    -11.563000
O          -5.098000      7.805000    -14.456000
C          -5.060000      6.777000    -13.862000
C          -6.132000      5.754000    -14.029000
H          -5.587000      4.802000    -14.035000
H          -6.592000      5.864000    -15.019000
C          -7.279000      5.833000    -12.942000
H          -7.821000      6.757000    -13.180000
H          -7.915000      4.996000    -13.257000
C          -6.702000      5.767000    -11.459000
H          -6.035000      4.897000    -11.436000
H          -6.085000      6.668000    -11.353000
C          -7.754000      5.756000    -10.363000
C          -8.519000      7.047000    -10.194000
C          -9.790000      7.186000    -10.761000
H         -10.270000      6.352000    -11.265000
C         -10.447000      8.462000    -10.804000
H         -11.427000      8.601000    -11.252000
C          -9.906000      9.588000    -10.162000
H         -10.533000     10.452000     -9.964000
C          -8.660000      9.395000     -9.533000
H          -8.192000     10.263000     -9.078000
C          -7.925000      8.186000     -9.550000
H          -6.988000      8.098000     -9.008000
C          -9.169000      3.686000     -5.467000
C         -11.227000      3.532000     -6.692000
C         -11.119000     -1.024000     -7.066000
C          -5.224000      1.623000     -7.812000
C          -9.694000     -0.873000    -10.260000
C         -10.039000      4.171000     -6.391000
C          -6.252000     -0.564000     -9.284000
C         -10.453000      0.489000     -5.238000
C         -10.376000      3.006000    -10.537000
C          -5.529000      1.719000     -9.180000
C          -8.442000      4.424000    -10.197000
C          -9.284000      2.365000    -11.206000
C          -6.859000      1.094000    -10.909000
C          -7.452000     -1.314000     -9.544000
C         -10.412000      4.455000     -8.632000
C          -9.332000     -1.955000     -8.135000
C          -7.560000      4.944000     -9.117000
C          -6.499000      3.956000     -8.832000
C         -10.236000     -1.498000     -9.138000
C          -7.030000     -0.111000     -5.327000
C          -8.970000     -1.181000     -5.874000
C          -9.234000     -0.122000     -5.026000
C         -10.568000      1.853000     -5.072000
C          -6.248000      3.836000     -7.445000
C          -9.929000      4.165000     -9.900000
C         -11.532000      2.350000     -6.033000
C          -5.989000      0.664000     -9.947000
C         -11.490000      3.734000     -8.055000
C          -9.304000      0.999000    -11.387000
C          -6.100000      2.087000     -5.726000
C         -11.362000      0.136000     -6.269000
C          -8.129000      3.198000    -11.028000
C          -8.176000      1.967000     -4.445000
C          -8.064000      0.400000    -11.179000
C         -11.403000      2.216000     -9.966000
C          -7.109000     -1.406000     -7.376000
C          -6.062000     -0.632000     -7.876000
C         -11.408000      0.815000    -10.115000
C          -5.674000      2.660000     -6.928000
C          -6.182000      2.806000     -9.615000
C          -6.073000      0.688000     -5.906000
C          -8.161000      5.076000     -7.745000
C         -12.255000      1.311000     -8.120000
C          -6.931000      2.496000    -10.769000
C         -10.370000      0.218000    -10.830000
C          -7.188000      2.739000     -5.034000
C         -11.346000     -0.963000     -8.461000
C          -9.392000      2.565000     -4.711000
C          -9.871000     -1.612000     -6.893000
C         -12.006000      2.540000     -8.741000
C         -11.956000      0.238000     -8.985000
C          -9.536000      4.822000     -7.594000
C          -7.321000      4.439000     -6.829000
C          -7.551000     -1.193000     -6.064000
C         -12.048000      1.239000     -6.758000
C          -8.311000     -0.845000    -10.534000
C          -5.523000      0.408000     -7.201000
C          -7.911000     -1.860000     -8.376000
C          -7.816000      3.820000     -5.660000
C          -8.086000      0.573000     -4.649000
O         -19.420000     -1.551000     -7.245000
C         -19.356000     -3.046000     -7.141000
H         -19.947000     -3.353000     -6.269000
H         -18.351000     -3.486000     -7.127000
H         -19.817000     -3.441000     -8.055000
O         -21.638000     -1.404000     -6.572000
C         -20.601000     -0.885000     -6.928000
C         -20.432000      0.643000     -7.048000
H         -19.765000      1.021000     -6.264000
H         -21.451000      1.027000     -6.916000
C         -20.015000      1.161000     -8.431000
H         -19.013000      0.783000     -8.670000
H         -20.755000      0.843000     -9.176000
C         -20.007000      2.629000     -8.424000
H         -21.028000      2.942000     -8.677000
H         -19.713000      3.038000     -7.449000
C         -19.215000      3.235000     -9.657000
C         -19.251000      2.372000    -10.917000
C         -20.503000      2.031000    -11.466000
H         -21.389000      2.571000    -11.144000
C         -20.667000      1.054000    -12.511000
H         -21.671000      0.809000    -12.844000
C         -19.523000      0.390000    -13.031000
H         -19.704000     -0.363000    -13.793000
C         -18.341000      0.632000    -12.378000
H         -17.495000      0.012000    -12.658000
C         -18.140000      1.631000    -11.424000
H         -17.179000      1.776000    -10.938000
C         -14.757000      5.830000    -11.447000
C         -16.509000      6.619000    -12.914000
C         -16.758000     10.805000    -11.068000
C         -15.962000      6.449000     -6.599000
C         -19.570000     10.070000     -8.967000
C         -15.938000      5.562000    -12.153000
C         -17.562000      8.714000     -6.225000
C         -14.814000      9.382000    -11.634000
C         -20.045000      6.601000    -10.913000
C         -17.333000      6.344000     -6.524000
C         -19.319000      4.679000     -9.793000
C         -20.423000      6.788000     -9.585000
C         -19.294000      7.231000     -7.021000
C         -18.185000      9.766000     -6.923000
C         -18.148000      5.465000    -11.887000
C         -17.302000     11.011000     -8.853000
C         -17.971000      4.044000     -9.406000
C         -17.351000      4.524000     -8.121000
C         -18.509000     10.811000     -9.561000
C         -14.093000      8.726000     -8.301000
C         -15.011000     10.469000     -9.427000
C         -14.327000      9.598000    -10.352000
C         -14.694000      8.099000    -12.270000
C         -15.922000      4.631000     -8.265000
C         -19.283000      5.457000    -11.019000
C         -15.902000      7.898000    -12.865000
C         -18.129000      7.456000     -6.322000
C         -17.845000      6.519000    -12.762000
C         -20.523000      8.051000     -8.997000
C         -14.278000      6.372000     -8.077000
C         -16.061000      9.983000    -11.875000
C         -19.887000      5.681000     -8.847000
C         -13.607000      7.354000    -10.210000
C         -19.979000      8.272000     -7.689000
C         -19.804000      7.672000    -11.767000
C         -15.913000      9.965000     -7.151000
C         -16.141000      8.828000     -6.306000
C         -19.870000      8.972000    -11.162000
C         -15.285000      5.626000     -7.517000
C         -18.017000      5.315000     -7.228000
C         -14.408000      7.650000     -7.514000
C         -16.818000      4.216000    -10.307000
C         -18.125000      8.939000    -12.618000
C         -19.241000      5.953000     -7.594000
C         -20.183000      9.114000     -9.800000
C         -13.916000      6.243000     -9.419000
C         -18.187000     10.673000    -10.922000
C         -14.083000      7.070000    -11.502000
C         -16.249000     11.044000     -9.784000
C         -18.706000      7.634000    -12.653000
C         -18.836000      9.745000    -11.720000
C         -16.961000      4.772000    -11.607000
C         -15.610000      4.558000     -9.606000
C         -14.897000      9.875000     -8.158000
C         -16.729000      9.073000    -12.683000
C         -19.436000      9.557000     -7.633000
C         -15.355000      7.724000     -6.532000
C         -17.144000     10.504000     -7.522000
C         -14.626000      5.306000    -10.192000
C         -13.678000      8.600000     -9.608000
$end

--------------------------------------------------------------

             Standard Nuclear Orientation (Angstroms)
    I     Atom           X                Y                Z
 ----------------------------------------------------------------
    1      O      -7.3004843476     6.0348945599     2.5962159409
    2      C      -7.9614369820     7.0712052604     1.8251058664
    3      H      -7.2569163804     7.6618032528     1.2259842316
    4      H      -8.3961153045     7.8584603282     2.4534864948
    5      H      -8.5938045231     6.6964032726     1.0113241002
    6      O      -5.8500276655     7.3937049170     3.6315370633
    7      C      -6.2863013722     6.3176779342     3.3807479388
    8      C      -5.6306956297     5.0833920278     3.9006723676
    9      H      -6.4722737852     4.4352995509     4.1746930777
   10      H      -5.0934502815     5.3172101277     4.8283018907
   11      C      -4.6071944202     4.4191003163     2.8934083525
   12      H      -3.7611991117     5.1172033605     2.8598214834
   13      H      -4.2836106656     3.5484133912     3.4777779548
   14      C      -5.2727377968     4.1166379952     1.4784374842
   15      H      -6.2016581163     3.5755233110     1.6943539926
   16      H      -5.5416282224     5.1004133596     1.0739501897
   17      C      -4.3700853844     3.4035654419     0.4860730572
   18      C      -3.2158144002     4.2246550006    -0.0373172674
   19      C      -1.9401905389     4.0694334450     0.5148973947
   20      H      -1.7481361938     3.3136995519     1.2711734101
   21      C      -0.8772911693     4.9795135884     0.1929143786
   22      H       0.1181531412     4.8912698054     0.6192108242
   23      C      -1.0338815761     5.9735967604    -0.7868810550
   24      H      -0.1598361558     6.4567658736    -1.2128167441
   25      C      -2.3093465496     6.0534391254    -1.3803625610
   26      H      -2.4748879740     6.8498316838    -2.0999651803
   27      C      -3.4175182174     5.2483894063    -1.0253336826
   28      H      -4.3615110972     5.3381607808    -1.5547631333
   29      C      -4.1129381869    -0.4088300514    -3.4708774001
   30      C      -2.1585708781    -0.9029625172    -2.1685769246
   31      C      -3.8260768744    -4.7846325159    -0.4190804902
   32      C      -8.3565118375    -0.1308201631    -0.7814885896
   33      C      -4.8820437788    -3.1816936808     2.5084753142
   34      C      -3.0661346647    -0.0080464757    -2.7031040537
   35      C      -8.0579566577    -1.9855358404     1.3345056356
   36      C      -4.0468412260    -3.7621638897    -2.6507009798
   37      C      -2.8695279210     0.0943865399     1.6109385128
   38      C      -7.9426299819     0.2596631123     0.5029917026
   39      C      -4.2044863127     1.9309648964     0.7674066328
   40      C      -4.0672410345     0.1154341550     2.3957609740
   41      C      -6.7979599818    -0.2415635503     2.3970530595
   42      C      -7.1808420644    -2.9953418729     1.8646582240
   43      C      -2.4621460654     0.7886090901    -0.6433944427
   44      C      -5.7466310958    -4.6535622334     0.8045138313
   45      C      -4.9220513340     2.3768932855    -0.4577351191
   46      C      -6.2786032159     1.7915268155    -0.4719859981
   47      C      -4.6723423722    -4.2657179047     1.6574818935
   48      C      -7.4485304686    -3.0555255326    -2.5322842188
   49      C      -5.9718844887    -4.5236292701    -1.5985299331
   50      C      -5.4141354205    -3.9358655426    -2.7182311333
   51      C      -3.4741443122    -2.6456181986    -3.2222086040
   52      C      -6.6517465139     1.3549555552    -1.7647890047
   53      C      -2.9264085238     1.0859401084     0.6298956402
   54      C      -2.3327415046    -2.2562829727    -2.4188134877
   55      C      -7.8281856206    -0.6051453045     1.5762684099
   56      C      -1.7472235161    -0.4053037156    -0.9232371858
   57      C      -4.5134595036    -1.0461039892     2.9880744191
   58      C      -7.5212581646    -0.6603410869    -2.8685982880
   59      C      -3.2490861197    -4.0846250589    -1.5222256435
   60      C      -4.8675808981     1.2075716674     1.9200617446
   61      C      -5.7128705164    -1.8880338974    -3.9583879361
   62      C      -5.8959004920    -1.2005461390     2.9197404147
   63      C      -2.2259577831    -1.1407499850     1.3557420345
   64      C      -7.6845941197    -3.6105946345    -0.1832760782
   65      C      -8.3573928202    -2.4040017502     0.0084542539
   66      C      -2.7006566835    -2.3376335189     1.9277190970
   67      C      -7.6351809819     0.3607949849    -1.9204887402
   68      C      -6.9222131155     1.1223173052     0.6115281589
   69      C      -8.0229949886    -1.8347666611    -2.2691696184
   70      C      -4.4100226459     1.8665342092    -1.7762074304
   71      C      -1.8749683556    -2.8010707915    -0.0839753827
   72      C      -6.2503421910     0.9316868755     1.8367083498
   73      C      -3.8293291595    -2.2828390748     2.7451382128
   74      C      -6.3250401892    -0.6771871091    -3.6788394663
   75      C      -3.4954244095    -4.3893797539     0.8983864739
   76      C      -4.3491596337    -1.7084601173    -3.8356610617
   77      C      -5.2097073063    -4.9159310662    -0.4578686146
   78      C      -1.6346950312    -1.4374394357     0.1181662881
   79      C      -2.4691273863    -3.3837089304     1.0546478410
   80      C      -3.2246627731     1.1096740558    -1.7813727195
   81      C      -5.4813748085     1.3230081502    -2.4883934785
   82      C      -7.2886228652    -3.9748777600    -1.4765593303
   83      C      -2.1884796449    -3.2031630871    -1.3658136943
   84      C      -6.1453086026    -2.5848855107     2.6996061410
   85      C      -8.5444784737    -1.4967240705    -0.9762244603
   86      C      -7.0242784145    -3.9939769628     0.9420332836
   87      C      -5.3167647438     0.2467178682    -3.3879765794
   88      C      -6.2700481223    -3.0284953463    -3.3404455447
   89      O       3.7578908168    -8.1334302417     0.2775965153
   90      C       3.1682286767    -9.4655670642     0.6348737840
   91      H       3.5523031099   -10.2098888005    -0.0739181337
   92      H       2.0744564097    -9.5037691684     0.7124871027
   93      H       3.5245745763    -9.7020865297     1.6453282076
   94      O       5.8346687266    -8.9912785648    -0.3098996702
   95      C       5.0720334968    -8.0574601399    -0.1763457279
   96      C       5.4566524479    -6.6088557398    -0.5387799349
   97      H       4.9109574050    -6.2752291193    -1.4294758416
   98      H       6.5337517352    -6.6692960449    -0.7373878271
   99      C       5.3445284847    -5.5848919198     0.5986858063
  100      H       4.2928684723    -5.4928197261     0.8979230526
  101      H       5.9766843038    -5.9030160386     1.4370920713
  102      C       5.8497443055    -4.2847288701     0.1410068592
  103      H       6.9307290386    -4.2923813216     0.3303014623
  104      H       5.6500703873    -4.1133250954    -0.9244006086
  105      C       5.4075604994    -3.0955449010     1.0923763821
  106      C       5.2273405843    -3.4914324222     2.5567734774
  107      C       6.3161611244    -4.0702601194     3.2383997155
  108      H       7.3102868411    -4.0029806160     2.8054245110
  109      C       6.2006945658    -4.6773081941     4.5390188407
  110      H       7.0763088091    -5.1487038691     4.9749268750
  111      C       4.9359708402    -4.7032516634     5.1869639266
  112      H       4.8949659443    -5.2035522535     6.1505156471
  113      C       3.8706946045    -4.2682466991     4.4399336577
  114      H       2.8830475721    -4.4331824438     4.8592969127
  115      C       3.9656255638    -3.6011368793     3.2174482380
  116      H       3.0845640598    -3.2797054627     2.6686728100
  117      C       2.2743256402     1.3193999119     1.8015946954
  118      C       4.2893131493     1.8413695224     3.0310201969
  119      C       5.8566067182     4.9008201474     0.0018840590
  120      C       3.2786244853    -0.0239482219    -2.9444657363
  121      C       8.0804990742     2.6205908307    -1.6463352991
  122      C       3.3332729867     0.8777500264     2.6069498319
  123      C       5.5392430864     1.3019872456    -3.9250776253
  124      C       3.5823119770     4.4999158964     0.8914233845
  125      C       7.4472637136    -0.0300726248     1.2895628981
  126      C       4.5176316514    -0.6245346923    -2.9232965620
  127      C       6.0189972744    -1.8130319241     0.7829357022
  128      C       7.7732347706    -0.3995661712    -0.0137614626
  129      C       6.6945340165    -0.3828736126    -2.6369488447
  130      C       6.5377280796     2.2237483327    -3.5570814073
  131      C       5.3456500307    -0.0702614874     2.4809426793
  132      C       6.2824862951     4.2213812635    -2.1432467969
  133      C       4.5105885781    -2.0152287906     0.5507339963
  134      C       4.0095403291    -1.7593367214    -0.8455091420
  135      C       7.3896363438     3.8313309458    -1.3557237691
  136      C       2.4470218515     3.1670819765    -2.1075324459
  137      C       3.9925200858     4.7254885414    -1.5318127347
  138      C       3.1134480462     4.4759787947    -0.4150767608
  139      C       3.0660209508     3.5988682254     1.8846714254
  140      C       2.7218519710    -1.1156118062    -0.8042426203
  141      C       6.3427919348    -0.7411395193     1.7080625532
  142      C       4.1658789730     3.1734314651     2.5651167897
  143      C       5.6359918019     0.0171688972    -3.4217452324
  144      C       5.4919999558     1.2343212140     2.9759130568
  145      C       8.2671939247     0.5053577898    -0.9561148883
  146      C       1.7813523104     0.9502288711    -1.5896875162
  147      C       4.9742925896     4.6636245141     0.9908239005
  148      C       6.8340199108    -1.4128753422    -0.3990781777
  149      C       1.6463961742     2.7014104157     0.1071931629
  150      C       7.7450097866     0.4981528496    -2.2913724720
  151      C       7.6560199091     1.2612802862     1.7620737553
  152      C       4.5004317194     3.2724971633    -3.5012384955
  153      C       4.2570847844     1.9300405208    -3.9455024173
  154      C       8.1299618127     2.2058459472     0.7907057591
  155      C       2.4223843534    -0.2355607059    -1.8488129660
  156      C       4.8460592374    -1.5646041848    -1.9080538964
  157      C       2.3103270932     1.8653731264    -2.5115604310
  158      C       3.5562599061    -1.1828411570     1.3038486045
  159      C       6.5895444913     3.2339010569     2.1083806686
  160      C       6.2381982534    -1.3222339685    -1.7021858839
  161      C       8.3771017029     1.8092378176    -0.5339832105
  162      C       1.4915815492     1.3696338452    -0.2901563032
  163      C       7.1354162530     4.2343612794    -0.0336089118
  164      C       2.0819085409     2.6720681299     1.4435928070
  165      C       5.3750887884     4.9044201581    -1.3145450212
  166      C       6.6786217067     1.8837909417     2.5678139354
  167      C       7.4730025206     3.4244820698     1.0384546020
  168      C       3.9748485261    -0.3484167762     2.3753449974
  169      C       2.4983033453    -0.6646257977     0.4793428393
  170      C       3.5899034658     3.8565366456    -2.5608975028
  171      C       5.3366202046     3.8659794344     2.0677032002
  172      C       7.6829810440     1.8107711758    -2.7629608147
  173      C       3.1525372979     1.2991335615    -3.4262536727
  174      C       5.8648513728     3.4262690449    -3.2599166817
  175      C       1.8812719645     0.5226550690     0.7635829116
  176      C       2.1063416222     3.5973140712    -0.8445251910
 ----------------------------------------------------------------

    9   -5804.2467809052      7.97E-06 Convergence criterion met
 Total energy in the final basis set = -5804.2467809052

                    Orbital Energies (a.u.)
 --------------------------------------------------------------

 Alpha MOs
 -- Occupied --
-19.202 -19.190 -19.140 -19.126 -10.320 -10.306 -10.253 -10.250
-10.247 -10.242 -10.241 -10.240 -10.238 -10.236 -10.232 -10.231
-10.228 -10.228 -10.228 -10.226 -10.226 -10.225 -10.225 -10.222
-10.222 -10.222 -10.222 -10.222 -10.222 -10.221 -10.221 -10.221
-10.221 -10.220 -10.220 -10.220 -10.220 -10.220 -10.220 -10.219
-10.219 -10.219 -10.219 -10.219 -10.219 -10.219 -10.218 -10.218
-10.218 -10.218 -10.218 -10.218 -10.218 -10.218 -10.217 -10.217
-10.217 -10.217 -10.217 -10.217 -10.217 -10.217 -10.216 -10.216
-10.216 -10.216 -10.216 -10.216 -10.216 -10.216 -10.216 -10.215
-10.215 -10.215 -10.215 -10.215 -10.215 -10.215 -10.215 -10.215
-10.215 -10.215 -10.215 -10.215 -10.214 -10.214 -10.214 -10.214
-10.213 -10.213 -10.213 -10.213 -10.213 -10.213 -10.213 -10.213
-10.213 -10.213 -10.213 -10.212 -10.212 -10.212 -10.212 -10.212
-10.212 -10.211 -10.211 -10.211 -10.211 -10.211 -10.211 -10.211
-10.211 -10.210 -10.210 -10.210 -10.210 -10.210 -10.209 -10.209
-10.209 -10.209 -10.209 -10.209 -10.209 -10.208 -10.208 -10.207
-10.207 -10.207 -10.206 -10.206 -10.206 -10.206 -10.205 -10.205
-10.205 -10.204 -10.204 -10.204 -10.202 -10.201 -10.201 -10.201
-10.200 -10.199 -10.195 -10.191  -1.114  -1.077  -1.023  -1.006
 -0.986  -0.985  -0.969  -0.968  -0.966  -0.966  -0.963  -0.963
 -0.938  -0.938  -0.930  -0.929  -0.927  -0.927  -0.925  -0.925
 -0.922  -0.922  -0.898  -0.898  -0.893  -0.891  -0.887  -0.885
 -0.879  -0.875  -0.856  -0.850  -0.844  -0.844  -0.843  -0.842
 -0.838  -0.838  -0.827  -0.820  -0.814  -0.802  -0.802  -0.799
 -0.798  -0.796  -0.796  -0.795  -0.793  -0.792  -0.789  -0.787
 -0.774  -0.773  -0.771  -0.771  -0.769  -0.768  -0.767  -0.764
 -0.747  -0.747  -0.743  -0.743  -0.735  -0.734  -0.718  -0.718
 -0.717  -0.716  -0.715  -0.715  -0.713  -0.713  -0.711  -0.710
 -0.710  -0.708  -0.708  -0.707  -0.706  -0.702  -0.679  -0.676
 -0.662  -0.660  -0.660  -0.660  -0.649  -0.647  -0.633  -0.631
 -0.630  -0.629  -0.626  -0.624  -0.623  -0.621  -0.619  -0.619
 -0.618  -0.617  -0.616  -0.616  -0.612  -0.612  -0.612  -0.611
 -0.609  -0.608  -0.605  -0.605  -0.576  -0.566  -0.565  -0.565
 -0.562  -0.561  -0.560  -0.559  -0.559  -0.558  -0.555  -0.554
 -0.537  -0.536  -0.534  -0.534  -0.531  -0.528  -0.527  -0.526
 -0.524  -0.523  -0.523  -0.519  -0.518  -0.517  -0.516  -0.516
 -0.510  -0.508  -0.504  -0.502  -0.494  -0.494  -0.490  -0.488
 -0.487  -0.486  -0.484  -0.482  -0.480  -0.480  -0.478  -0.477
 -0.473  -0.473  -0.471  -0.470  -0.470  -0.468  -0.468  -0.467
 -0.466  -0.466  -0.464  -0.464  -0.464  -0.463  -0.462  -0.459
 -0.456  -0.455  -0.454  -0.454  -0.452  -0.447  -0.447  -0.445
 -0.444  -0.443  -0.442  -0.441  -0.440  -0.440  -0.434  -0.434
 -0.433  -0.432  -0.431  -0.430  -0.428  -0.427  -0.426  -0.425
 -0.424  -0.423  -0.422  -0.421  -0.421  -0.420  -0.420  -0.419
 -0.418  -0.417  -0.417  -0.416  -0.416  -0.415  -0.414  -0.414
 -0.413  -0.412  -0.410  -0.406  -0.404  -0.403  -0.401  -0.400
 -0.399  -0.395  -0.393  -0.393  -0.393  -0.391  -0.389  -0.384
 -0.381  -0.380  -0.378  -0.377  -0.371  -0.371  -0.369  -0.366
 -0.366  -0.365  -0.364  -0.362  -0.362  -0.360  -0.360  -0.359
 -0.357  -0.357  -0.356  -0.355  -0.353  -0.353  -0.352  -0.352
 -0.351  -0.350  -0.349  -0.349  -0.347  -0.347  -0.347  -0.346
 -0.346  -0.344  -0.342  -0.341  -0.339  -0.339  -0.338  -0.335
 -0.334  -0.333  -0.332  -0.331  -0.329  -0.328  -0.326  -0.325
 -0.320  -0.311  -0.305  -0.298  -0.284  -0.284  -0.275  -0.272
 -0.271  -0.270  -0.269  -0.269  -0.268  -0.266  -0.264  -0.263
 -0.262  -0.262  -0.261  -0.260  -0.259  -0.258  -0.255  -0.254
 -0.253  -0.250  -0.247  -0.245  -0.222  -0.219  -0.214  -0.212
 -0.211  -0.210  -0.209  -0.208  -0.202  -0.200

          Ground-State Mulliken Net Atomic Charges

     Atom                 Charge (a.u.)
  ----------------------------------------
      1 O                    -0.438137
      2 C                    -0.102171
      3 H                     0.125639
      4 H                     0.138409
      5 H                     0.129930
      6 O                    -0.463945
      7 C                     0.583950
      8 C                    -0.255994
      9 H                     0.114160
     10 H                     0.125576
     11 C                    -0.198691
     12 H                     0.127625
     13 H                     0.112175
     14 C                    -0.184114
     15 H                     0.120631
     16 H                     0.111212
     17 C                     0.019100
     18 C                     0.080889
     19 C                    -0.105930
     20 H                     0.094288
     21 C                    -0.097207
     22 H                     0.092130
     23 C                    -0.079579
     24 H                     0.101767
     25 C                    -0.098242
     26 H                     0.085779
     27 C                    -0.096776
     28 H                     0.093393
     29 C                     0.024298
     30 C                     0.010761
     31 C                    -0.025405
     32 C                    -0.038381
     33 C                     0.016779
     34 C                     0.003035
     35 C                    -0.038223
     36 C                     0.017498
     37 C                     0.003035
     38 C                     0.013943
     39 C                    -0.075733
     40 C                     0.012418
     41 C                    -0.007296
     42 C                    -0.002047
     43 C                     0.035767
     44 C                    -0.032804
     45 C                    -0.089773
     46 C                     0.046461
     47 C                     0.006763
     48 C                    -0.016149
     49 C                    -0.010522
     50 C                     0.021214
     51 C                    -0.029336
     52 C                    -0.009842
     53 C                     0.005160
     54 C                    -0.006993
     55 C                     0.010786
     56 C                    -0.038179
     57 C                    -0.019279
     58 C                    -0.000540
     59 C                     0.008382
     60 C                     0.027463
     61 C                    -0.017348
     62 C                     0.012546
     63 C                     0.006271
     64 C                     0.032728
     65 C                     0.016828
     66 C                     0.014769
     67 C                     0.008875
     68 C                     0.033170
     69 C                     0.001876
     70 C                     0.012220
     71 C                     0.014398
     72 C                    -0.056688
     73 C                    -0.015721
     74 C                    -0.025504
     75 C                    -0.024002
     76 C                     0.002830
     77 C                     0.030486
     78 C                    -0.016932
     79 C                    -0.008023
     80 C                     0.008866
     81 C                     0.005670
     82 C                    -0.037358
     83 C                    -0.011383
     84 C                    -0.008328
     85 C                     0.004698
     86 C                     0.017091
     87 C                     0.010447
     88 C                     0.019419
     89 O                    -0.487441
     90 C                    -0.092339
     91 H                     0.141439
     92 H                     0.130699
     93 H                     0.129566
     94 O                    -0.459250
     95 C                     0.591849
     96 C                    -0.259959
     97 H                     0.128626
     98 H                     0.129920
     99 C                    -0.177378
    100 H                     0.123612
    101 H                     0.117073
    102 C                    -0.172631
    103 H                     0.111584
    104 H                     0.114823
    105 C                     0.004331
    106 C                     0.082367
    107 C                    -0.122175
    108 H                     0.088076
    109 C                    -0.097465
    110 H                     0.095414
    111 C                    -0.071546
    112 H                     0.098362
    113 C                    -0.094291
    114 H                     0.089420
    115 C                    -0.098381
    116 H                     0.096494
    117 C                     0.004547
    118 C                    -0.009238
    119 C                    -0.012726
    120 C                    -0.020060
    121 C                    -0.023565
    122 C                    -0.012235
    123 C                    -0.006921
    124 C                    -0.009187
    125 C                     0.014687
    126 C                    -0.012200
    127 C                    -0.085574
    128 C                     0.002099
    129 C                     0.014743
    130 C                     0.008064
    131 C                     0.006930
    132 C                     0.017773
    133 C                    -0.059568
    134 C                     0.033160
    135 C                    -0.000965
    136 C                     0.002981
    137 C                    -0.011686
    138 C                    -0.015828
    139 C                    -0.025649
    140 C                    -0.016222
    141 C                     0.069650
    142 C                     0.020781
    143 C                     0.028077
    144 C                     0.014235
    145 C                    -0.023846
    146 C                     0.011657
    147 C                     0.057123
    148 C                     0.015476
    149 C                     0.022804
    150 C                    -0.011407
    151 C                    -0.030093
    152 C                    -0.016680
    153 C                    -0.021729
    154 C                    -0.001098
    155 C                    -0.000223
    156 C                    -0.023104
    157 C                     0.008441
    158 C                    -0.008806
    159 C                    -0.011063
    160 C                    -0.014396
    161 C                     0.037632
    162 C                    -0.023398
    163 C                    -0.002651
    164 C                    -0.015859
    165 C                    -0.024858
    166 C                    -0.007194
    167 C                    -0.001969
    168 C                    -0.014953
    169 C                     0.030914
    170 C                     0.010166
    171 C                    -0.014782
    172 C                    -0.013539
    173 C                     0.019123
    174 C                     0.002978
    175 C                     0.017249
    176 C                     0.000151
  ----------------------------------------
  Sum of atomic charges =     0.000000

                    Cartesian Multipole Moments
 -----------------------------------------------------------------
    Charge (ESU x 10^10)
                 0.0000
    Dipole Moment (Debye)
         X      -1.8306      Y      -0.8896      Z       0.7696
       Tot       2.1759
    Quadrupole Moments (Debye-Ang)
        XX    -812.8941     XY     -10.7705     YY    -814.7147
        XZ      14.6577     YZ     -30.4996     ZZ    -806.9436

 Total job time:  830.58s(wall), 7074.90s(cpu)
        *  Thank you very much for using Q-Chem.  Have a nice day.  *
