 Q-Chem 4.4, Q-Chem, Inc., Pleasanton, CA (2016)
 Q-Chem 4.4.2 for Intel X86 Linux

User input:
--------------------------------------------------------------
$comment
SP
$end

$rem
MEM_STATIC 5000
MEM_TOTAL 20000
JOBTYPE SP
EXCHANGE B3LYP
BASIS 6-31g(d,p)
$end

$molecule
0 1
O          -9.211000     32.907000    -14.624000
C          -8.194000     33.558000    -15.409000
H          -7.176000     33.270000    -15.117000
H          -8.327000     34.647000    -15.403000
H          -8.390000     33.322000    -16.462000
O          -8.796000     34.085000    -12.661000
C          -9.373000     33.268000    -13.307000
C         -10.509000     32.453000    -12.632000
H         -11.434000     32.728000    -13.155000
H         -10.614000     32.930000    -11.650000
C         -10.315000     30.911000    -12.706000
H         -10.194000     30.608000    -13.754000
H          -9.440000     30.632000    -12.106000
C         -11.510000     30.319000    -12.010000
H         -11.488000     30.678000    -10.974000
H         -12.439000     30.557000    -12.542000
C         -11.375000     28.741000    -11.828000
C         -11.465000     27.985000    -13.151000
C         -10.346000     27.828000    -13.965000
H          -9.383000     28.245000    -13.686000
C         -10.417000     27.229000    -15.226000
H          -9.586000     27.171000    -15.922000
C         -11.600000     26.600000    -15.651000
H         -11.669000     25.980000    -16.540000
C         -12.754000     26.723000    -14.776000
H         -13.689000     26.294000    -15.125000
C         -12.714000     27.481000    -13.605000
H         -13.547000     27.577000    -12.915000
C         -13.062000     24.144000     -9.300000
C         -10.711000     23.794000     -9.711000
C          -9.292000     23.898000     -5.525000
C         -13.562000     28.467000     -6.736000
C          -8.100000     27.176000     -5.830000
C         -11.917000     24.343000    -10.097000
C         -11.340000     28.813000     -5.071000
C         -11.293000     22.954000     -6.448000
C          -8.577000     27.165000     -9.819000
C         -12.484000     29.284000     -7.111000
C         -10.528000     28.249000    -10.728000
C          -8.766000     28.324000     -9.126000
C         -10.256000     29.620000     -7.160000
C         -10.119000     28.149000     -4.726000
C         -10.216000     25.699000    -10.814000
C          -9.548000     25.822000     -4.353000
C         -11.999000     28.020000    -10.623000
C         -12.778000     28.583000     -9.446000
C          -8.454000     25.961000     -5.195000
C         -13.527000     25.319000     -5.153000
C         -11.507000     24.411000     -4.566000
C         -12.153000     23.537000     -5.487000
C         -11.726000     22.893000     -7.723000
C         -13.757000     27.623000     -8.975000
C          -9.633000     27.000000    -10.727000
C         -10.632000     22.949000     -8.588000
C         -11.377000     29.500000     -6.313000
C          -9.650000     24.594000    -10.118000
C          -8.323000     28.360000     -7.802000
C         -14.456000     26.376000     -7.101000
C          -9.887000     23.022000     -6.408000
C          -9.916000     29.017000     -9.538000
C         -13.748000     24.058000     -7.185000
C          -9.076000     28.978000     -6.840000
C          -8.050000     26.012000     -9.214000
C         -11.818000     26.776000     -4.142000
C         -12.387000     27.902000     -4.729000
C          -7.580000     26.061000     -7.884000
C         -14.135000     27.621000     -7.670000
C         -12.100000     29.277000     -8.420000
C         -14.069000     26.475000     -5.740000
C         -12.462000     26.630000    -10.592000
C          -8.425000     23.955000     -8.161000
C         -10.719000     29.557000     -8.506000
C          -7.693000     27.229000     -7.179000
C         -14.303000     25.190000     -7.817000
C          -8.234000     24.747000     -5.880000
C         -12.973000     23.392000     -8.112000
C         -10.095000     24.577000     -4.587000
C          -8.491000     24.711000     -9.333000
C          -7.777000     24.809000     -7.250000
C         -11.615000     25.536000    -10.809000
C         -13.547000     26.487000     -9.735000
C         -12.392000     25.490000     -4.326000
C          -9.468000     23.066000     -7.759000
C          -8.972000     28.286000     -5.609000
C         -13.514000     27.765000     -5.562000
C         -10.418000     26.889000     -4.176000
C         -13.846000     25.239000     -9.173000
C         -13.381000     24.124000     -5.802000
O         -11.669000     14.156000     -1.325000
C         -10.695000     13.167000     -1.571000
H         -11.196000     12.194000     -1.648000
H         -10.041000     13.081000     -0.695000
H         -10.152000     13.413000     -2.492000
O         -12.738000     12.971000      0.332000
C         -12.521000     13.995000     -0.342000
C         -13.193000     15.280000     -0.074000
H         -14.192000     15.059000      0.321000
H         -13.334000     15.762000     -1.050000
C         -12.616000     16.222000      1.015000
H         -12.846000     15.722000      1.964000
H         -11.522000     16.293000      0.992000
C         -13.304000     17.603000      0.862000
H         -13.075000     18.041000     -0.118000
H         -14.391000     17.458000      0.823000
C         -12.958000     18.644000      1.980000
C         -13.671000     18.321000      3.235000
C         -12.990000     17.562000      4.234000
H         -11.973000     17.248000      4.017000
C         -13.622000     17.247000      5.427000
H         -13.128000     16.675000      6.207000
C         -14.984000     17.689000      5.647000
H         -15.487000     17.505000      6.592000
C         -15.636000     18.443000      4.611000
H         -16.610000     18.864000      4.843000
C         -14.989000     18.783000      3.374000
H         -15.486000     19.363000      2.602000
C         -12.554000     23.960000      3.214000
C         -11.054000     22.892000      4.781000
C          -7.178000     24.484000      2.921000
C         -11.448000     22.634000     -1.513000
C          -6.619000     21.470000      1.151000
C         -12.266000     22.869000      4.061000
C          -8.667000     22.266000     -1.691000
C          -9.285000     25.560000      3.298000
C          -9.558000     19.599000      3.153000
C         -10.896000     21.290000     -1.529000
C         -11.576000     19.254000      2.070000
C          -9.268000     19.190000      1.864000
C          -9.234000     20.007000     -0.736000
C          -7.456000     22.293000     -0.935000
C         -11.390000     20.790000      4.055000
C          -6.807000     23.813000      0.810000
C         -12.737000     20.096000      1.499000
C         -12.587000     20.621000      0.076000
C          -6.350000     22.790000      1.640000
C         -10.259000     25.649000     -0.104000
C          -8.250000     25.709000      1.095000
C          -9.327000     26.068000      1.994000
C         -10.509000     25.131000      3.890000
C         -12.993000     21.998000      0.175000
C         -10.931000     19.716000      3.338000
C         -10.196000     24.038000      4.725000
C          -9.489000     21.108000     -1.604000
C         -10.516000     21.609000      4.766000
C          -8.123000     19.708000      1.246000
C         -12.297000     24.279000     -0.206000
C          -8.233000     24.769000      3.763000
C         -10.411000     19.023000      1.126000
C         -11.750000     25.523000      1.816000
C          -7.991000     20.062000     -0.106000
C          -8.630000     20.417000      3.910000
C          -8.361000     24.344000     -0.956000
C          -9.201000     23.546000     -1.712000
C          -7.436000     20.888000      3.337000
C         -12.473000     22.961000     -0.665000
C         -11.435000     20.315000     -0.699000
C         -11.129000     24.819000     -0.876000
C         -13.089000     21.309000      2.339000
C          -8.266000     22.579000      4.658000
C         -10.397000     19.581000     -0.164000
C          -7.256000     20.557000      1.999000
C         -12.592000     24.666000      1.151000
C          -6.618000     23.168000      2.958000
C         -11.713000     25.087000      3.142000
C          -7.226000     24.894000      1.589000
C          -9.120000     21.487000      4.678000
C          -7.158000     22.192000      3.816000
C         -12.521000     21.549000      3.617000
C         -13.304000     22.400000      1.503000
C          -8.876000     25.326000     -0.137000
C          -8.799000     23.868000      4.654000
C          -7.139000     21.180000     -0.110000
C         -10.592000     23.783000     -1.637000
C          -7.327000     23.546000     -0.479000
C         -13.151000     23.721000      1.967000
C         -10.496000     25.960000      1.252000
$end

--------------------------------------------------------------

             Standard Nuclear Orientation (Angstroms)
    I     Atom           X                Y                Z
 ----------------------------------------------------------------
    1      O     -14.0030197487     1.9634570114    -0.5269600632
    2      C     -15.0328665115     2.4945422607    -1.3823424941
    3      H     -14.6516547112     2.8332679765    -2.3541832489
    4      H     -15.6038475533     3.2802887213    -0.8722158926
    5      H     -15.7956849909     1.7155224972    -1.5013264246
    6      O     -12.9740158093     4.0034344674    -0.0877324777
    7      C     -13.0762826186     2.8217517908     0.0166780180
    8      C     -12.0502406379     2.0618284441     0.8999109210
    9      H     -12.6219469910     1.6376804132     1.7353923952
   10      H     -11.4699437072     2.8680457482     1.3648271831
   11      C     -11.2973319847     0.9193684236     0.1591075317
   12      H     -12.0262729121     0.2210467387    -0.2718750071
   13      H     -10.6573433378     1.3578068555    -0.6165549422
   14      C     -10.3708700086     0.3170585195     1.1797916092
   15      H      -9.6845298726     1.1110695779     1.4978240867
   16      H     -10.9304669091    -0.1415946677     2.0039260418
   17      C      -9.3808979681    -0.7514515203     0.5319685980
   18      C     -10.0981303285    -2.0195218945     0.0764027223
   19      C     -10.7251834925    -2.0821356460    -1.1654869055
   20      H     -10.7284999626    -1.2302962040    -1.8388794851
   21      C     -11.4736697515    -3.1912639523    -1.5699194958
   22      H     -12.0479661448    -3.2376719677    -2.4899037069
   23      C     -11.4772517298    -4.3678723755    -0.8009365389
   24      H     -11.8995384301    -5.3095579194    -1.1391439886
   25      C     -10.7798114900    -4.3157539644     0.4731634506
   26      H     -10.8299348134    -5.1997504735     1.1025320424
   27      C     -10.1914452203    -3.1412914637     0.9441920773
   28      H      -9.6423817332    -3.0694350784     1.8783071382
   29      C      -4.7657467581    -3.7341488827     0.9479707057
   30      C      -4.9720622486    -3.2428709297    -1.4046240090
   31      C      -1.5084621250    -0.5254555532    -1.8121787352
   32      C      -4.8813849725     0.6445044054     3.4632138720
   33      C      -3.5307045275     2.3327616632    -1.7947715566
   34      C      -5.5680239386    -3.5040708212    -0.1874809275
   35      C      -3.6966953652     2.6380448498     1.8974769748
   36      C      -1.7511316637    -2.5237322531    -0.5102310690
   37      C      -6.8945462158     0.1692070050    -2.1734156342
   38      C      -5.6533033064     1.5296197927     2.6945066215
   39      C      -8.2037264908    -0.2425734109    -0.1924507439
   40      C      -6.9197828493     1.3233823298    -1.4478169627
   41      C      -5.9151545600     2.6758139531     0.7717601827
   42      C      -3.0746451043     2.7968270393     0.6173974112
   43      C      -6.9276704833    -2.1175936319    -1.4020871506
   44      C      -1.5331591896     1.4247775312    -0.6559447747
   45      C      -7.9655061557    -0.9691416505     1.0892109374
   46      C      -7.2530789127    -0.2768764131     2.2391480072
   47      C      -2.3407165752     1.5657427287    -1.7753646611
   48      C      -1.8687971556    -0.9836404619     2.6322644532
   49      C      -0.9271481744    -0.5665099140     0.5856251830
   50      C      -1.2307587100    -1.9553691014     0.6768600467
   51      C      -2.7905047700    -3.3742887143    -0.3958096884
   52      C      -6.3257360546    -1.1842438728     2.8861422242
   53      C      -7.5561218311    -0.8359948335    -1.4531990217
   54      C      -3.5734469404    -3.3084352219    -1.5494395577
   55      C      -5.1129494522     2.5408613447     1.9235868878
   56      C      -5.7617333126    -2.3935057483    -2.1703709641
   57      C      -5.8258130970     2.1828860323    -1.5703100912
   58      C      -4.0628477939    -1.5083381425     3.4604118681
   59      C      -1.7797822153    -1.8763074728    -1.7604631673
   60      C      -7.6153217868     1.1830387645    -0.2357846735
   61      C      -2.9157905550    -3.0419235554     1.9725209205
   62      C      -5.3251972029     2.8224453475    -0.4681646340
   63      C      -5.7794514646    -0.2042809695    -2.9416821430
   64      C      -1.8186540871     1.3327537533     1.7971270318
   65      C      -2.9033698204     1.6771363436     2.5977507946
   66      C      -4.6878134061     0.6792166178    -3.0829597517
   67      C      -5.2122530027    -0.6993353324     3.4951842594
   68      C      -6.7655055001     1.0382825503     2.0759761094
   69      C      -2.9699582312    -0.6051420604     3.4189360783
   70      C      -7.1920798172    -2.2120721454     1.0231391305
   71      C      -3.7876921211    -1.4218660990    -3.1179324480
   72      C      -7.0130380353     1.7765571314     0.8984213179
   73      C      -4.7090948580     1.8773147631    -2.4210489313
   74      C      -4.0420714089    -2.7093068963     2.7533734009
   75      C      -2.2800659393     0.3859019003    -2.5471924397
   76      C      -3.3616736425    -3.6921849876     0.8403290896
   77      C      -1.0596429342     0.1287441699    -0.6475852197
   78      C      -5.1807704213    -1.4434795220    -3.0265994899
   79      C      -3.4819635052    -0.0524776930    -3.2201401147
   80      C      -6.8105655227    -2.8130812605    -0.1829159622
   81      C      -6.3698614843    -2.3450590583     2.1359708761
   82      C      -1.2804989402     0.0187133939     1.8256747450
   83      C      -2.9553103818    -2.3347445717    -2.4012961845
   84      C      -3.9168618171     2.9378042384    -0.5594047974
   85      C      -3.5149636246     0.7012487283     3.4079257023
   86      C      -1.9337766911     1.9759619193     0.5533605581
   87      C      -5.2252045138    -3.1508026444     2.0786411869
   88      C      -1.7863594912    -2.1614756061     1.9420105834
   89      O       7.2692338763    -6.9246411337    -2.2584631897
   90      C       7.5680164427    -7.4071904012    -3.5488848970
   91      H       8.0291389722    -8.3981418678    -3.4538049116
   92      H       8.3433880611    -6.7752261381    -3.9982266640
   93      H       6.6470474571    -7.4483071349    -4.1436382423
   94      O       9.3223343667    -7.4591298855    -1.3686681849
   95      C       8.2033604265    -6.9141912419    -1.3390000920
   96      C       7.7602823973    -6.0696521926    -0.2142473839
   97      H       8.2310159291    -6.4543932159     0.6985786055
   98      H       6.6801924586    -6.2363209692    -0.1122265859
   99      C       8.1713561833    -4.5742153460    -0.1842310523
  100      H       9.2451073970    -4.5865055207     0.0402868370
  101      H       8.0936104860    -4.0831423737    -1.1615789650
  102      C       7.3209932183    -3.8692629114     0.9038125556
  103      H       6.2539432625    -3.9202792068     0.6518468250
  104      H       7.3854085729    -4.4448243766     1.8358504635
  105      C       7.7083712551    -2.3780165763     1.1856700098
  106      C       8.9563356800    -2.3015822601     1.9759013618
  107      C      10.1929294256    -2.1155457981     1.2873744247
  108      H      10.1568552670    -2.0472978965     0.2038547530
  109      C      11.3826091497    -2.0302682285     1.9939774889
  110      H      12.3378749636    -1.8846031575     1.4981257853
  111      C      11.3596995962    -2.1398468508     3.4383720603
  112      H      12.2673060111    -2.0228996779     4.0235762590
  113      C      10.0938790112    -2.3360359812     4.0911538552
  114      H      10.0850038891    -2.2970507688     5.1765765311
  115      C       8.8533681155    -2.4175714125     3.3708326136
  116      H       7.9006843436    -2.5543833974     3.8738923631
  117      C       5.9217020128     2.4806369348     2.9596844061
  118      C       7.7881706578     3.0434038823     1.5294043076
  119      C       5.2941887214     4.9400017253    -1.8172971614
  120      C       2.6016836359    -0.4085558516     0.5191754386
  121      C       5.3857875558     1.9819779151    -3.7592759954
  122      C       7.2133173760     2.1758879894     2.4806313468
  123      C       2.5942048289     0.3593641159    -2.1847683461
  124      C       5.0814174034     5.0900492885     0.5642082648
  125      C       8.1306723933     0.3241735564    -1.3377768859
  126      C       3.2918019830    -1.2237609161    -0.4659506293
  127      C       7.4345687988    -1.2991530220     0.1603848562
  128      C       7.2507485618    -0.5048754555    -2.0095758042
  129      C       4.6138826644    -1.1402580032    -2.2776658209
  130      C       3.1974434239     1.2472332902    -3.1263508050
  131      C       8.2963097717     0.9331358445     0.9403886460
  132      C       3.8557125219     3.5388170704    -2.8231156271
  133      C       6.5254047469    -1.4075650170     1.4032016432
  134      C       5.0384006457    -1.6416828400     1.1643258433
  135      C       5.0936285652     3.3471687926    -3.4355801627
  136      C       2.1709643633     3.0883497035     0.7936921910
  137      C       3.1169017450     4.5458733857    -0.7741436376
  138      C       3.7078424014     4.8227402054     0.5185840618
  139      C       5.8337388636     4.5500890430     1.6482453278
  140      C       4.3983085951    -0.7005682271     2.0448662751
  141      C       8.2509897644    -0.0569676722    -0.0061244935
  142      C       7.1157834242     4.2481394955     1.1432391741
  143      C       3.2985480324    -0.8246312451    -1.8294197329
  144      C       8.4469910078     2.2698573404     0.5789625714
  145      C       6.4306052558     0.0583992719    -2.9951515441
  146      C       2.8506924636     1.1507838924     2.1444536199
  147      C       5.8757522998     5.1409763100    -0.5825473809
  148      C       6.7358575859    -1.4637015165    -1.1761960183
  149      C       3.8921257055     3.3245197856     2.4987389137
  150      C       5.0949238288    -0.2796697812    -3.2640538330
  151      C       8.3198323810     1.7048295900    -1.7394787854
  152      C       2.1070026432     2.4433231182    -1.5751012999
  153      C       1.9064115516     1.1145541257    -1.2463518837
  154      C       7.5618534713     2.2741355923    -2.7773442141
  155      C       3.1654521519    -0.1600638757     1.7427255186
  156      C       4.5229206506    -1.7861811025    -0.1527791741
  157      C       1.9743856641     1.7148382967     1.1351701997
  158      C       6.5990476791    -0.2063683719     2.3265522474
  159      C       7.7979246187     3.8834960652    -1.1501837175
  160      C       5.3465249715    -1.6627700695    -1.2522657086
  161      C       6.6010532191     1.4359551981    -3.3309880546
  162      C       3.7999936068     1.9942818877     2.8267889271
  163      C       6.0141715548     4.1756376140    -2.7889952755
  164      C       5.2461764438     3.6559457577     2.5790160773
  165      C       3.9490758127     4.5811362974    -1.8980118898
  166      C       8.4110561391     2.7042262469    -0.7557570015
  167      C       7.2695559999     3.6257961246    -2.4695829533
  168      C       7.5433280127     0.8385366603     2.1533006234
  169      C       5.3153783370     0.1336648277     2.7412478506
  170      C       2.2886447411     3.3898885171    -0.5895404982
  171      C       7.1197299008     4.6543670581    -0.2060249189
  172      C       4.4815685068     0.9266315855    -3.6441541640
  173      C       1.8701448057     0.7642581508     0.1220970386
  174      C       2.9155583815     2.4873966122    -2.7054924469
  175      C       5.0036916859     1.4398614296     3.1660394098
  176      C       3.1587063804     3.8966667202     1.3958676706
 ----------------------------------------------------------------

    9   -5804.2827256448      8.45E-06 Convergence criterion met
 Total energy in the final basis set = -5804.2827256448

                    Orbital Energies (a.u.)
 --------------------------------------------------------------

 Alpha MOs
 -- Occupied --
-19.202 -19.198 -19.141 -19.128 -10.317 -10.312 -10.250 -10.248
-10.243 -10.242 -10.241 -10.239 -10.236 -10.235 -10.232 -10.230
-10.228 -10.226 -10.226 -10.225 -10.223 -10.222 -10.221 -10.221
-10.220 -10.220 -10.219 -10.219 -10.219 -10.219 -10.219 -10.218
-10.218 -10.218 -10.218 -10.218 -10.218 -10.218 -10.218 -10.218
-10.217 -10.217 -10.217 -10.217 -10.217 -10.217 -10.217 -10.216
-10.216 -10.216 -10.216 -10.216 -10.216 -10.216 -10.215 -10.215
-10.215 -10.215 -10.215 -10.215 -10.215 -10.215 -10.214 -10.214
-10.214 -10.214 -10.214 -10.214 -10.214 -10.214 -10.214 -10.214
-10.214 -10.213 -10.213 -10.213 -10.213 -10.213 -10.213 -10.213
-10.213 -10.213 -10.213 -10.213 -10.213 -10.212 -10.212 -10.212
-10.212 -10.212 -10.212 -10.212 -10.211 -10.211 -10.211 -10.211
-10.211 -10.211 -10.211 -10.211 -10.211 -10.211 -10.210 -10.210
-10.210 -10.210 -10.210 -10.210 -10.210 -10.210 -10.210 -10.209
-10.209 -10.209 -10.209 -10.208 -10.208 -10.208 -10.208 -10.208
-10.207 -10.207 -10.207 -10.207 -10.207 -10.207 -10.206 -10.206
-10.206 -10.206 -10.205 -10.205 -10.205 -10.205 -10.204 -10.204
-10.204 -10.204 -10.204 -10.203 -10.202 -10.202 -10.201 -10.201
-10.201 -10.200 -10.199 -10.193  -1.116  -1.096  -1.028  -1.001
 -0.983  -0.981  -0.965  -0.963  -0.963  -0.962  -0.961  -0.958
 -0.935  -0.929  -0.929  -0.927  -0.925  -0.924  -0.923  -0.921
 -0.920  -0.918  -0.896  -0.895  -0.890  -0.889  -0.886  -0.883
 -0.876  -0.871  -0.852  -0.845  -0.842  -0.841  -0.839  -0.837
 -0.835  -0.835  -0.821  -0.819  -0.809  -0.807  -0.799  -0.796
 -0.795  -0.794  -0.794  -0.793  -0.791  -0.790  -0.784  -0.780
 -0.772  -0.770  -0.768  -0.768  -0.766  -0.764  -0.763  -0.760
 -0.751  -0.750  -0.746  -0.742  -0.734  -0.732  -0.716  -0.716
 -0.714  -0.713  -0.712  -0.712  -0.710  -0.710  -0.709  -0.709
 -0.706  -0.704  -0.703  -0.702  -0.701  -0.700  -0.674  -0.670
 -0.660  -0.657  -0.657  -0.656  -0.645  -0.645  -0.632  -0.632
 -0.626  -0.625  -0.625  -0.622  -0.621  -0.620  -0.618  -0.616
 -0.615  -0.615  -0.612  -0.611  -0.611  -0.609  -0.608  -0.606
 -0.606  -0.606  -0.602  -0.601  -0.574  -0.570  -0.563  -0.563
 -0.561  -0.559  -0.558  -0.557  -0.555  -0.555  -0.554  -0.553
 -0.536  -0.534  -0.533  -0.531  -0.529  -0.528  -0.526  -0.524
 -0.522  -0.520  -0.518  -0.517  -0.515  -0.514  -0.514  -0.513
 -0.507  -0.507  -0.499  -0.497  -0.494  -0.493  -0.491  -0.486
 -0.485  -0.484  -0.483  -0.483  -0.482  -0.478  -0.478  -0.477
 -0.472  -0.472  -0.471  -0.469  -0.468  -0.467  -0.467  -0.465
 -0.464  -0.463  -0.463  -0.462  -0.462  -0.460  -0.460  -0.457
 -0.456  -0.454  -0.454  -0.452  -0.449  -0.449  -0.446  -0.444
 -0.442  -0.441  -0.438  -0.438  -0.436  -0.435  -0.433  -0.431
 -0.430  -0.429  -0.428  -0.427  -0.426  -0.425  -0.424  -0.423
 -0.422  -0.421  -0.420  -0.419  -0.419  -0.418  -0.418  -0.417
 -0.417  -0.416  -0.415  -0.415  -0.414  -0.413  -0.413  -0.412
 -0.411  -0.410  -0.409  -0.407  -0.399  -0.398  -0.396  -0.396
 -0.395  -0.394  -0.392  -0.389  -0.388  -0.387  -0.387  -0.384
 -0.384  -0.381  -0.377  -0.373  -0.370  -0.369  -0.368  -0.366
 -0.364  -0.363  -0.362  -0.360  -0.359  -0.358  -0.357  -0.357
 -0.357  -0.356  -0.356  -0.354  -0.353  -0.351  -0.351  -0.350
 -0.350  -0.348  -0.348  -0.347  -0.346  -0.346  -0.345  -0.343
 -0.343  -0.339  -0.339  -0.337  -0.337  -0.336  -0.334  -0.333
 -0.333  -0.332  -0.330  -0.328  -0.327  -0.327  -0.324  -0.324
 -0.316  -0.308  -0.308  -0.299  -0.288  -0.285  -0.271  -0.270
 -0.269  -0.267  -0.267  -0.266  -0.265  -0.263  -0.263  -0.262
 -0.261  -0.261  -0.260  -0.257  -0.257  -0.256  -0.255  -0.254
 -0.248  -0.246  -0.245  -0.240  -0.223  -0.218  -0.212  -0.211
 -0.210  -0.209  -0.204  -0.202  -0.201  -0.197

          Ground-State Mulliken Net Atomic Charges

     Atom                 Charge (a.u.)
  ----------------------------------------
      1 O                    -0.467674
      2 C                    -0.090163
      3 H                     0.129869
      4 H                     0.129005
      5 H                     0.123879
      6 O                    -0.442611
      7 C                     0.582218
      8 C                    -0.256217
      9 H                     0.120482
     10 H                     0.132519
     11 C                    -0.183005
     12 H                     0.131315
     13 H                     0.110420
     14 C                    -0.164818
     15 H                     0.111588
     16 H                     0.111895
     17 C                    -0.009473
     18 C                     0.083033
     19 C                    -0.104597
     20 H                     0.090194
     21 C                    -0.092630
     22 H                     0.091129
     23 C                    -0.085645
     24 H                     0.096593
     25 C                    -0.100609
     26 H                     0.089526
     27 C                    -0.097185
     28 H                     0.093745
     29 C                    -0.005036
     30 C                     0.023499
     31 C                     0.009695
     32 C                    -0.002927
     33 C                    -0.006635
     34 C                    -0.003414
     35 C                    -0.029805
     36 C                     0.032752
     37 C                     0.020360
     38 C                     0.024797
     39 C                    -0.078695
     40 C                     0.026597
     41 C                    -0.021239
     42 C                    -0.015571
     43 C                     0.000463
     44 C                     0.009921
     45 C                    -0.088366
     46 C                    -0.015052
     47 C                     0.010274
     48 C                     0.020212
     49 C                    -0.002494
     50 C                    -0.027055
     51 C                     0.020626
     52 C                    -0.013333
     53 C                     0.005624
     54 C                    -0.036434
     55 C                     0.001865
     56 C                    -0.011013
     57 C                     0.001601
     58 C                    -0.016328
     59 C                    -0.018711
     60 C                     0.013069
     61 C                    -0.008368
     62 C                     0.023126
     63 C                     0.030573
     64 C                     0.010380
     65 C                     0.001694
     66 C                    -0.000492
     67 C                     0.019743
     68 C                     0.025922
     69 C                    -0.010898
     70 C                     0.043857
     71 C                     0.027387
     72 C                    -0.020611
     73 C                    -0.016759
     74 C                    -0.004107
     75 C                    -0.018310
     76 C                    -0.002848
     77 C                     0.016140
     78 C                    -0.025314
     79 C                    -0.027432
     80 C                    -0.013654
     81 C                     0.038552
     82 C                    -0.023667
     83 C                    -0.011926
     84 C                    -0.017995
     85 C                     0.000996
     86 C                     0.020590
     87 C                    -0.016955
     88 C                     0.000442
     89 O                    -0.420154
     90 C                    -0.093490
     91 H                     0.136264
     92 H                     0.127251
     93 H                     0.126486
     94 O                    -0.498907
     95 C                     0.577601
     96 C                    -0.244517
     97 H                     0.128944
     98 H                     0.114633
     99 C                    -0.185817
    100 H                     0.127279
    101 H                     0.106754
    102 C                    -0.175422
    103 H                     0.108497
    104 H                     0.111807
    105 C                     0.000998
    106 C                     0.082132
    107 C                    -0.088078
    108 H                     0.096240
    109 C                    -0.098450
    110 H                     0.095508
    111 C                    -0.085818
    112 H                     0.095780
    113 C                    -0.104689
    114 H                     0.089222
    115 C                    -0.095294
    116 H                     0.100450
    117 C                     0.005058
    118 C                    -0.006193
    119 C                     0.000432
    120 C                     0.000391
    121 C                    -0.006497
    122 C                    -0.019974
    123 C                     0.002923
    124 C                    -0.001316
    125 C                     0.008126
    126 C                    -0.020353
    127 C                    -0.109699
    128 C                     0.013118
    129 C                    -0.008914
    130 C                    -0.023176
    131 C                     0.017402
    132 C                     0.015871
    133 C                    -0.111468
    134 C                     0.008024
    135 C                    -0.014113
    136 C                    -0.009644
    137 C                    -0.037924
    138 C                    -0.008666
    139 C                    -0.011718
    140 C                    -0.004251
    141 C                     0.034854
    142 C                     0.001683
    143 C                    -0.020857
    144 C                     0.010059
    145 C                     0.006845
    146 C                    -0.012223
    147 C                     0.038601
    148 C                     0.007950
    149 C                    -0.010481
    150 C                    -0.031620
    151 C                    -0.022959
    152 C                    -0.004950
    153 C                     0.009582
    154 C                    -0.015567
    155 C                     0.002260
    156 C                    -0.004170
    157 C                    -0.024016
    158 C                     0.039834
    159 C                     0.008160
    160 C                     0.074849
    161 C                     0.013279
    162 C                     0.016284
    163 C                    -0.016095
    164 C                    -0.003369
    165 C                     0.012281
    166 C                     0.000614
    167 C                    -0.005421
    168 C                    -0.005229
    169 C                     0.026635
    170 C                     0.016412
    171 C                    -0.013486
    172 C                     0.010493
    173 C                     0.010168
    174 C                     0.024675
    175 C                    -0.010132
    176 C                     0.020304
  ----------------------------------------
  Sum of atomic charges =     0.000000

                    Cartesian Multipole Moments
 -----------------------------------------------------------------
    Charge (ESU x 10^10)
                 0.0000
    Dipole Moment (Debye)
         X      -4.2189      Y      -2.6786      Z      -0.5474
       Tot       5.0273
    Quadrupole Moments (Debye-Ang)
        XX    -743.6141     XY      33.9899     YY    -828.5136
        XZ      14.4188     YZ       3.2481     ZZ    -792.6896

 Total job time:  837.17s(wall), 7081.62s(cpu)
        *  Thank you very much for using Q-Chem.  Have a nice day.  *
