 Q-Chem 4.4, Q-Chem, Inc., Pleasanton, CA (2016)
 Q-Chem 4.4.2 for Intel X86 Linux

User input:
--------------------------------------------------------------
$comment
SP
$end

$rem
MEM_STATIC 5000
MEM_TOTAL 20000
JOBTYPE SP
EXCHANGE B3LYP
BASIS 6-31g(d,p)
$end

$molecule
0 1
O          10.411000     12.500000      9.085000
C          11.719000     13.031000      8.992000
H          12.404000     12.178000      9.079000
H          11.964000     13.876000      9.646000
H          11.876000     13.515000      8.020000
O           9.356000     14.428000      8.616000
C           9.371000     13.236000      8.803000
C           8.070000     12.470000      8.844000
H           7.956000     12.070000      7.829000
H           7.254000     13.197000      8.947000
C           7.889000     11.419000      9.888000
H           8.647000     10.630000      9.811000
H           8.038000     11.892000     10.867000
C           6.452000     10.870000      9.897000
H           5.790000     11.639000     10.314000
H           6.124000     10.642000      8.875000
C           6.348000      9.600000     10.752000
C           6.544000      9.926000     12.134000
C           5.429000     10.025000     13.026000
H           4.473000      9.902000     12.525000
C           5.545000     10.515000     14.329000
H           4.691000     10.587000     14.997000
C           6.766000     10.571000     14.919000
H           6.835000     10.951000     15.934000
C           7.892000     10.540000     14.075000
H           8.857000     10.654000     14.560000
C           7.780000     10.125000     12.733000
H           8.622000      9.874000     12.094000
C           8.341000      4.532000     11.334000
C           6.119000      4.410000     12.410000
C           4.247000      1.987000      9.048000
C           8.025000      6.418000      6.610000
C           2.731000      4.683000      7.516000
C           7.275000      5.103000     12.138000
C           5.552000      5.586000      5.611000
C           6.444000      1.783000     10.105000
C           3.576000      6.988000     10.667000
C           6.935000      7.257000      6.601000
C           5.459000      8.490000     10.304000
C           3.540000      7.498000      9.320000
C           4.762000      7.417000      6.874000
C           4.410000      4.894000      5.823000
C           5.494000      6.583000     12.062000
C           4.136000      2.810000      6.878000
C           6.918000      8.352000     10.224000
C           7.488000      8.104000      8.858000
C           3.071000      3.331000      7.667000
C           8.164000      2.942000      7.209000
C           6.201000      1.821000      7.622000
C           7.000000      1.829000      8.805000
C           7.024000      2.531000     11.086000
C           8.524000      7.108000      8.859000
C           4.792000      7.497000     11.259000
C           6.013000      3.104000     11.846000
C           5.732000      6.852000      6.041000
C           5.023000      5.283000     12.304000
C           2.977000      6.770000      8.304000
C           9.230000      5.005000      7.953000
C           5.020000      1.837000     10.223000
C           4.600000      8.318000      9.065000
C           8.817000      3.195000      9.577000
C           3.539000      6.752000      7.029000
C           3.098000      5.776000     10.927000
C           6.166000      3.439000      5.800000
C           6.672000      4.722000      5.571000
C           2.530000      5.006000      9.875000
C           8.814000      6.326000      7.732000
C           6.659000      8.110000      7.702000
C           8.733000      4.231000      6.890000
C           7.618000      7.227000     10.976000
C           3.665000      3.531000     11.318000
C           5.286000      8.228000      7.846000
C           2.421000      5.498000      8.579000
C           9.314000      4.455000      9.240000
C           3.179000      2.854000      8.970000
C           8.228000      3.203000     10.863000
C           4.748000      1.880000      7.721000
C           3.807000      4.888000     11.750000
C           2.937000      3.684000     10.102000
C           6.900000      6.483000     11.931000
C           8.559000      6.570000     10.144000
C           6.953000      2.565000      6.613000
C           4.788000      2.665000     11.325000
C           3.400000      5.447000      6.537000
C           7.914000      5.132000      6.122000
C           4.814000      3.571000      5.938000
C           8.930000      5.272000     10.348000
C           8.199000      2.484000      8.550000
O          11.711000      9.004000      7.119000
C          11.495000      9.131000      8.543000
H          12.450000      9.446000      8.981000
H          11.216000      8.179000      9.011000
H          10.645000      9.810000      8.685000
O           9.635000      9.801000      6.632000
C          10.682000      9.287000      6.291000
C          10.988000      8.923000      4.801000
H          11.962000      8.424000      4.727000
H          11.136000      9.907000      4.338000
C           9.709000      8.211000      4.117000
H           9.759000      7.195000      4.525000
H           8.826000      8.758000      4.471000
C           9.908000      8.130000      2.614000
H          10.071000      9.166000      2.291000
H          10.878000      7.687000      2.359000
C           8.688000      7.548000      1.847000
C           7.455000      8.453000      1.828000
C           7.372000      9.466000      0.823000
H           8.079000      9.537000      0.001000
C           6.221000     10.286000      0.818000
H           6.169000     10.990000     -0.008000
C           5.119000     10.110000      1.701000
H           4.241000     10.740000      1.593000
C           5.205000      9.095000      2.641000
H           4.393000      8.939000      3.344000
C           6.376000      8.350000      2.715000
H           6.464000      7.698000      3.579000
C           5.492000      3.158000      1.139000
C           5.180000      4.370000     -0.956000
C           7.649000      1.405000     -3.418000
C          10.334000      2.364000      2.346000
C          10.664000      3.301000     -3.263000
C           5.394000      4.364000      0.472000
C          11.805000      1.945000     -0.085000
C           5.981000      1.013000     -1.686000
C           8.570000      6.395000     -1.736000
C          11.064000      3.409000      1.791000
C           8.913000      6.649000      0.616000
C           9.938000      6.218000     -1.433000
C          11.638000      4.421000     -0.118000
C          11.674000      1.956000     -1.472000
C           6.532000      6.104000     -0.384000
C           9.868000      0.998000     -2.854000
C           8.455000      6.078000      1.952000
C           9.368000      5.011000      2.444000
C           9.800000      2.197000     -3.557000
C           8.370000      0.020000      0.683000
C           8.136000     -0.103000     -1.535000
C           6.873000      0.129000     -0.988000
C           5.281000      1.937000     -0.896000
C           8.564000      3.985000      2.906000
C           7.870000      6.564000     -0.567000
C           5.169000      3.141000     -1.627000
C          11.739000      3.209000      0.581000
C           5.938000      5.373000     -1.477000
C          10.777000      5.295000     -2.173000
C           8.235000      1.518000      2.583000
C           6.390000      1.619000     -2.926000
C          10.146000      6.262000     -0.015000
C           6.260000      1.066000      1.152000
C          11.615000      4.392000     -1.515000
C           8.001000      5.686000     -2.795000
C          10.297000      0.248000     -0.604000
C          10.939000      0.891000      0.456000
C           8.748000      4.838000     -3.544000
C           9.011000      2.651000      2.830000
C          10.576000      4.713000      1.832000
C           9.007000      0.597000      1.816000
C           7.095000      5.419000      1.949000
C           6.613000      3.976000     -3.363000
C          10.955000      5.359000      0.664000
C          10.166000      4.625000     -3.247000
C           6.923000      1.732000      2.248000
C           8.468000      2.500000     -3.802000
C           5.376000      1.909000      0.502000
C           8.568000      0.509000     -2.758000
C           6.676000      5.206000     -2.710000
C           7.920000      3.736000     -3.869000
C           6.223000      5.489000      0.804000
C           7.217000      4.195000      2.651000
C           9.024000     -0.257000     -0.539000
C           5.827000      2.936000     -2.894000
C          11.546000      3.135000     -2.216000
C          10.282000      1.112000      1.675000
C          10.781000      0.931000     -1.763000
C           6.448000      3.048000      2.185000
C           6.988000      0.168000      0.403000
$end

--------------------------------------------------------------

             Standard Nuclear Orientation (Angstroms)
    I     Atom           X                Y                Z
 ----------------------------------------------------------------
    1      O      -5.8727932454    -6.3066410618    -1.2026552774
    2      C      -5.7719048453    -7.3745584013    -2.1250695481
    3      H      -5.4382321924    -6.9321185339    -3.0723353632
    4      H      -6.6381968362    -8.0399830902    -2.2173418084
    5      H      -5.0264632410    -8.1081033012    -1.7935311726
    6      O      -6.2987776319    -7.5989835327     0.5857960752
    7      C      -6.0409289481    -6.5388295573     0.0703878829
    8      C      -6.0085802789    -5.2864893044     0.9139727658
    9      H      -4.9491338180    -5.1530528659     1.1649486879
   10      H      -6.4924886463    -5.5134461014     1.8727831247
   11      C      -6.6206726938    -4.0389532675     0.3696431669
   12      H      -6.1475735651    -3.7261655285    -0.5691619485
   13      H      -7.6676727779    -4.2598082699     0.1259530116
   14      C      -6.6581105116    -2.9189583122     1.4235220546
   15      H      -7.4217693429    -3.1708837422     2.1697477356
   16      H      -5.6875837228    -2.8378017327     1.9290350236
   17      C      -7.0056375059    -1.5673481667     0.7854656284
   18      C      -8.3633202560    -1.5805265792     0.3259660316
   19      C      -9.3949803395    -0.9336345130     1.0782280385
   20      H      -9.0402897323    -0.5254611330     2.0203825190
   21      C     -10.7513843194    -1.0711528399     0.7738894884
   22      H     -11.5261947248    -0.5763078354     1.3531314561
   23      C     -11.1222421467    -1.5188190436    -0.4525429157
   24      H     -12.1815945067    -1.6148542800    -0.6714853987
   25      C     -10.1574070116    -2.2165132428    -1.2032019372
   26      H     -10.4927318634    -2.6251511051    -2.1518949019
   27      C      -8.7913907126    -2.1549048076    -0.8627068986
   28      H      -7.9809472232    -2.4838830183    -1.5070986174
   29      C      -5.4097949949     2.0150758034    -3.0374811641
   30      C      -6.7056426665     3.3974871155    -1.4501369115
   31      C      -3.0376656837     5.4524546157     0.2823210035
   32      C      -1.7893980542    -0.6645494939    -0.6530813953
   33      C      -2.8335700419     3.4393057007     3.0786171994
   34      C      -6.5220746996     2.2138137835    -2.1252585631
   35      C      -0.9608477943     0.9066468220     1.5034900976
   36      C      -3.5914088517     4.9063062415    -2.0373264821
   37      C      -6.4266507710     1.8945441875     2.2666235163
   38      C      -2.2535333354    -0.8923134273     0.6215966156
   39      C      -6.3351528796    -0.3320540852     1.2830838535
   40      C      -5.3758581491     1.1298088025     2.8885717911
   41      C      -2.9039746167     0.0212520083     2.5095538012
   42      C      -1.0873655050     2.0677818643     2.1844678376
   43      C      -7.2631881463     1.7326760010     0.0165617593
   44      C      -1.3536917303     4.2431966731     1.3313572052
   45      C      -5.9825118936    -0.8928498917    -0.0266021387
   46      C      -4.5470185870    -1.2878641681    -0.2155007576
   47      C      -2.4340784128     4.4803862598     2.2284038686
   48      C      -1.0718958898     2.3977441903    -2.2556562096
   49      C      -1.3586427776     4.3475300507    -1.0738396752
   50      C      -2.3242976052     4.2831744448    -2.1232791018
   51      C      -4.6710804396     4.2564072587    -2.5571395007
   52      C      -4.0277048358    -0.9035673545    -1.4992227629
   53      C      -6.9626183311     1.0623810681     1.2137966942
   54      C      -5.7349400358     4.4173512093    -1.6794437651
   55      C      -1.7822669155    -0.1467286563     1.6925052535
   56      C      -7.0936666993     3.1185210816    -0.1286997008
   57      C      -4.2684819652     1.7459758560     3.4113194831
   58      C      -2.3287098421     0.3436895433    -2.6392434831
   59      C      -3.9433783139     5.5328535494    -0.8011339531
   60      C      -5.2685876148    -0.1147676774     2.3403497391
   61      C      -3.2387236523     2.4933078568    -3.4361506116
   62      C      -3.0004738114     1.1812527121     3.2886977369
   63      C      -6.3063565178     3.2129273094     2.1551639428
   64      C      -0.2680615970     2.5134718773     0.1033163490
   65      C      -0.4379405348     1.1296978550     0.2076072963
   66      C      -5.1515784599     3.8580355974     2.6772280515
   67      C      -2.6646313994    -0.6545271503    -1.7131451406
   68      C      -3.6159478845    -1.2150263620     0.8575393167
   69      C      -1.1512059439     0.9573658834    -2.1777893474
   70      C      -6.1607890195    -0.0543326061    -1.2860603667
   71      C      -5.7716752752     4.9764721861     0.6996844902
   72      C      -4.0067722932    -0.6595435880     2.0652164959
   73      C      -4.1527395992     3.1546866326     3.3414435016
   74      C      -3.3023972661     1.1055967685    -3.3005718285
   75      C      -3.4448955735     5.1731558561     1.5686153009
   76      C      -4.5175138855     3.0815791863    -3.2968186973
   77      C      -1.6994859863     4.9780211785     0.1953324348
   78      C      -6.6335529396     3.8629590616     0.9555993456
   79      C      -4.8222347697     4.8627045405     1.7568829812
   80      C      -6.8855897412     1.1502455161    -1.2172093599
   81      C      -5.0115650582    -0.1303228793    -2.1124160802
   82      C      -0.5788072984     3.1137814707    -1.1565564625
   83      C      -5.2908237081     5.2119167530    -0.6135107071
   84      C      -2.1015692217     2.2335912223     3.0674191828
   85      C      -0.8965838030     0.3599373319    -0.8930198383
   86      C      -0.6550831268     3.0459745928     1.2995718374
   87      C      -4.6753309044     0.8641808330    -2.9853249871
   88      C      -2.1359766524     3.1169398145    -2.8554559969
   89      O      -2.6053911273    -4.4080075102    -3.0725338923
   90      C      -3.9951577651    -4.0544171402    -3.2571511790
   91      H      -4.3609058853    -4.6424132972    -4.1077879005
   92      H      -4.1281957605    -2.9948200186    -3.5075984422
   93      H      -4.5030825546    -4.2150104657    -2.2980228289
   94      O      -2.7697711864    -4.2774179317    -0.8058006574
   95      C      -2.1069349932    -4.3977317254    -1.8171654641
   96      C      -0.5572746122    -4.6062234905    -1.7808903014
   97      H      -0.1569717785    -4.6380418022    -2.8016244667
   98      H      -0.4609242919    -5.6327910483    -1.4048521850
   99      C       0.1262438596    -3.5956553777    -0.7215529669
  100      H       0.1231272048    -2.6451525536    -1.2672219764
  101      H      -0.5345892464    -3.5742181135     0.1542632522
  102      C       1.5695250847    -4.0011334356    -0.4813491999
  103      H       1.5207688225    -5.0430672338    -0.1404815026
  104      H       2.1156517925    -4.1253772956    -1.4239430055
  105      C       2.2920658432    -3.1495784029     0.5994846813
  106      C       1.7909614293    -3.3718064798     2.0274846981
  107      C       2.3392663016    -4.4577549775     2.7779249871
  108      H       3.1813551722    -5.0479661756     2.4270531078
  109      C       1.8686688430    -4.6407291572     4.0978812294
  110      H       2.3679842999    -5.4306592593     4.6522191303
  111      C       0.9459724458    -3.7669128444     4.7383071893
  112      H       0.6812447548    -3.9370116091     5.7777462976
  113      C       0.4586638563    -2.6972554777     4.0037430625
  114      H      -0.2599632487    -2.0174814888     4.4502533177
  115      C       0.8420192554    -2.5697499661     2.6738848059
  116      H       0.2947519061    -1.8307845613     2.0961542641
  117      C       4.0153106472     1.8640527599     1.9712389993
  118      C       5.4591273869     0.4321397173     3.3204355234
  119      C       9.1763530910     1.2223573252     0.7696671691
  120      C       3.9512932317     0.6673172198    -2.9375261018
  121      C       8.8280046176    -1.7191444166    -1.2140885728
  122      C       4.1810339262     0.7064445549     2.7070433473
  123      C       6.5697830839    -0.2607906436    -3.6664223138
  124      C       7.4609163627     2.7536415692     1.5747493981
  125      C       5.9838050633    -3.0283035884     1.3326803917
  126      C       4.2019758073    -0.6975517403    -3.0226199797
  127      C       3.7825701843    -2.7978247107     0.4296225340
  128      C       5.9837172951    -3.4166093847    -0.0251784378
  129      C       5.6857772626    -2.3106013031    -2.5818191753
  130      C       7.8214165643    -0.5663177989    -3.1362168933
  131      C       4.5235725646    -1.5137470644     2.6132539293
  132      C       9.1524961697     0.7135617215    -1.4993114295
  133      C       2.6860607483    -1.7608720095     0.2220239975
  134      C       2.7597176810    -1.1346305221    -1.1257587207
  135      C       9.3585737627    -0.4608179300    -0.7818168582
  136      C       6.0131989626     3.1313937323    -1.5980961123
  137      C       8.0613003967     2.7740640824    -0.7813923490
  138      C       7.2760886965     3.2856724418     0.2529680681
  139      C       6.2924836780     2.4818834982     2.3019279266
  140      C       2.5761481873     0.2235648395    -0.9409788492
  141      C       4.7374566946    -2.5575530099     1.6645412610
  142      C       6.5156086411     1.3159104511     3.0682458137
  143      C       5.4932346227    -1.1410217013    -3.3319904136
  144      C       5.6979960126    -0.9007492574     3.1849262597
  145      C       7.1276538556    -3.1956155158    -0.8889034261
  146      C       3.7064517031     2.3982938914    -1.4810033975
  147      C       8.4488328380     1.7334627344     1.8100644693
  148      C       4.6959468700    -3.1849030467    -0.6115942503
  149      C       4.8745359076     3.3093002067     0.5085535343
  150      C       6.9779499779    -2.6332221727    -2.1585173346
  151      C       7.1229869503    -2.4366851824     1.8805629429
  152      C       7.4187586131     1.7374243509    -2.8240379677
  153      C       6.3138142076     1.1695481473    -3.4610838672
  154      C       8.2338296096    -2.2406038792     1.1284361525
  155      C       3.1948813797     1.1428427251    -1.8111733133
  156      C       3.6197565693    -1.5816482309    -2.1172829407
  157      C       4.8639731424     2.6408924437    -2.2771215168
  158      C       2.7112330981    -0.5846539182     1.1705846727
  159      C       8.0405893494    -0.4940485783     2.6271798873
  160      C       4.5223583785    -2.6040469116    -1.8619558724
  161      C       8.2600411840    -2.6222296619    -0.2850618897
  162      C       3.7315217531     2.7215066857    -0.1489861370
  163      C       9.2657650390    -0.1816164139     0.5744615256
  164      C       5.0311629840     2.8210037489     1.7937148192
  165      C       9.0350413931     1.7427325346    -0.5690701634
  166      C       7.0084921365    -1.4067459511     2.8393987566
  167      C       8.7978683353    -1.0081694026     1.5390193680
  168      C       3.6024620913    -0.5443107822     2.3021288888
  169      C       2.5235381044     0.5864777775     0.3965787678
  170      C       7.3398137839     2.7601518514    -1.9143263795
  171      C       7.8584324688     0.8697866694     2.7888254508
  172      C       8.0629527963    -1.7070290823    -2.3613627028
  173      C       5.0095739247     1.5892490778    -3.1623207278
  174      C       8.3163271496     0.6383251509    -2.6497460553
  175      C       3.2427346517     1.7946503291     0.7802471295
  176      C       6.0003235243     3.5566985487    -0.2456250271
 ----------------------------------------------------------------

    9   -5804.2757772362      6.86E-06 Convergence criterion met
 Total energy in the final basis set = -5804.2757772362

                    Orbital Energies (a.u.)
 --------------------------------------------------------------

 Alpha MOs
 -- Occupied --
-19.204 -19.200 -19.141 -19.125 -10.324 -10.309 -10.251 -10.246
-10.242 -10.240 -10.237 -10.237 -10.236 -10.233 -10.230 -10.230
-10.228 -10.228 -10.228 -10.227 -10.226 -10.226 -10.225 -10.225
-10.223 -10.222 -10.222 -10.221 -10.220 -10.220 -10.220 -10.220
-10.220 -10.220 -10.219 -10.219 -10.219 -10.219 -10.219 -10.219
-10.219 -10.219 -10.219 -10.218 -10.218 -10.218 -10.218 -10.218
-10.218 -10.218 -10.217 -10.217 -10.217 -10.217 -10.217 -10.217
-10.217 -10.217 -10.217 -10.217 -10.217 -10.216 -10.216 -10.216
-10.216 -10.216 -10.216 -10.216 -10.215 -10.215 -10.215 -10.215
-10.215 -10.215 -10.215 -10.215 -10.215 -10.214 -10.214 -10.214
-10.214 -10.214 -10.214 -10.214 -10.214 -10.214 -10.214 -10.214
-10.214 -10.213 -10.213 -10.213 -10.213 -10.213 -10.213 -10.213
-10.213 -10.212 -10.212 -10.212 -10.212 -10.212 -10.212 -10.212
-10.212 -10.212 -10.212 -10.211 -10.211 -10.211 -10.211 -10.211
-10.211 -10.211 -10.211 -10.211 -10.211 -10.211 -10.210 -10.210
-10.209 -10.209 -10.209 -10.208 -10.208 -10.208 -10.207 -10.207
-10.206 -10.205 -10.205 -10.205 -10.205 -10.205 -10.203 -10.201
-10.200 -10.200 -10.199 -10.198 -10.198 -10.197 -10.195 -10.194
-10.194 -10.193 -10.190 -10.189  -1.120  -1.102  -1.018  -1.017
 -0.989  -0.981  -0.970  -0.968  -0.965  -0.964  -0.961  -0.958
 -0.941  -0.932  -0.931  -0.930  -0.928  -0.924  -0.923  -0.921
 -0.921  -0.920  -0.902  -0.894  -0.893  -0.886  -0.886  -0.882
 -0.881  -0.871  -0.859  -0.850  -0.847  -0.845  -0.841  -0.841
 -0.839  -0.836  -0.823  -0.818  -0.810  -0.801  -0.800  -0.799
 -0.798  -0.796  -0.794  -0.793  -0.792  -0.791  -0.791  -0.783
 -0.776  -0.774  -0.772  -0.771  -0.769  -0.768  -0.765  -0.759
 -0.754  -0.748  -0.746  -0.743  -0.737  -0.730  -0.721  -0.718
 -0.717  -0.716  -0.714  -0.713  -0.712  -0.710  -0.710  -0.709
 -0.708  -0.708  -0.707  -0.706  -0.704  -0.702  -0.678  -0.673
 -0.664  -0.660  -0.658  -0.656  -0.648  -0.645  -0.633  -0.630
 -0.628  -0.627  -0.626  -0.624  -0.621  -0.621  -0.621  -0.618
 -0.617  -0.617  -0.616  -0.613  -0.612  -0.612  -0.610  -0.608
 -0.608  -0.607  -0.602  -0.602  -0.582  -0.567  -0.566  -0.563
 -0.563  -0.562  -0.560  -0.559  -0.558  -0.556  -0.554  -0.552
 -0.538  -0.534  -0.533  -0.531  -0.530  -0.529  -0.528  -0.525
 -0.525  -0.523  -0.523  -0.521  -0.517  -0.517  -0.516  -0.513
 -0.511  -0.507  -0.504  -0.501  -0.497  -0.494  -0.491  -0.488
 -0.487  -0.484  -0.483  -0.483  -0.482  -0.481  -0.479  -0.478
 -0.477  -0.474  -0.474  -0.472  -0.470  -0.469  -0.468  -0.467
 -0.466  -0.466  -0.464  -0.464  -0.462  -0.461  -0.459  -0.459
 -0.457  -0.454  -0.454  -0.451  -0.449  -0.448  -0.447  -0.445
 -0.443  -0.443  -0.441  -0.439  -0.438  -0.436  -0.434  -0.433
 -0.431  -0.430  -0.430  -0.428  -0.426  -0.426  -0.425  -0.424
 -0.423  -0.423  -0.423  -0.421  -0.421  -0.421  -0.420  -0.419
 -0.417  -0.417  -0.416  -0.416  -0.415  -0.414  -0.414  -0.414
 -0.413  -0.411  -0.409  -0.406  -0.405  -0.401  -0.398  -0.396
 -0.396  -0.394  -0.392  -0.390  -0.389  -0.388  -0.386  -0.385
 -0.382  -0.375  -0.374  -0.372  -0.370  -0.369  -0.368  -0.367
 -0.367  -0.366  -0.364  -0.364  -0.362  -0.360  -0.359  -0.358
 -0.358  -0.358  -0.356  -0.355  -0.354  -0.353  -0.353  -0.351
 -0.351  -0.348  -0.347  -0.347  -0.346  -0.345  -0.343  -0.343
 -0.342  -0.341  -0.341  -0.340  -0.338  -0.338  -0.337  -0.335
 -0.334  -0.333  -0.332  -0.330  -0.329  -0.328  -0.327  -0.327
 -0.315  -0.308  -0.304  -0.301  -0.289  -0.284  -0.277  -0.274
 -0.273  -0.271  -0.269  -0.269  -0.269  -0.267  -0.264  -0.263
 -0.262  -0.262  -0.261  -0.260  -0.259  -0.256  -0.255  -0.252
 -0.250  -0.249  -0.243  -0.243  -0.224  -0.219  -0.217  -0.213
 -0.210  -0.209  -0.207  -0.207  -0.204  -0.194

          Ground-State Mulliken Net Atomic Charges

     Atom                 Charge (a.u.)
  ----------------------------------------
      1 O                    -0.424147
      2 C                    -0.096642
      3 H                     0.119119
      4 H                     0.133666
      5 H                     0.129030
      6 O                    -0.479972
      7 C                     0.588231
      8 C                    -0.261728
      9 H                     0.146615
     10 H                     0.125268
     11 C                    -0.186652
     12 H                     0.114688
     13 H                     0.115386
     14 C                    -0.179504
     15 H                     0.115909
     16 H                     0.109831
     17 C                     0.005970
     18 C                     0.100777
     19 C                    -0.104890
     20 H                     0.082950
     21 C                    -0.089123
     22 H                     0.088106
     23 C                    -0.079480
     24 H                     0.091036
     25 C                    -0.102974
     26 H                     0.087991
     27 C                    -0.097198
     28 H                     0.085578
     29 C                     0.000656
     30 C                    -0.006464
     31 C                     0.033543
     32 C                     0.013504
     33 C                     0.005945
     34 C                    -0.006689
     35 C                     0.025075
     36 C                    -0.020872
     37 C                    -0.000340
     38 C                     0.008380
     39 C                    -0.108883
     40 C                     0.040383
     41 C                    -0.037882
     42 C                     0.031321
     43 C                     0.010419
     44 C                     0.012425
     45 C                    -0.057578
     46 C                     0.024487
     47 C                    -0.017404
     48 C                     0.001963
     49 C                    -0.031630
     50 C                     0.019509
     51 C                     0.032418
     52 C                    -0.013902
     53 C                     0.019503
     54 C                     0.014787
     55 C                    -0.024326
     56 C                     0.013403
     57 C                    -0.016921
     58 C                     0.011399
     59 C                    -0.011434
     60 C                     0.015242
     61 C                    -0.014004
     62 C                    -0.015594
     63 C                     0.006763
     64 C                     0.006163
     65 C                    -0.014907
     66 C                     0.006296
     67 C                    -0.001412
     68 C                    -0.000844
     69 C                    -0.038352
     70 C                     0.022389
     71 C                    -0.025297
     72 C                     0.020416
     73 C                    -0.003959
     74 C                     0.002004
     75 C                     0.006408
     76 C                    -0.017741
     77 C                    -0.042086
     78 C                    -0.011763
     79 C                    -0.001048
     80 C                    -0.025515
     81 C                     0.024934
     82 C                    -0.004267
     83 C                    -0.003057
     84 C                    -0.004566
     85 C                    -0.002473
     86 C                     0.020121
     87 C                    -0.003712
     88 C                     0.019782
     89 O                    -0.459810
     90 C                    -0.115345
     91 H                     0.118720
     92 H                     0.125206
     93 H                     0.161305
     94 O                    -0.480807
     95 C                     0.594271
     96 C                    -0.268063
     97 H                     0.121743
     98 H                     0.131691
     99 C                    -0.183993
    100 H                     0.115301
    101 H                     0.143070
    102 C                    -0.192392
    103 H                     0.108049
    104 H                     0.107792
    105 C                     0.025100
    106 C                     0.078638
    107 C                    -0.106824
    108 H                     0.095150
    109 C                    -0.096287
    110 H                     0.084621
    111 C                    -0.079955
    112 H                     0.093288
    113 C                    -0.088159
    114 H                     0.094654
    115 C                    -0.107305
    116 H                     0.087912
    117 C                    -0.003007
    118 C                    -0.007544
    119 C                    -0.003839
    120 C                    -0.024936
    121 C                    -0.006713
    122 C                    -0.025688
    123 C                    -0.039021
    124 C                    -0.020912
    125 C                     0.027483
    126 C                    -0.013776
    127 C                    -0.103681
    128 C                    -0.012349
    129 C                    -0.003608
    130 C                     0.020090
    131 C                    -0.019496
    132 C                     0.000476
    133 C                    -0.092366
    134 C                     0.060428
    135 C                    -0.000346
    136 C                     0.000280
    137 C                     0.022596
    138 C                    -0.010384
    139 C                     0.024196
    140 C                     0.022638
    141 C                     0.037379
    142 C                     0.009759
    143 C                     0.015975
    144 C                    -0.011719
    145 C                    -0.021313
    146 C                    -0.017884
    147 C                    -0.001402
    148 C                     0.033002
    149 C                    -0.016734
    150 C                    -0.015558
    151 C                     0.008263
    152 C                     0.016476
    153 C                    -0.001075
    154 C                    -0.008755
    155 C                     0.016364
    156 C                     0.008602
    157 C                    -0.003974
    158 C                     0.024867
    159 C                     0.005778
    160 C                    -0.000413
    161 C                    -0.006580
    162 C                     0.006521
    163 C                     0.033376
    164 C                     0.004720
    165 C                    -0.016404
    166 C                    -0.000553
    167 C                    -0.014325
    168 C                     0.042668
    169 C                    -0.029101
    170 C                    -0.002297
    171 C                    -0.019745
    172 C                     0.014294
    173 C                    -0.001756
    174 C                    -0.010142
    175 C                    -0.000717
    176 C                     0.001758
  ----------------------------------------
  Sum of atomic charges =     0.000000

                    Cartesian Multipole Moments
 -----------------------------------------------------------------
    Charge (ESU x 10^10)
                 0.0000
    Dipole Moment (Debye)
         X      -2.7287      Y      -1.7653      Z      -1.3623
       Tot       3.5239
    Quadrupole Moments (Debye-Ang)
        XX    -799.8657     XY      -6.9435     YY    -819.0683
        XZ      13.5097     YZ      18.3311     ZZ    -796.6298

 Total job time:  867.85s(wall), 7410.53s(cpu)
        *  Thank you very much for using Q-Chem.  Have a nice day.  *
