 Q-Chem 4.4, Q-Chem, Inc., Pleasanton, CA (2016)
 Q-Chem 4.4.2 for Intel X86 Linux

User input:
--------------------------------------------------------------
$comment
SP
$end

$rem
MEM_STATIC 5000
MEM_TOTAL 20000
JOBTYPE SP
EXCHANGE B3LYP
BASIS 6-31g(d,p)
$end

$molecule
0 1
O         -14.214000     -2.340000      6.386000
C         -15.481000     -2.031000      7.018000
H         -15.264000     -1.624000      8.013000
H         -16.043000     -2.967000      7.127000
H         -16.068000     -1.229000      6.554000
O         -14.999000     -2.724000      4.313000
C         -14.107000     -2.638000      5.092000
C         -12.667000     -2.987000      4.624000
H         -12.151000     -2.530000      5.477000
H         -12.327000     -2.368000      3.784000
C         -12.298000     -4.464000      4.474000
H         -11.208000     -4.567000      4.538000
H         -12.831000     -5.011000      5.262000
C         -12.731000     -4.895000      3.075000
H         -13.824000     -4.980000      3.026000
H         -12.521000     -4.080000      2.372000
C         -12.140000     -6.162000      2.532000
C         -12.047000     -7.227000      3.518000
C         -13.219000     -7.941000      3.890000
H         -14.106000     -7.620000      3.353000
C         -13.286000     -8.850000      4.931000
H         -14.213000     -9.314000      5.255000
C         -12.161000     -8.871000      5.768000
H         -12.219000     -9.484000      6.663000
C         -10.977000     -8.145000      5.474000
H         -10.175000     -8.105000      6.205000
C         -10.868000     -7.342000      4.308000
H         -10.041000     -6.683000      4.058000
C          -8.273000     -8.496000     -0.570000
C         -10.142000    -10.075000     -0.715000
C         -11.279000     -9.138000     -5.146000
C          -9.812000     -3.841000     -1.906000
C         -13.946000     -6.950000     -4.218000
C          -9.394000     -9.183000      0.055000
C         -11.825000     -4.054000     -3.789000
C          -9.168000     -9.382000     -3.977000
C         -13.691000     -8.161000     -0.364000
C         -11.142000     -3.706000     -1.483000
C         -12.641000     -6.626000      1.133000
C         -14.120000     -6.870000     -0.699000
C         -13.234000     -4.442000     -1.808000
C         -12.611000     -4.906000     -4.520000
C         -11.603000     -8.949000      0.659000
C         -11.945000     -7.049000     -5.600000
C         -11.219000     -6.094000      1.361000
C         -10.737000     -4.878000      0.584000
C         -13.019000     -7.685000     -5.024000
C          -8.297000     -5.970000     -4.252000
C          -9.567000     -7.449000     -5.399000
C          -8.741000     -8.139000     -4.545000
C          -8.794000     -9.707000     -2.649000
C          -9.393000     -5.127000      0.149000
C         -12.770000     -8.114000      0.704000
C          -9.884000    -10.373000     -2.072000
C         -12.110000     -3.831000     -2.419000
C         -11.515000     -9.944000     -0.355000
C         -14.439000     -6.572000     -2.015000
C          -8.019000     -5.213000     -1.950000
C         -10.421000     -9.897000     -4.252000
C         -13.414000     -5.941000      0.093000
C          -7.593000     -7.565000     -2.486000
C         -13.990000     -5.391000     -2.641000
C         -13.607000     -9.121000     -1.369000
C         -10.444000     -5.175000     -5.173000
C         -10.491000     -4.197000     -4.161000
C         -13.958000     -8.877000     -2.730000
C          -8.924000     -4.600000     -1.109000
C         -11.633000     -4.252000     -0.225000
C          -8.350000     -4.968000     -3.283000
C         -10.036000     -7.049000      1.171000
C         -12.174000    -10.328000     -2.691000
C         -12.983000     -4.743000     -0.466000
C         -14.399000     -7.547000     -3.022000
C          -7.596000     -6.536000     -1.512000
C         -12.572000     -8.960000     -4.698000
C          -8.028000     -8.777000     -1.952000
C         -10.877000     -7.914000     -5.673000
C         -12.511000    -10.027000     -1.356000
C         -13.056000     -9.531000     -3.497000
C         -10.306000     -8.421000      0.844000
C          -8.924000     -6.384000      0.570000
C          -9.349000     -6.081000     -5.208000
C         -10.874000    -10.424000     -3.055000
C         -13.696000     -5.561000     -3.982000
C          -9.455000     -4.099000     -3.213000
C         -11.750000     -5.639000     -5.420000
C          -8.080000     -7.110000     -0.314000
C          -7.954000     -7.288000     -3.776000
O          -2.475000     -3.758000    -12.606000
C          -1.108000     -3.252000    -12.362000
H          -0.957000     -2.803000    -11.373000
H          -0.902000     -2.526000    -13.157000
H          -0.321000     -4.018000    -12.353000
O          -3.495000     -1.723000    -12.395000
C          -3.525000     -2.946000    -12.529000
C          -4.725000     -3.760000    -12.680000
H          -4.522000     -4.308000    -13.608000
H          -5.547000     -3.043000    -12.801000
C          -5.060000     -4.780000    -11.630000
H          -5.984000     -5.344000    -11.806000
H          -4.175000     -5.393000    -11.420000
C          -5.421000     -4.006000    -10.332000
H          -4.761000     -3.140000    -10.200000
H          -6.399000     -3.565000    -10.561000
C          -5.478000     -4.924000     -9.116000
C          -6.770000     -5.715000     -9.213000
C          -6.813000     -7.043000     -9.621000
H          -5.880000     -7.457000     -9.991000
C          -8.043000     -7.726000     -9.672000
H          -8.032000     -8.746000    -10.045000
C          -9.214000     -7.071000     -9.260000
H         -10.190000     -7.440000     -9.561000
C          -9.144000     -5.816000     -8.726000
H         -10.060000     -5.391000     -8.326000
C          -7.914000     -5.168000     -8.641000
H          -7.921000     -4.233000     -8.089000
C          -4.920000     -5.711000     -3.592000
C          -4.152000     -7.798000     -4.522000
C           0.298000     -7.323000     -3.591000
C          -2.365000     -1.932000     -5.708000
C           0.982000     -6.217000     -6.890000
C          -4.968000     -6.683000     -4.585000
C           0.204000     -2.731000     -6.271000
C          -1.771000     -6.747000     -2.315000
C          -2.641000     -7.307000     -8.186000
C          -2.058000     -2.184000     -7.045000
C          -4.222000     -5.516000     -8.478000
C          -1.959000     -6.246000     -8.695000
C          -0.945000     -3.660000     -8.253000
C           1.014000     -3.865000     -6.233000
C          -4.569000     -7.315000     -6.690000
C           1.328000     -5.561000     -4.560000
C          -4.975000     -4.527000     -7.685000
C          -4.273000     -3.288000     -7.274000
C           1.245000     -6.580000     -5.538000
C          -1.370000     -3.271000     -2.604000
C          -0.030000     -5.085000     -2.619000
C          -1.254000     -5.455000     -2.111000
C          -3.119000     -6.905000     -2.544000
C          -4.521000     -2.967000     -5.953000
C          -3.979000     -6.921000     -7.913000
C          -3.213000     -7.909000     -3.519000
C          -0.788000     -2.646000     -7.306000
C          -3.880000     -8.195000     -5.839000
C          -0.601000     -6.035000     -8.436000
C          -3.450000     -2.591000     -3.820000
C          -1.033000     -7.676000     -3.053000
C          -2.830000     -5.168000     -8.924000
C          -3.436000     -4.498000     -2.359000
C          -0.043000     -4.767000     -8.236000
C          -1.991000     -8.241000     -7.305000
C           0.497000     -3.313000     -4.114000
C          -0.115000     -2.342000     -4.952000
C          -0.643000     -8.029000     -6.999000
C          -3.645000     -2.165000     -5.201000
C          -2.993000     -2.926000     -7.880000
C          -2.054000     -2.435000     -3.525000
C          -5.466000     -5.002000     -6.326000
C          -1.578000     -8.874000     -5.118000
C          -2.284000     -3.869000     -8.605000
C           0.023000     -6.920000     -7.597000
C          -4.104000     -3.633000     -3.220000
C           0.595000     -7.612000     -4.961000
C          -3.965000     -5.767000     -2.566000
C           0.766000     -6.020000     -3.349000
C          -2.575000     -8.732000     -6.141000
C          -0.385000     -8.354000     -5.671000
C          -5.227000     -6.359000     -5.920000
C          -5.218000     -3.998000     -5.334000
C          -0.114000     -3.755000     -2.957000
C          -1.933000     -8.475000     -3.786000
C           0.880000     -4.864000     -7.208000
C          -1.422000     -1.983000     -4.670000
C           1.224000     -4.206000     -4.918000
C          -4.998000     -4.335000     -4.013000
C          -2.069000     -4.338000     -2.108000
$end

--------------------------------------------------------------

             Standard Nuclear Orientation (Angstroms)
    I     Atom           X                Y                Z
 ----------------------------------------------------------------
    1      O      11.3919804951    -4.0438245914    -4.2193185587
    2      C      12.7337194242    -3.8111896209    -4.7151124843
    3      H      13.1472632688    -4.7806313930    -5.0183073705
    4      H      13.3343256856    -3.4057573916    -3.8912691581
    5      H      12.8115280979    -3.2192953198    -5.6352624431
    6      O      10.7385521298    -1.8942716223    -4.1032866480
    7      C      10.5294072482    -3.0567748158    -3.9818545947
    8      C       9.1611660092    -3.5159735211    -3.4061138015
    9      H       9.2496220691    -4.5652411879    -3.7125887416
   10      H       8.3069340139    -3.1682024844    -4.0008439959
   11      C       8.9376618138    -3.3915727202    -1.8978829453
   12      H       8.1472644794    -4.0895016192    -1.5962667890
   13      H       9.9006909130    -3.5926446567    -1.4116864516
   14      C       8.4400656584    -1.9728124587    -1.6333675648
   15      H       9.2619601012    -1.2550761622    -1.7500686078
   16      H       7.7514592844    -1.6831239829    -2.4361351830
   17      C       7.7767028468    -1.7115175614    -0.3138624467
   18      C       8.4351642226    -2.3663662075     0.8053657996
   19      C       9.6481692872    -1.8284052672     1.3162285406
   20      H       9.9623729158    -0.9211094310     0.8099980147
   21      C      10.4482073272    -2.4530388142     2.2565599005
   22      H      11.4157051245    -2.0665383004     2.5634252861
   23      C      10.1068335102    -3.7857690698     2.5284587475
   24      H      10.7772460246    -4.3491166847     3.1713775024
   25      C       8.9322088904    -4.3935343499     2.0124680822
   26      H       8.7672773699    -5.4566338825     2.1600552672
   27      C       8.0325279554    -3.6806835605     1.1766068693
   28      H       7.1681037191    -4.0944519012     0.6644774911
   29      C       3.0923962502    -1.2909489149     2.4975504940
   30      C       4.6102462740     0.2098842405     3.7021492426
   31      C       2.6111118190     4.1977196842     2.3218851719
   32      C       2.9529921744    -0.0485810245    -2.4278459904
   33      C       5.0214261913     4.7576414892    -0.2546025923
   34      C       4.4218239182    -0.9848871779     3.0056678907
   35      C       3.3485849471     2.6749730240    -2.6904991903
   36      C       1.7402746633     2.0411625479     3.0098691585
   37      C       7.3684157624     1.7989123506     1.2022514969
   38      C       4.2306224447     0.4122544292    -2.7761929107
   39      C       7.3350666140    -0.2461044843    -0.0292224084
   40      C       7.3537078901     2.1171982885    -0.1620889079
   41      C       5.7190662927     2.0559937150    -2.4499398314
   42      C       3.5865840685     3.8563047893    -2.0379099792
   43      C       6.4810168362    -0.1444534917     2.4118255331
   44      C       2.6207845495     4.6271479448     0.1243659326
   45      C       6.3244302799    -1.3739122207    -0.2817217347
   46      C       5.3372894434    -1.2557437672    -1.4333719357
   47      C       3.8778458246     4.9345888822     0.5880738372
   48      C       0.5366123161     1.1860737962    -0.1988736141
   49      C       0.9533338957     3.0844576594     0.9580325328
   50      C       0.9237890590     2.0262307387     1.8338035570
   51      C       2.3184227670     0.8326861156     3.4729182733
   52      C       4.0533209589    -1.6978221659    -0.9712533145
   53      C       7.3221896382     0.4003551815     1.3838416680
   54      C       3.5916171037     1.1538319632     3.9632513494
   55      C       4.4040956305     1.7492056192    -2.8820870537
   56      C       5.8819880244     0.7465066146     3.3463412214
   57      C       6.7434700105     3.2870807371    -0.5880064902
   58      C       1.6857327184    -0.8911229548    -0.7595098231
   59      C       2.5892046409     3.0997859407     3.2734851773
   60      C       7.2076065611     0.9251056393    -0.9012171223
   61      C       1.2682565833    -0.3636705285     1.5959484369
   62      C       5.8801592869     3.3135704911    -1.7025606107
   63      C       6.7744356437     2.6798020862     2.1021969909
   64      C       1.5327696688     3.0850580314    -1.4201043061
   65      C       2.1006853163     2.1733384424    -2.3306405264
   66      C       6.1663640494     3.9126628106     1.7209341281
   67      C       2.8471099791    -1.0894431522    -1.4764107631
   68      C       5.4558136939    -0.1797190915    -2.2563518258
   69      C       1.0796739377     0.3076354366    -1.1365324665
   70      C       5.3926165794    -1.7969099862     0.8586335249
   71      C       4.9664023783     3.0235764373     3.4699897043
   72      C       6.3984100819     0.9078362302    -2.0318580138
   73      C       6.1837769737     4.1987100473     0.3186079291
   74      C       1.7730184304    -1.2807280447     0.6410940032
   75      C       3.8713336328     4.6098006973     1.9394361966
   76      C       2.0663385178    -0.3223337268     2.7381749882
   77      C       1.8416288672     4.1691693289     1.1623206570
   78      C       6.0319014152     2.1444044097     3.1904126164
   79      C       5.0580129110     4.0617836892     2.4818084393
   80      C       5.5403268080    -1.1620266958     2.1382107581
   81      C       4.0874980286    -2.1126634453     0.3718735004
   82      C       0.7609116654     2.5875609928    -0.3348311058
   83      C       3.7448188096     2.5290443680     3.7780215490
   84      C       4.8303090903     4.2029679283    -1.5597188686
   85      C       1.8850877869     0.7898687299    -2.1852676963
   86      C       2.4348006980     4.1461975434    -1.2145223071
   87      C       2.9581323127    -1.8259415088     1.1862392726
   88      C       0.7089489767     0.8149249234     1.1845632618
   89      O      -9.4279198623     3.7786472647    -1.8003121164
   90      C     -10.3833353139     2.6760341290    -2.0362921742
   91      H      -9.9270268630     1.7448660731    -2.3929876315
   92      H     -11.1171751859     3.0536634211    -2.7576881543
   93      H     -10.9045907721     2.3100377658    -1.1415601421
   94      O      -8.7223672823     3.9157416320    -3.9704611185
   95      C      -8.6545749225     4.2308995882    -2.7827470710
   96      C      -7.7373548516     5.2080076821    -2.2088445408
   97      H      -8.4182514826     5.8915978746    -1.6875181300
   98      H      -7.2541519425     5.6900750747    -3.0682280277
   99      C      -6.7131308251     4.7572450343    -1.2073940033
  100      H      -6.0509257665     5.5461270925    -0.8305683691
  101      H      -7.2001006305     4.1512380375    -0.4336305198
  102      C      -5.7020621165     3.8468949787    -1.9578630851
  103      H      -6.2198446574     3.2055249643    -2.6814138747
  104      H      -5.1371259910     4.5514641825    -2.5806274154
  105      C      -4.7990724477     3.0816272085    -0.9968199550
  106      C      -3.7794003608     4.0692390086    -0.4590042173
  107      C      -3.8623241094     4.6217411441     0.8136945067
  108      H      -4.7709342571     4.4057086893     1.3673573807
  109      C      -2.8730285062     5.5187990222     1.2593079860
  110      H      -3.0080894194     5.9626462176     2.2413508654
  111      C      -1.7797267197     5.8092959726     0.4284573824
  112      H      -1.1762704216     6.6962528798     0.5972351685
  113      C      -1.6309636866     5.1539522386    -0.7604392280
  114      H      -0.7178230137     5.3345811297    -1.3201072681
  115      C      -2.5952597239     4.2359964779    -1.1697305349
  116      H      -2.3421130979     3.6640438902    -2.0572918134
  117      C      -1.6834895762    -1.4260525784     0.1945134615
  118      C      -2.6398637904    -0.8427477174     2.3288510172
  119      C      -5.5410103437    -4.3535378427     2.7194753534
  120      C      -5.3799148666    -1.9352521128    -3.1764623477
  121      C      -8.2537779266    -2.3818322494     1.5671897574
  122      C      -2.1667939893    -0.4721296474     1.0830993527
  123      C      -7.6318465821    -2.9379333879    -1.9604998443
  124      C      -3.2045191736    -4.1744253848     1.8537728990
  125      C      -6.1551421637     1.0053375491     1.9087357879
  126      C      -6.4286657196    -1.0439621573    -2.9505290307
  127      C      -5.3062694495     1.9136441599    -0.1520650797
  128      C      -7.1123217078     0.8178123446     0.9608077221
  129      C      -7.8899197487    -0.5512893564    -1.3698269166
  130      C      -8.1139611763    -3.2824768174    -0.6986142143
  131      C      -3.7281154766     1.0196305828     1.6545681874
  132      C      -7.1289655953    -4.5063141715     1.1196120742
  133      C      -4.3318681945     1.6006946471    -1.2134715977
  134      C      -4.7463765612     0.6581766274    -2.2796275883
  135      C      -7.5709048335    -3.5353013709     2.0488902085
  136      C      -4.0609036460    -4.7422225475    -1.5034744880
  137      C      -4.9138182973    -5.2614878020     0.5187325224
  138      C      -3.6115907792    -4.8517071671     0.6902648004
  139      C      -2.2909723783    -3.1498986565     1.7523518178
  140      C      -3.7604575085    -0.2675238063    -2.5635788669
  141      C      -4.9917895169     1.5480221747     1.3038614075
  142      C      -2.7241177651    -2.1768754323     2.6650882963
  143      C      -7.5240111692    -1.5425391740    -2.2826186292
  144      C      -3.6338054538     0.0771941497     2.6919886369
  145      C      -8.0203529131    -0.2444708283     1.0137207713
  146      C      -3.2893284971    -2.6367695117    -2.6166659827
  147      C      -4.1391691284    -3.9045185682     2.8567229338
  148      C      -6.6969866148     1.3567540709    -0.2680960887
  149      C      -2.1834924734    -3.4797734003    -0.6576261330
  150      C      -8.4590553084    -0.9398549758    -0.1190497685
  151      C      -6.0062381507     0.0718791730     2.9938625340
  152      C      -6.4443632370    -4.7005737667    -1.2120319424
  153      C      -6.5995305558    -3.8295178522    -2.3241532025
  154      C      -6.8771869805    -1.0209799794     3.0466925342
  155      C      -4.0495001417    -1.5121517204    -3.1496161624
  156      C      -6.1524336699     0.2916563687    -2.4388328241
  157      C      -4.1983340762    -3.7415160454    -2.5008171441
  158      C      -3.0508194519     0.9190636736    -0.7575326380
  159      C      -4.8872068806    -1.7791792076     3.8157985949
  160      C      -7.0550751893     0.5713479879    -1.4266244041
  161      C      -7.8828679960    -1.1371737145     2.0436243855
  162      C      -2.2987041969    -2.5400049105    -1.6771021967
  163      C      -6.5988408758    -3.4246826336     2.9780339849
  164      C      -1.7714586398    -2.7964711733     0.4809594749
  165      C      -5.8875907515    -5.0322060908     1.5385060778
  166      C      -4.7739841822    -0.3990440633     3.4375002947
  167      C      -6.2094996571    -2.1587451420     3.4887978079
  168      C      -2.8379931796     0.6718409920     0.6413926365
  169      C      -2.7258862168    -0.1610421066    -1.6414861980
  170      C      -5.2008117190    -5.1573233297    -0.8217839969
  171      C      -3.8200038553    -2.6604946329     3.4365746191
  172      C      -8.5167569419    -2.2858584850     0.2019908437
  173      C      -5.4516233081    -3.3084666014    -2.8964018762
  174      C      -7.4156909404    -4.3783606007    -0.2502132651
  175      C      -2.0319936987    -1.2683135418    -1.1948620359
  176      C      -3.0981217178    -4.5332891172    -0.5534724984
 ----------------------------------------------------------------

    9   -5804.2593425186      8.03E-06 Convergence criterion met
 Total energy in the final basis set = -5804.2593425186

                    Orbital Energies (a.u.)
 --------------------------------------------------------------

 Alpha MOs
 -- Occupied --
-19.201 -19.197 -19.130 -19.130 -10.314 -10.311 -10.256 -10.249
-10.241 -10.240 -10.240 -10.239 -10.236 -10.232 -10.231 -10.230
-10.229 -10.229 -10.228 -10.228 -10.227 -10.226 -10.225 -10.224
-10.223 -10.222 -10.221 -10.221 -10.221 -10.221 -10.220 -10.220
-10.220 -10.219 -10.218 -10.218 -10.218 -10.218 -10.218 -10.218
-10.218 -10.218 -10.217 -10.217 -10.217 -10.217 -10.217 -10.217
-10.217 -10.217 -10.217 -10.216 -10.216 -10.216 -10.216 -10.216
-10.216 -10.216 -10.215 -10.215 -10.215 -10.215 -10.215 -10.215
-10.214 -10.214 -10.214 -10.214 -10.214 -10.214 -10.214 -10.213
-10.213 -10.213 -10.213 -10.213 -10.213 -10.212 -10.212 -10.212
-10.212 -10.212 -10.212 -10.212 -10.212 -10.212 -10.211 -10.211
-10.211 -10.211 -10.211 -10.211 -10.211 -10.211 -10.211 -10.211
-10.211 -10.211 -10.210 -10.210 -10.210 -10.210 -10.210 -10.210
-10.210 -10.210 -10.210 -10.210 -10.209 -10.209 -10.209 -10.209
-10.209 -10.209 -10.209 -10.209 -10.209 -10.208 -10.208 -10.208
-10.208 -10.208 -10.208 -10.208 -10.207 -10.207 -10.207 -10.207
-10.206 -10.206 -10.206 -10.205 -10.204 -10.203 -10.201 -10.201
-10.200 -10.199 -10.198 -10.197 -10.197 -10.197 -10.197 -10.194
-10.193 -10.192 -10.192 -10.190  -1.108  -1.097  -1.024  -1.003
 -0.984  -0.979  -0.966  -0.964  -0.961  -0.960  -0.958  -0.956
 -0.933  -0.931  -0.928  -0.925  -0.924  -0.922  -0.922  -0.921
 -0.918  -0.917  -0.898  -0.895  -0.891  -0.887  -0.886  -0.882
 -0.877  -0.873  -0.857  -0.850  -0.840  -0.839  -0.838  -0.835
 -0.833  -0.833  -0.826  -0.820  -0.814  -0.805  -0.798  -0.795
 -0.794  -0.794  -0.792  -0.791  -0.791  -0.789  -0.786  -0.781
 -0.771  -0.771  -0.769  -0.767  -0.766  -0.764  -0.763  -0.760
 -0.752  -0.750  -0.747  -0.746  -0.733  -0.731  -0.716  -0.715
 -0.714  -0.712  -0.712  -0.710  -0.709  -0.709  -0.707  -0.707
 -0.706  -0.706  -0.705  -0.705  -0.704  -0.703  -0.675  -0.669
 -0.658  -0.655  -0.655  -0.654  -0.647  -0.645  -0.633  -0.627
 -0.627  -0.626  -0.625  -0.623  -0.622  -0.621  -0.616  -0.616
 -0.616  -0.615  -0.613  -0.610  -0.610  -0.610  -0.608  -0.607
 -0.605  -0.604  -0.602  -0.599  -0.570  -0.567  -0.566  -0.563
 -0.560  -0.560  -0.558  -0.557  -0.555  -0.554  -0.553  -0.549
 -0.538  -0.534  -0.533  -0.532  -0.526  -0.526  -0.524  -0.524
 -0.523  -0.520  -0.519  -0.516  -0.515  -0.513  -0.512  -0.512
 -0.508  -0.506  -0.502  -0.502  -0.494  -0.491  -0.487  -0.485
 -0.483  -0.483  -0.482  -0.479  -0.477  -0.477  -0.476  -0.475
 -0.473  -0.473  -0.472  -0.470  -0.468  -0.468  -0.467  -0.466
 -0.465  -0.464  -0.462  -0.462  -0.461  -0.460  -0.459  -0.457
 -0.456  -0.455  -0.453  -0.450  -0.450  -0.448  -0.442  -0.442
 -0.442  -0.440  -0.439  -0.439  -0.437  -0.437  -0.433  -0.431
 -0.431  -0.430  -0.428  -0.426  -0.425  -0.425  -0.424  -0.422
 -0.422  -0.421  -0.420  -0.419  -0.418  -0.418  -0.418  -0.417
 -0.416  -0.415  -0.415  -0.413  -0.413  -0.413  -0.412  -0.412
 -0.411  -0.410  -0.409  -0.408  -0.406  -0.402  -0.400  -0.395
 -0.395  -0.393  -0.390  -0.388  -0.388  -0.386  -0.385  -0.383
 -0.379  -0.377  -0.373  -0.371  -0.371  -0.368  -0.366  -0.365
 -0.363  -0.362  -0.361  -0.361  -0.359  -0.358  -0.356  -0.356
 -0.355  -0.355  -0.354  -0.353  -0.353  -0.352  -0.352  -0.351
 -0.350  -0.349  -0.348  -0.347  -0.347  -0.346  -0.346  -0.344
 -0.343  -0.342  -0.340  -0.339  -0.338  -0.336  -0.336  -0.333
 -0.331  -0.331  -0.328  -0.328  -0.327  -0.325  -0.325  -0.323
 -0.308  -0.304  -0.302  -0.301  -0.290  -0.283  -0.270  -0.269
 -0.268  -0.267  -0.266  -0.265  -0.265  -0.264  -0.263  -0.262
 -0.260  -0.259  -0.258  -0.257  -0.257  -0.255  -0.255  -0.253
 -0.249  -0.245  -0.242  -0.241  -0.221  -0.220  -0.211  -0.209
 -0.208  -0.207  -0.205  -0.205  -0.199  -0.197

          Ground-State Mulliken Net Atomic Charges

     Atom                 Charge (a.u.)
  ----------------------------------------
      1 O                    -0.452802
      2 C                    -0.089154
      3 H                     0.128401
      4 H                     0.132081
      5 H                     0.136283
      6 O                    -0.445063
      7 C                     0.567587
      8 C                    -0.263910
      9 H                     0.109158
     10 H                     0.127962
     11 C                    -0.177538
     12 H                     0.107602
     13 H                     0.122143
     14 C                    -0.162216
     15 H                     0.128382
     16 H                     0.105161
     17 C                     0.001078
     18 C                     0.091581
     19 C                    -0.099214
     20 H                     0.088372
     21 C                    -0.084587
     22 H                     0.098820
     23 C                    -0.091286
     24 H                     0.088140
     25 C                    -0.096964
     26 H                     0.090375
     27 C                    -0.103047
     28 H                     0.095989
     29 C                    -0.034702
     30 C                     0.009638
     31 C                    -0.033863
     32 C                    -0.009677
     33 C                    -0.025435
     34 C                    -0.016876
     35 C                     0.027781
     36 C                    -0.024883
     37 C                     0.015291
     38 C                     0.002664
     39 C                    -0.098100
     40 C                     0.005395
     41 C                    -0.031538
     42 C                    -0.000769
     43 C                    -0.003644
     44 C                     0.019810
     45 C                    -0.091304
     46 C                     0.023128
     47 C                     0.003402
     48 C                    -0.024804
     49 C                     0.010203
     50 C                     0.020066
     51 C                    -0.003970
     52 C                     0.016896
     53 C                     0.018209
     54 C                     0.000237
     55 C                     0.007729
     56 C                    -0.020164
     57 C                     0.015579
     58 C                    -0.011530
     59 C                     0.002152
     60 C                     0.057755
     61 C                     0.017244
     62 C                    -0.016709
     63 C                    -0.007188
     64 C                    -0.008138
     65 C                    -0.012517
     66 C                     0.005532
     67 C                    -0.000509
     68 C                    -0.015150
     69 C                     0.018207
     70 C                     0.012843
     71 C                    -0.034873
     72 C                     0.002356
     73 C                    -0.016749
     74 C                    -0.022492
     75 C                     0.009397
     76 C                     0.014108
     77 C                     0.003786
     78 C                     0.002626
     79 C                     0.010430
     80 C                     0.028550
     81 C                    -0.018745
     82 C                     0.003144
     83 C                     0.040497
     84 C                     0.012359
     85 C                    -0.000580
     86 C                    -0.034031
     87 C                     0.017554
     88 C                     0.011002
     89 O                    -0.453933
     90 C                    -0.095711
     91 H                     0.134641
     92 H                     0.135801
     93 H                     0.128457
     94 O                    -0.496849
     95 C                     0.607979
     96 C                    -0.247157
     97 H                     0.128278
     98 H                     0.122850
     99 C                    -0.181867
    100 H                     0.119301
    101 H                     0.117121
    102 C                    -0.212320
    103 H                     0.118838
    104 H                     0.116555
    105 C                     0.029305
    106 C                     0.072132
    107 C                    -0.103104
    108 H                     0.091037
    109 C                    -0.099383
    110 H                     0.092443
    111 C                    -0.083761
    112 H                     0.092403
    113 C                    -0.089233
    114 H                     0.095400
    115 C                    -0.102027
    116 H                     0.092531
    117 C                    -0.019275
    118 C                     0.002943
    119 C                    -0.029650
    120 C                     0.030656
    121 C                    -0.025270
    122 C                     0.012844
    123 C                    -0.000309
    124 C                     0.006924
    125 C                     0.020607
    126 C                    -0.025574
    127 C                    -0.075889
    128 C                     0.026026
    129 C                    -0.018457
    130 C                     0.016996
    131 C                    -0.005510
    132 C                    -0.006388
    133 C                    -0.087415
    134 C                     0.038893
    135 C                     0.007865
    136 C                    -0.028950
    137 C                     0.011330
    138 C                     0.007903
    139 C                    -0.000444
    140 C                     0.029353
    141 C                    -0.001346
    142 C                     0.008006
    143 C                     0.014195
    144 C                    -0.010446
    145 C                     0.010945
    146 C                    -0.014909
    147 C                     0.005749
    148 C                     0.014232
    149 C                     0.019111
    150 C                    -0.050325
    151 C                    -0.017605
    152 C                    -0.000420
    153 C                    -0.036787
    154 C                    -0.001061
    155 C                    -0.047614
    156 C                    -0.042865
    157 C                     0.007683
    158 C                    -0.000687
    159 C                    -0.024418
    160 C                     0.031110
    161 C                     0.006811
    162 C                     0.002205
    163 C                     0.012324
    164 C                    -0.010578
    165 C                    -0.012912
    166 C                    -0.007037
    167 C                     0.024600
    168 C                     0.029298
    169 C                     0.026241
    170 C                     0.010724
    171 C                    -0.019013
    172 C                     0.020361
    173 C                     0.030426
    174 C                     0.005520
    175 C                    -0.005881
    176 C                     0.005460
  ----------------------------------------
  Sum of atomic charges =     0.000000

                    Cartesian Multipole Moments
 -----------------------------------------------------------------
    Charge (ESU x 10^10)
                 0.0000
    Dipole Moment (Debye)
         X       3.6825      Y      -1.6277      Z       0.7828
       Tot       4.1016
    Quadrupole Moments (Debye-Ang)
        XX    -742.0224     XY     -44.0117     YY    -787.9054
        XZ     -23.3872     YZ      17.9606     ZZ    -822.2138

 Total job time:  860.84s(wall), 7333.18s(cpu)
        *  Thank you very much for using Q-Chem.  Have a nice day.  *
