 Q-Chem 4.4, Q-Chem, Inc., Pleasanton, CA (2016)
 Q-Chem 4.4.2 for Intel X86 Linux

User input:
--------------------------------------------------------------
$comment
SP
$end

$rem
MEM_STATIC 5000
MEM_TOTAL 20000
JOBTYPE SP
EXCHANGE B3LYP
BASIS 6-31g(d,p)
$end

$molecule
0 1
O          -4.178000      6.413000    -12.960000
C          -3.160000      7.336000    -12.494000
H          -3.583000      8.289000    -12.152000
H          -2.503000      7.688000    -13.299000
H          -2.666000      7.033000    -11.563000
O          -5.098000      7.805000    -14.456000
C          -5.060000      6.777000    -13.862000
C          -6.132000      5.754000    -14.029000
H          -5.587000      4.802000    -14.035000
H          -6.592000      5.864000    -15.019000
C          -7.279000      5.833000    -12.942000
H          -7.821000      6.757000    -13.180000
H          -7.915000      4.996000    -13.257000
C          -6.702000      5.767000    -11.459000
H          -6.035000      4.897000    -11.436000
H          -6.085000      6.668000    -11.353000
C          -7.754000      5.756000    -10.363000
C          -8.519000      7.047000    -10.194000
C          -9.790000      7.186000    -10.761000
H         -10.270000      6.352000    -11.265000
C         -10.447000      8.462000    -10.804000
H         -11.427000      8.601000    -11.252000
C          -9.906000      9.588000    -10.162000
H         -10.533000     10.452000     -9.964000
C          -8.660000      9.395000     -9.533000
H          -8.192000     10.263000     -9.078000
C          -7.925000      8.186000     -9.550000
H          -6.988000      8.098000     -9.008000
C          -9.169000      3.686000     -5.467000
C         -11.227000      3.532000     -6.692000
C         -11.119000     -1.024000     -7.066000
C          -5.224000      1.623000     -7.812000
C          -9.694000     -0.873000    -10.260000
C         -10.039000      4.171000     -6.391000
C          -6.252000     -0.564000     -9.284000
C         -10.453000      0.489000     -5.238000
C         -10.376000      3.006000    -10.537000
C          -5.529000      1.719000     -9.180000
C          -8.442000      4.424000    -10.197000
C          -9.284000      2.365000    -11.206000
C          -6.859000      1.094000    -10.909000
C          -7.452000     -1.314000     -9.544000
C         -10.412000      4.455000     -8.632000
C          -9.332000     -1.955000     -8.135000
C          -7.560000      4.944000     -9.117000
C          -6.499000      3.956000     -8.832000
C         -10.236000     -1.498000     -9.138000
C          -7.030000     -0.111000     -5.327000
C          -8.970000     -1.181000     -5.874000
C          -9.234000     -0.122000     -5.026000
C         -10.568000      1.853000     -5.072000
C          -6.248000      3.836000     -7.445000
C          -9.929000      4.165000     -9.900000
C         -11.532000      2.350000     -6.033000
C          -5.989000      0.664000     -9.947000
C         -11.490000      3.734000     -8.055000
C          -9.304000      0.999000    -11.387000
C          -6.100000      2.087000     -5.726000
C         -11.362000      0.136000     -6.269000
C          -8.129000      3.198000    -11.028000
C          -8.176000      1.967000     -4.445000
C          -8.064000      0.400000    -11.179000
C         -11.403000      2.216000     -9.966000
C          -7.109000     -1.406000     -7.376000
C          -6.062000     -0.632000     -7.876000
C         -11.408000      0.815000    -10.115000
C          -5.674000      2.660000     -6.928000
C          -6.182000      2.806000     -9.615000
C          -6.073000      0.688000     -5.906000
C          -8.161000      5.076000     -7.745000
C         -12.255000      1.311000     -8.120000
C          -6.931000      2.496000    -10.769000
C         -10.370000      0.218000    -10.830000
C          -7.188000      2.739000     -5.034000
C         -11.346000     -0.963000     -8.461000
C          -9.392000      2.565000     -4.711000
C          -9.871000     -1.612000     -6.893000
C         -12.006000      2.540000     -8.741000
C         -11.956000      0.238000     -8.985000
C          -9.536000      4.822000     -7.594000
C          -7.321000      4.439000     -6.829000
C          -7.551000     -1.193000     -6.064000
C         -12.048000      1.239000     -6.758000
C          -8.311000     -0.845000    -10.534000
C          -5.523000      0.408000     -7.201000
C          -7.911000     -1.860000     -8.376000
C          -7.816000      3.820000     -5.660000
C          -8.086000      0.573000     -4.649000
O          -2.475000     -3.758000    -12.606000
C          -1.108000     -3.252000    -12.362000
H          -0.957000     -2.803000    -11.373000
H          -0.902000     -2.526000    -13.157000
H          -0.321000     -4.018000    -12.353000
O          -3.495000     -1.723000    -12.395000
C          -3.525000     -2.946000    -12.529000
C          -4.725000     -3.760000    -12.680000
H          -4.522000     -4.308000    -13.608000
H          -5.547000     -3.043000    -12.801000
C          -5.060000     -4.780000    -11.630000
H          -5.984000     -5.344000    -11.806000
H          -4.175000     -5.393000    -11.420000
C          -5.421000     -4.006000    -10.332000
H          -4.761000     -3.140000    -10.200000
H          -6.399000     -3.565000    -10.561000
C          -5.478000     -4.924000     -9.116000
C          -6.770000     -5.715000     -9.213000
C          -6.813000     -7.043000     -9.621000
H          -5.880000     -7.457000     -9.991000
C          -8.043000     -7.726000     -9.672000
H          -8.032000     -8.746000    -10.045000
C          -9.214000     -7.071000     -9.260000
H         -10.190000     -7.440000     -9.561000
C          -9.144000     -5.816000     -8.726000
H         -10.060000     -5.391000     -8.326000
C          -7.914000     -5.168000     -8.641000
H          -7.921000     -4.233000     -8.089000
C          -4.920000     -5.711000     -3.592000
C          -4.152000     -7.798000     -4.522000
C           0.298000     -7.323000     -3.591000
C          -2.365000     -1.932000     -5.708000
C           0.982000     -6.217000     -6.890000
C          -4.968000     -6.683000     -4.585000
C           0.204000     -2.731000     -6.271000
C          -1.771000     -6.747000     -2.315000
C          -2.641000     -7.307000     -8.186000
C          -2.058000     -2.184000     -7.045000
C          -4.222000     -5.516000     -8.478000
C          -1.959000     -6.246000     -8.695000
C          -0.945000     -3.660000     -8.253000
C           1.014000     -3.865000     -6.233000
C          -4.569000     -7.315000     -6.690000
C           1.328000     -5.561000     -4.560000
C          -4.975000     -4.527000     -7.685000
C          -4.273000     -3.288000     -7.274000
C           1.245000     -6.580000     -5.538000
C          -1.370000     -3.271000     -2.604000
C          -0.030000     -5.085000     -2.619000
C          -1.254000     -5.455000     -2.111000
C          -3.119000     -6.905000     -2.544000
C          -4.521000     -2.967000     -5.953000
C          -3.979000     -6.921000     -7.913000
C          -3.213000     -7.909000     -3.519000
C          -0.788000     -2.646000     -7.306000
C          -3.880000     -8.195000     -5.839000
C          -0.601000     -6.035000     -8.436000
C          -3.450000     -2.591000     -3.820000
C          -1.033000     -7.676000     -3.053000
C          -2.830000     -5.168000     -8.924000
C          -3.436000     -4.498000     -2.359000
C          -0.043000     -4.767000     -8.236000
C          -1.991000     -8.241000     -7.305000
C           0.497000     -3.313000     -4.114000
C          -0.115000     -2.342000     -4.952000
C          -0.643000     -8.029000     -6.999000
C          -3.645000     -2.165000     -5.201000
C          -2.993000     -2.926000     -7.880000
C          -2.054000     -2.435000     -3.525000
C          -5.466000     -5.002000     -6.326000
C          -1.578000     -8.874000     -5.118000
C          -2.284000     -3.869000     -8.605000
C           0.023000     -6.920000     -7.597000
C          -4.104000     -3.633000     -3.220000
C           0.595000     -7.612000     -4.961000
C          -3.965000     -5.767000     -2.566000
C           0.766000     -6.020000     -3.349000
C          -2.575000     -8.732000     -6.141000
C          -0.385000     -8.354000     -5.671000
C          -5.227000     -6.359000     -5.920000
C          -5.218000     -3.998000     -5.334000
C          -0.114000     -3.755000     -2.957000
C          -1.933000     -8.475000     -3.786000
C           0.880000     -4.864000     -7.208000
C          -1.422000     -1.983000     -4.670000
C           1.224000     -4.206000     -4.918000
C          -4.998000     -4.335000     -4.013000
C          -2.069000     -4.338000     -2.108000
$end

--------------------------------------------------------------

             Standard Nuclear Orientation (Angstroms)
    I     Atom           X                Y                Z
 ----------------------------------------------------------------
    1      O      -7.0074743803    -6.2096512236    -0.0909090961
    2      C      -7.0761515117    -7.0840397993    -1.2468230506
    3      H      -7.9484494987    -6.8755130217    -1.8790530759
    4      H      -7.2705519113    -8.1300554517    -0.9791707767
    5      H      -6.2897486670    -6.9126107286    -1.9916644024
    6      O      -9.0591853237    -6.6722619606     0.6827533051
    7      C      -8.0330887323    -6.0747973395     0.7177648994
    8      C      -7.8190523743    -4.9740202919     1.7006587537
    9      H      -6.7800523054    -5.1107081155     2.0249430361
   10      H      -8.4521665402    -5.1410712717     2.5810339141
   11      C      -8.1330470020    -3.5298370562     1.1357152562
   12      H      -9.2242135988    -3.5100585437     1.0210493564
   13      H      -7.8895677844    -2.9126971510     2.0098698237
   14      C      -7.3212042913    -3.2212202040    -0.1992907556
   15      H      -6.2759430834    -3.4671621467     0.0226542106
   16      H      -7.6907551597    -3.9492346236    -0.9321980899
   17      C      -7.5116344223    -1.8199734818    -0.7545249304
   18      C      -8.8837900026    -1.5324551395    -1.3157639761
   19      C      -9.8252114978    -0.8446280658    -0.5431900411
   20      H      -9.5628423692    -0.4491057303     0.4338956883
   21      C     -11.1959496245    -0.7461479223    -0.9591860139
   22      H     -11.9506289441    -0.2314102551    -0.3710285022
   23      C     -11.6172224622    -1.2137811164    -2.2148011587
   24      H     -12.5682122136    -0.8862050529    -2.6236304818
   25      C     -10.6261799649    -1.8330035938    -3.0020776616
   26      H     -10.9371632311    -2.2545223223    -3.9534368838
   27      C      -9.2875723347    -2.0457058166    -2.5957743552
   28      H      -8.5664423272    -2.4946693017    -3.2724428867
   29      C      -5.0587813794     2.4503265596    -3.2052371751
   30      C      -6.3759609194     3.5295559612    -1.5140816653
   31      C      -2.7969199480     4.7050768112     1.0776923326
   32      C      -2.1130938249    -1.2412570809    -1.4693932718
   33      C      -3.1807096948     1.8989740576     3.1352527245
   34      C      -6.1817605487     2.5258884332    -2.4442449355
   35      C      -1.3533329686    -0.4650825662     1.1434315527
   36      C      -3.0933173306     4.6138789749    -1.3673312964
   37      C      -6.7169920921     1.0699628952     1.5873698802
   38      C      -2.7731809053    -1.7193113893    -0.3250969271
   39      C      -6.7494247359    -0.7601620933     0.0010941632
   40      C      -5.8519221804     0.0603309651     2.1195384755
   41      C      -3.4968433782    -1.3285986065     1.7897605496
   42      C      -1.4522339558     0.6043023901     2.1008940377
   43      C      -7.2992271179     1.6008678373    -0.6729540606
   44      C      -1.4674885301     3.0283335630     1.8676513092
   45      C      -6.3746011339    -1.0865695927    -1.4016493670
   46      C      -4.9507663989    -1.4782497703    -1.4503452170
   47      C      -2.6102124591     3.1001102570     2.7168298111
   48      C      -0.8815167140     2.0158962367    -2.0331193443
   49      C      -1.1947555824     3.6352705337    -0.4560279399
   50      C      -1.9122107316     3.9385195479    -1.5977718448
   51      C      -4.1904917785     4.3555458067    -2.1615285043
   52      C      -4.2933474349    -0.9396498258    -2.5812211632
   53      C      -7.2145265335     0.6646448453     0.3475974180
   54      C      -5.3829318810     4.4839255368    -1.3482442693
   55      C      -2.4059591279    -1.4024586526     0.9701507363
   56      C      -7.0975829543     2.9865954478    -0.4406770260
   57      C      -4.8272462646     0.4199380903     2.9679717275
   58      C      -2.2838467901     0.3683649475    -3.1168241051
   59      C      -3.6001748416     4.9335205277    -0.0809504269
   60      C      -5.8680437555    -1.0408966733     1.1994103414
   61      C      -2.8560639739     2.7188141698    -3.4531170546
   62      C      -3.6461759867    -0.2781020943     2.7282262389
   63      C      -6.4358645209     2.4337502073     1.8441216205
   64      C      -0.5263584827     1.4552866826     0.2995286272
   65      C      -0.7622799758     0.1164770424    -0.0122642469
   66      C      -5.3655335264     2.8086681019     2.6800971790
   67      C      -2.8973911005    -0.7636809396    -2.5721733101
   68      C      -4.1130838470    -1.7621202348    -0.3306204733
   69      C      -1.2083247272     0.7013117104    -2.2666895597
   70      C      -6.3613139795     0.0471860861    -2.3892882242
   71      C      -5.5753155641     4.3388176434     1.0806960795
   72      C      -4.6103743612    -1.6466595701     0.9839851632
   73      C      -4.5777292138     1.8050416583     3.2432812757
   74      C      -3.1484770172     1.3829204405    -3.6743218378
   75      C      -3.3973527239     4.1619843457     2.2377811462
   76      C      -4.0420787423     3.3685946269    -3.1735274862
   77      C      -1.6314378049     3.9794151607     0.8580482041
   78      C      -6.6228439350     3.4335913173     0.8773918478
   79      C      -4.8339778565     4.0033708787     2.2325853413
   80      C      -6.8183417797     1.3067623693    -1.9620468676
   81      C      -5.1348119038     0.0400459522    -3.0571704568
   82      C      -0.5147358037     2.4054260491    -0.7296346726
   83      C      -4.9866680076     4.8847547981    -0.0411433375
   84      C      -2.5773522936     0.6427576165     2.9197785970
   85      C      -1.1055800146    -0.3054655948    -1.2499457464
   86      C      -0.8878324713     1.7370041020     1.5798769591
   87      C      -4.5302854335     1.2253669794    -3.5307829663
   88      C      -1.7596243744     2.9875234857    -2.6054334414
   89      O       2.1049708485    -4.1559146976     4.2931842234
   90      C       2.4797067149    -5.2895460558     3.4221423333
   91      H       2.5069899262    -5.0533529109     2.3516324433
   92      H       1.7576962746    -6.0880888778     3.6284607412
   93      H       3.4992156071    -5.6718976096     3.5657212596
   94      O       0.0203497040    -3.8797235472     3.3964015672
   95      C       0.9402851529    -3.5338772584     4.1371404648
   96      C       0.9265051773    -2.3889696224     5.0395780623
   97      H       1.1793734891    -2.8465595003     6.0036144311
   98      H      -0.1067738270    -2.0196047080     5.0217438425
   99      C       1.8965898312    -1.2643730139     4.8174446958
  100      H       1.8171956182    -0.4330057430     5.5283406234
  101      H       2.9069220213    -1.6723518830     4.6914442666
  102      C       1.4972750860    -0.5649526298     3.4887009806
  103      H       1.1859065646    -1.3031378236     2.7396267095
  104      H       0.5706196839    -0.0372406228     3.7460641550
  105      C       2.5805766839     0.3882589887     2.9962842281
  106      C       2.5179497647     1.6269080902     3.8716014690
  107      C       3.4296579637     1.8780244551     4.8902406255
  108      H       4.1248300956     1.0747919259     5.1146024115
  109      C       3.3269665055     3.0558362235     5.6545729503
  110      H       4.0312719885     3.1832557580     6.4714989255
  111      C       2.3299538797     3.9943404805     5.3460513409
  112      H       2.0290449998     4.7420490093     6.0738726115
  113      C       1.5297420140     3.8085679870     4.2550744618
  114      H       0.8438770331     4.6098433109     3.9957906728
  115      C       1.6709988940     2.6591035878     3.4812481965
  116      H       1.0924760753     2.6460978798     2.5624880538
  117      C       5.2187127612     2.9858527712    -1.2153726405
  118      C       6.9911098090     2.5645499592     0.3630460763
  119      C       9.1901573495    -0.6832227471    -1.9845161409
  120      C       2.8534412536    -1.3365132797    -2.2198448490
  121      C       7.6295735705    -3.2526151257    -0.1037465980
  122      C       5.6610095888     2.8316631308     0.0937247856
  123      C       4.6372999024    -3.4262518975    -2.1425672293
  124      C       8.0638955282     1.4373796779    -2.6739308676
  125      C       6.2333436528    -0.6565424343     2.5989915688
  126      C       2.7957639897    -2.1786509363    -1.1095298033
  127      C       3.8983577906    -0.1073289087     2.4022391196
  128      C       5.5776211965    -1.7987197842     2.2593079488
  129      C       4.1707119445    -3.2117788929     0.2756682860
  130      C       5.9717001757    -3.6951486315    -1.8416179693
  131      C       5.7147838158     1.6483383128     1.9875306647
  132      C       8.0098723810    -2.5603609206    -2.4178574273
  133      C       2.9682289653     0.5824100089     1.4894962237
  134      C       2.4674342983    -0.1671338396     0.3129611751
  135      C       8.4764003869    -2.6639333501    -1.0861824026
  136      C       5.4027554243    -0.1375286781    -4.3367282148
  137      C       7.5364670358    -0.6415062301    -3.8078592459
  138      C       7.3610813679     0.7145528652    -3.6546156563
  139      C       7.4255643066     2.4525139724    -1.9982500143
  140      C       2.4953324023     0.5976329336    -0.8376645149
  141      C       5.3220394678     0.4312165383     2.5903834354
  142      C       7.8753867384     2.3544991821    -0.6732859088
  143      C       3.7365649648    -3.1816176016    -1.0510798802
  144      C       7.0375220925     1.8067759072     1.5419041619
  145      C       6.1881031828    -2.8235784592     1.5294158741
  146      C       3.4107259410     0.6982248583    -3.0715046913
  147      C       8.9555219882     0.7683739842    -1.8314567506
  148      C       4.1970413629    -1.5596975710     2.1591395673
  149      C       5.3971134261     2.0334869515    -3.2781587536
  150      C       5.5243000818    -3.5736517202     0.5516922188
  151      C       7.5885261222    -0.4344636668     2.1686678584
  152      C       5.9255313505    -2.3846625607    -3.6699091654
  153      C       4.5737347756    -2.6272397140    -3.3046266105
  154      C       8.2077217931    -1.4278500591     1.4035115367
  155      C       2.5394882970     0.0202926551    -2.1186065354
  156      C       2.6474510551    -1.6151094137     0.2255500541
  157      C       4.0959166934    -0.3213670771    -3.8138812253
  158      C       3.5190031614     1.8147626701     0.7883958719
  159      C       8.9885654742     0.5423469406     0.6066314150
  160      C       3.5394042846    -2.2498314594     1.0735490878
  161      C       7.4776705070    -2.6175101228     1.1158049977
  162      C       4.0940402665     1.8579342579    -2.8232394283
  163      C       9.1466103394    -1.5222502150    -0.8257380923
  164      C       6.0744451812     2.7570897158    -2.3031347882
  165      C       8.4652064055    -1.3510503936    -2.9864389740
  166      C       8.0434596525     0.7789026005     1.6609171475
  167      C       9.0141332302    -0.8594046300     0.4225205131
  168      C       4.8527002717     2.2607970679     1.0811608525
  169      C       3.1536709558     1.7979206782    -0.5971844133
  170      C       6.3252486931    -1.1688008674    -4.1887929565
  171      C       8.9025522428     1.3736093725    -0.5600109866
  172      C       6.3969590310    -3.7626896535    -0.5070112420
  173      C       3.7027498557    -1.5511790957    -3.3161511411
  174      C       6.7621592597    -3.0897025762    -2.7893602922
  175      C       3.9479471562     2.3971109450    -1.5548411063
  176      C       6.0504765503     1.0136123421    -3.9783461636
 ----------------------------------------------------------------

    9   -5804.2266718206      8.85E-06 Convergence criterion met
 Total energy in the final basis set = -5804.2266718206

                    Orbital Energies (a.u.)
 --------------------------------------------------------------

 Alpha MOs
 -- Occupied --
-19.201 -19.197 -19.130 -19.125 -10.312 -10.305 -10.252 -10.250
-10.241 -10.240 -10.240 -10.239 -10.239 -10.238 -10.231 -10.230
-10.228 -10.228 -10.228 -10.227 -10.226 -10.226 -10.225 -10.225
-10.223 -10.222 -10.222 -10.221 -10.221 -10.221 -10.221 -10.221
-10.221 -10.220 -10.220 -10.220 -10.220 -10.220 -10.220 -10.220
-10.219 -10.219 -10.218 -10.218 -10.218 -10.218 -10.218 -10.218
-10.217 -10.217 -10.217 -10.217 -10.217 -10.217 -10.216 -10.216
-10.216 -10.216 -10.216 -10.216 -10.216 -10.216 -10.216 -10.216
-10.215 -10.215 -10.215 -10.215 -10.215 -10.215 -10.215 -10.215
-10.215 -10.215 -10.215 -10.215 -10.215 -10.215 -10.215 -10.214
-10.214 -10.214 -10.214 -10.214 -10.213 -10.213 -10.213 -10.213
-10.212 -10.212 -10.212 -10.212 -10.212 -10.211 -10.211 -10.211
-10.211 -10.210 -10.210 -10.210 -10.210 -10.210 -10.210 -10.210
-10.210 -10.210 -10.210 -10.210 -10.210 -10.209 -10.209 -10.209
-10.209 -10.209 -10.209 -10.209 -10.209 -10.208 -10.208 -10.208
-10.208 -10.207 -10.207 -10.207 -10.206 -10.206 -10.206 -10.206
-10.206 -10.206 -10.206 -10.205 -10.204 -10.204 -10.204 -10.203
-10.203 -10.201 -10.201 -10.197 -10.196 -10.196 -10.196 -10.194
-10.193 -10.191 -10.189 -10.188  -1.113  -1.098  -1.022  -1.003
 -0.986  -0.983  -0.968  -0.967  -0.966  -0.964  -0.963  -0.960
 -0.938  -0.933  -0.930  -0.928  -0.927  -0.925  -0.924  -0.923
 -0.922  -0.922  -0.898  -0.898  -0.893  -0.891  -0.887  -0.886
 -0.876  -0.875  -0.856  -0.851  -0.844  -0.843  -0.840  -0.839
 -0.838  -0.833  -0.825  -0.820  -0.814  -0.801  -0.800  -0.798
 -0.797  -0.796  -0.795  -0.793  -0.792  -0.790  -0.787  -0.786
 -0.774  -0.772  -0.770  -0.769  -0.769  -0.766  -0.765  -0.764
 -0.749  -0.747  -0.745  -0.745  -0.735  -0.733  -0.717  -0.716
 -0.715  -0.715  -0.713  -0.713  -0.711  -0.710  -0.710  -0.709
 -0.709  -0.708  -0.707  -0.706  -0.706  -0.704  -0.676  -0.675
 -0.660  -0.660  -0.657  -0.655  -0.648  -0.647  -0.633  -0.631
 -0.629  -0.627  -0.626  -0.624  -0.623  -0.622  -0.619  -0.617
 -0.617  -0.615  -0.615  -0.613  -0.612  -0.612  -0.610  -0.608
 -0.606  -0.605  -0.604  -0.601  -0.575  -0.567  -0.566  -0.565
 -0.562  -0.562  -0.560  -0.559  -0.559  -0.555  -0.554  -0.553
 -0.537  -0.536  -0.534  -0.532  -0.529  -0.527  -0.526  -0.524
 -0.524  -0.523  -0.520  -0.519  -0.519  -0.516  -0.515  -0.512
 -0.510  -0.507  -0.502  -0.502  -0.495  -0.494  -0.488  -0.486
 -0.485  -0.482  -0.482  -0.480  -0.479  -0.477  -0.477  -0.476
 -0.473  -0.473  -0.473  -0.471  -0.470  -0.468  -0.467  -0.466
 -0.466  -0.465  -0.465  -0.464  -0.463  -0.461  -0.460  -0.459
 -0.456  -0.454  -0.453  -0.452  -0.449  -0.447  -0.444  -0.443
 -0.442  -0.441  -0.441  -0.440  -0.439  -0.437  -0.434  -0.433
 -0.431  -0.431  -0.430  -0.428  -0.427  -0.426  -0.425  -0.424
 -0.423  -0.423  -0.422  -0.420  -0.420  -0.419  -0.418  -0.418
 -0.417  -0.416  -0.416  -0.416  -0.415  -0.414  -0.413  -0.412
 -0.411  -0.411  -0.409  -0.406  -0.403  -0.401  -0.400  -0.399
 -0.394  -0.394  -0.393  -0.391  -0.390  -0.389  -0.388  -0.383
 -0.381  -0.377  -0.376  -0.372  -0.371  -0.371  -0.366  -0.365
 -0.364  -0.363  -0.362  -0.361  -0.360  -0.359  -0.358  -0.357
 -0.356  -0.355  -0.355  -0.353  -0.352  -0.352  -0.352  -0.351
 -0.350  -0.350  -0.349  -0.348  -0.347  -0.347  -0.346  -0.345
 -0.345  -0.343  -0.342  -0.341  -0.339  -0.338  -0.337  -0.335
 -0.332  -0.332  -0.331  -0.329  -0.329  -0.326  -0.324  -0.323
 -0.311  -0.304  -0.304  -0.301  -0.290  -0.284  -0.272  -0.270
 -0.270  -0.268  -0.267  -0.267  -0.265  -0.264  -0.264  -0.263
 -0.261  -0.261  -0.260  -0.258  -0.258  -0.255  -0.254  -0.253
 -0.252  -0.247  -0.247  -0.244  -0.221  -0.219  -0.213  -0.210
 -0.209  -0.208  -0.207  -0.206  -0.202  -0.198

          Ground-State Mulliken Net Atomic Charges

     Atom                 Charge (a.u.)
  ----------------------------------------
      1 O                    -0.437627
      2 C                    -0.101752
      3 H                     0.124748
      4 H                     0.138295
      5 H                     0.130392
      6 O                    -0.464368
      7 C                     0.583995
      8 C                    -0.257066
      9 H                     0.117106
     10 H                     0.125226
     11 C                    -0.198732
     12 H                     0.126456
     13 H                     0.112237
     14 C                    -0.184217
     15 H                     0.122686
     16 H                     0.110970
     17 C                     0.017299
     18 C                     0.081553
     19 C                    -0.101468
     20 H                     0.094741
     21 C                    -0.102424
     22 H                     0.090967
     23 C                    -0.074898
     24 H                     0.101070
     25 C                    -0.098549
     26 H                     0.086195
     27 C                    -0.095975
     28 H                     0.094744
     29 C                     0.024461
     30 C                     0.012255
     31 C                    -0.024826
     32 C                    -0.037602
     33 C                     0.015434
     34 C                     0.002664
     35 C                    -0.032791
     36 C                     0.018327
     37 C                     0.002773
     38 C                     0.016793
     39 C                    -0.074315
     40 C                     0.013848
     41 C                     0.002898
     42 C                    -0.022954
     43 C                     0.035286
     44 C                    -0.025544
     45 C                    -0.089010
     46 C                     0.045496
     47 C                     0.008298
     48 C                    -0.014378
     49 C                    -0.010612
     50 C                     0.021055
     51 C                    -0.029374
     52 C                    -0.008928
     53 C                     0.002508
     54 C                    -0.006760
     55 C                     0.024646
     56 C                    -0.040762
     57 C                    -0.020239
     58 C                    -0.000434
     59 C                     0.009254
     60 C                     0.026592
     61 C                    -0.016485
     62 C                     0.011932
     63 C                     0.006245
     64 C                     0.039022
     65 C                     0.024212
     66 C                     0.016106
     67 C                     0.009245
     68 C                     0.032539
     69 C                     0.007040
     70 C                     0.012800
     71 C                     0.015909
     72 C                    -0.056587
     73 C                    -0.015568
     74 C                    -0.026088
     75 C                    -0.023254
     76 C                     0.002345
     77 C                     0.029845
     78 C                    -0.015676
     79 C                    -0.006260
     80 C                     0.007692
     81 C                     0.005611
     82 C                    -0.035333
     83 C                    -0.010263
     84 C                    -0.014424
     85 C                     0.007169
     86 C                     0.002790
     87 C                     0.010226
     88 C                     0.019465
     89 O                    -0.454091
     90 C                    -0.095115
     91 H                     0.134497
     92 H                     0.134939
     93 H                     0.128640
     94 O                    -0.499004
     95 C                     0.609270
     96 C                    -0.247796
     97 H                     0.127895
     98 H                     0.122983
     99 C                    -0.183398
    100 H                     0.119428
    101 H                     0.116234
    102 C                    -0.215977
    103 H                     0.117517
    104 H                     0.117956
    105 C                     0.028666
    106 C                     0.067516
    107 C                    -0.105882
    108 H                     0.089762
    109 C                    -0.098637
    110 H                     0.090827
    111 C                    -0.084387
    112 H                     0.090074
    113 C                    -0.091167
    114 H                     0.090517
    115 C                    -0.090044
    116 H                     0.092967
    117 C                    -0.026733
    118 C                     0.004888
    119 C                    -0.029773
    120 C                     0.029642
    121 C                    -0.025043
    122 C                     0.011027
    123 C                    -0.001369
    124 C                     0.005592
    125 C                     0.020847
    126 C                    -0.025538
    127 C                    -0.078795
    128 C                     0.025982
    129 C                    -0.018623
    130 C                     0.016215
    131 C                    -0.003462
    132 C                    -0.005917
    133 C                    -0.083792
    134 C                     0.039886
    135 C                     0.006987
    136 C                    -0.028492
    137 C                     0.012566
    138 C                     0.007903
    139 C                    -0.000240
    140 C                     0.031092
    141 C                     0.000324
    142 C                     0.007892
    143 C                     0.014419
    144 C                    -0.010940
    145 C                     0.010243
    146 C                    -0.015513
    147 C                     0.006809
    148 C                     0.014665
    149 C                     0.018898
    150 C                    -0.050818
    151 C                    -0.018124
    152 C                    -0.001391
    153 C                    -0.037572
    154 C                    -0.001483
    155 C                    -0.045711
    156 C                    -0.045244
    157 C                     0.006881
    158 C                    -0.002838
    159 C                    -0.025675
    160 C                     0.030131
    161 C                     0.006239
    162 C                     0.006505
    163 C                     0.011285
    164 C                    -0.008497
    165 C                    -0.014379
    166 C                    -0.007170
    167 C                     0.024995
    168 C                     0.027015
    169 C                     0.034026
    170 C                     0.010467
    171 C                    -0.019191
    172 C                     0.019632
    173 C                     0.030457
    174 C                     0.005519
    175 C                    -0.013098
    176 C                     0.006281
  ----------------------------------------
  Sum of atomic charges =     0.000000

                    Cartesian Multipole Moments
 -----------------------------------------------------------------
    Charge (ESU x 10^10)
                 0.0000
    Dipole Moment (Debye)
         X      -1.5303      Y      -0.4035      Z       0.5897
       Tot       1.6889
    Quadrupole Moments (Debye-Ang)
        XX    -815.2019     XY     -15.3493     YY    -806.2381
        XZ      23.6587     YZ      13.2298     ZZ    -789.3030

 Total job time:  874.01s(wall), 7447.80s(cpu)
        *  Thank you very much for using Q-Chem.  Have a nice day.  *
