 Q-Chem 4.4, Q-Chem, Inc., Pleasanton, CA (2016)
 Q-Chem 4.4.2 for Intel X86 Linux

User input:
--------------------------------------------------------------
$comment
SP
$end

$rem
MEM_STATIC 5000
MEM_TOTAL 20000
JOBTYPE SP
EXCHANGE B3LYP
BASIS 6-31g(d,p)
$end

$molecule
0 1
O           2.782000    -10.851000     -6.214000
C           4.173000    -10.549000     -6.070000
H           4.573000    -10.322000     -7.066000
H           4.716000    -11.356000     -5.562000
H           4.308000     -9.632000     -5.483000
O           3.116000    -13.021000     -7.015000
C           2.387000    -12.043000     -6.800000
C           0.897000    -12.029000     -6.910000
H           0.398000    -11.099000     -7.209000
H           0.509000    -12.104000     -5.887000
C           0.255000    -13.070000     -7.847000
H           0.711000    -13.051000     -8.844000
H           0.367000    -14.084000     -7.442000
C          -1.250000    -12.703000     -7.991000
H          -1.709000    -12.843000     -7.005000
H          -1.310000    -11.625000     -8.182000
C          -2.012000    -13.460000     -9.100000
C          -2.400000    -14.824000     -8.759000
C          -3.576000    -15.001000     -7.951000
H          -4.269000    -14.202000     -7.706000
C          -3.878000    -16.247000     -7.406000
H          -4.670000    -16.301000     -6.665000
C          -3.183000    -17.423000     -7.905000
H          -3.432000    -18.369000     -7.434000
C          -2.018000    -17.247000     -8.687000
H          -1.463000    -18.090000     -9.087000
C          -1.704000    -15.966000     -9.160000
H          -0.807000    -15.841000     -9.758000
C          -2.192000    -14.547000    -14.518000
C          -4.513000    -14.672000    -13.860000
C          -5.691000    -10.749000    -15.985000
C          -0.048000    -10.226000    -13.166000
C          -5.552000     -8.875000    -13.030000
C          -3.182000    -14.850000    -13.590000
C          -2.034000     -8.169000    -13.224000
C          -4.310000    -12.649000    -16.818000
C          -5.181000    -12.191000    -10.839000
C          -0.663000     -9.759000    -11.978000
C          -3.016000    -12.687000     -9.973000
C          -4.572000    -11.043000    -10.445000
C          -2.642000     -9.176000    -11.038000
C          -3.397000     -7.971000    -13.514000
C          -4.127000    -14.152000    -11.722000
C          -4.798000     -8.782000    -15.336000
C          -1.727000    -13.181000    -10.575000
C          -0.757000    -12.105000    -11.157000
C          -5.821000     -9.103000    -14.392000
C          -1.387000    -10.695000    -16.356000
C          -3.546000    -10.280000    -16.772000
C          -3.290000    -11.651000    -17.019000
C          -3.903000    -13.781000    -16.075000
C          -0.154000    -12.481000    -12.339000
C          -4.240000    -13.225000    -10.644000
C          -4.871000    -14.037000    -15.098000
C          -1.651000     -8.730000    -11.960000
C          -5.073000    -14.138000    -12.754000
C          -4.964000     -9.822000    -11.080000
C           0.015000    -11.850000    -14.724000
C          -5.485000    -12.141000    -16.217000
C          -3.209000    -11.276000    -10.058000
C          -1.584000    -13.076000    -16.122000
C          -3.976000     -8.875000    -11.372000
C          -6.126000    -12.218000    -11.819000
C          -2.352000     -8.692000    -15.450000
C          -1.400000     -8.616000    -14.382000
C          -6.501000    -11.017000    -12.456000
C           0.237000    -11.562000    -13.346000
C          -1.063000    -10.751000    -11.105000
C          -0.411000    -10.653000    -15.353000
C          -1.723000    -14.111000    -11.741000
C          -6.437000    -12.606000    -14.022000
C          -2.279000    -10.384000    -10.492000
C          -5.868000     -9.841000    -12.049000
C          -0.627000    -13.062000    -15.116000
C          -6.397000    -10.321000    -14.788000
C          -2.557000    -14.002000    -15.763000
C          -4.777000     -9.811000    -16.281000
C          -6.063000    -13.184000    -12.821000
C          -6.658000    -11.301000    -13.833000
C          -2.916000    -14.628000    -12.263000
C          -0.707000    -13.740000    -12.718000
C          -2.355000     -9.665000    -16.404000
C          -5.867000    -13.081000    -15.218000
C          -4.328000     -8.333000    -12.602000
C          -0.475000     -9.645000    -14.317000
C          -3.579000     -8.219000    -14.908000
C          -0.996000    -13.960000    -14.118000
C          -1.968000    -11.886000    -16.791000
O          -2.475000     -3.758000    -12.606000
C          -1.108000     -3.252000    -12.362000
H          -0.957000     -2.803000    -11.373000
H          -0.902000     -2.526000    -13.157000
H          -0.321000     -4.018000    -12.353000
O          -3.495000     -1.723000    -12.395000
C          -3.525000     -2.946000    -12.529000
C          -4.725000     -3.760000    -12.680000
H          -4.522000     -4.308000    -13.608000
H          -5.547000     -3.043000    -12.801000
C          -5.060000     -4.780000    -11.630000
H          -5.984000     -5.344000    -11.806000
H          -4.175000     -5.393000    -11.420000
C          -5.421000     -4.006000    -10.332000
H          -4.761000     -3.140000    -10.200000
H          -6.399000     -3.565000    -10.561000
C          -5.478000     -4.924000     -9.116000
C          -6.770000     -5.715000     -9.213000
C          -6.813000     -7.043000     -9.621000
H          -5.880000     -7.457000     -9.991000
C          -8.043000     -7.726000     -9.672000
H          -8.032000     -8.746000    -10.045000
C          -9.214000     -7.071000     -9.260000
H         -10.190000     -7.440000     -9.561000
C          -9.144000     -5.816000     -8.726000
H         -10.060000     -5.391000     -8.326000
C          -7.914000     -5.168000     -8.641000
H          -7.921000     -4.233000     -8.089000
C          -4.920000     -5.711000     -3.592000
C          -4.152000     -7.798000     -4.522000
C           0.298000     -7.323000     -3.591000
C          -2.365000     -1.932000     -5.708000
C           0.982000     -6.217000     -6.890000
C          -4.968000     -6.683000     -4.585000
C           0.204000     -2.731000     -6.271000
C          -1.771000     -6.747000     -2.315000
C          -2.641000     -7.307000     -8.186000
C          -2.058000     -2.184000     -7.045000
C          -4.222000     -5.516000     -8.478000
C          -1.959000     -6.246000     -8.695000
C          -0.945000     -3.660000     -8.253000
C           1.014000     -3.865000     -6.233000
C          -4.569000     -7.315000     -6.690000
C           1.328000     -5.561000     -4.560000
C          -4.975000     -4.527000     -7.685000
C          -4.273000     -3.288000     -7.274000
C           1.245000     -6.580000     -5.538000
C          -1.370000     -3.271000     -2.604000
C          -0.030000     -5.085000     -2.619000
C          -1.254000     -5.455000     -2.111000
C          -3.119000     -6.905000     -2.544000
C          -4.521000     -2.967000     -5.953000
C          -3.979000     -6.921000     -7.913000
C          -3.213000     -7.909000     -3.519000
C          -0.788000     -2.646000     -7.306000
C          -3.880000     -8.195000     -5.839000
C          -0.601000     -6.035000     -8.436000
C          -3.450000     -2.591000     -3.820000
C          -1.033000     -7.676000     -3.053000
C          -2.830000     -5.168000     -8.924000
C          -3.436000     -4.498000     -2.359000
C          -0.043000     -4.767000     -8.236000
C          -1.991000     -8.241000     -7.305000
C           0.497000     -3.313000     -4.114000
C          -0.115000     -2.342000     -4.952000
C          -0.643000     -8.029000     -6.999000
C          -3.645000     -2.165000     -5.201000
C          -2.993000     -2.926000     -7.880000
C          -2.054000     -2.435000     -3.525000
C          -5.466000     -5.002000     -6.326000
C          -1.578000     -8.874000     -5.118000
C          -2.284000     -3.869000     -8.605000
C           0.023000     -6.920000     -7.597000
C          -4.104000     -3.633000     -3.220000
C           0.595000     -7.612000     -4.961000
C          -3.965000     -5.767000     -2.566000
C           0.766000     -6.020000     -3.349000
C          -2.575000     -8.732000     -6.141000
C          -0.385000     -8.354000     -5.671000
C          -5.227000     -6.359000     -5.920000
C          -5.218000     -3.998000     -5.334000
C          -0.114000     -3.755000     -2.957000
C          -1.933000     -8.475000     -3.786000
C           0.880000     -4.864000     -7.208000
C          -1.422000     -1.983000     -4.670000
C           1.224000     -4.206000     -4.918000
C          -4.998000     -4.335000     -4.013000
C          -2.069000     -4.338000     -2.108000
$end

--------------------------------------------------------------

             Standard Nuclear Orientation (Angstroms)
    I     Atom           X                Y                Z
 ----------------------------------------------------------------
    1      O       1.3933483591     6.0551484245     2.6416305243
    2      C       1.8460280177     6.6371382065     3.8676770244
    3      H       1.3084263406     6.1495729958     4.6903614123
    4      H       1.7340629579     7.7287543546     3.8677796803
    5      H       2.9062272501     6.4082759950     4.0328517074
    6      O      -0.6158628925     7.2466753925     2.5682096084
    7      C       0.1224269367     6.3368600639     2.1665702228
    8      C      -0.1035804182     5.5110869881     0.9420639946
    9      H       0.2489352863     4.4723623326     0.9328028834
   10      H       0.5570578358     5.9174321990     0.1667326675
   11      C      -1.5565881919     5.3762865351     0.4476843354
   12      H      -2.2286432615     5.0560912624     1.2527451846
   13      H      -1.9277748201     6.3320568276     0.0559080789
   14      C      -1.5723199887     4.2878239738    -0.6638244423
   15      H      -0.9898229415     4.6816773426    -1.5052837187
   16      H      -0.9956592385     3.4312719739    -0.2951158165
   17      C      -2.9735717769     3.8086395631    -1.1002299034
   18      C      -3.6784288721     4.7104816929    -2.0042090227
   19      C      -3.3258677956     4.6686652965    -3.3974502353
   20      H      -2.6818890185     3.9133780819    -3.8373451752
   21      C      -3.7928414606     5.6453834147    -4.2742069369
   22      H      -3.3671201749     5.6799362218    -5.2726199228
   23      C      -4.8760299787     6.5171202120    -3.8478507588
   24      H      -5.1905978611     7.2795996461    -4.5538466228
   25      C      -5.2113109502     6.5680779731    -2.4750015404
   26      H      -6.0129468742     7.1989523376    -2.1034488771
   27      C      -4.6667419591     5.6129203699    -1.6064368813
   28      H      -4.9289304110     5.6614246527    -0.5544185591
   29      C      -7.7000018313     1.5163987455     0.6246422585
   30      C      -7.5415279586     0.7769584735    -1.6696428406
   31      C      -6.5925892425    -3.6008448116    -0.5616754629
   32      C      -3.5860937831     0.4393746782     3.2725585579
   33      C      -3.1511204325    -3.1889101112    -1.0614996640
   34      C      -7.3245430930     1.7184378157    -0.6987261520
   35      C      -2.4549043666    -1.9800676758     2.2500527146
   36      C      -8.3355263918    -2.0757881877     0.3588800148
   37      C      -3.7281519840     0.4076409702    -2.6942375203
   38      C      -2.4642646211     0.4562162256     2.4071836717
   39      C      -3.2002827925     2.3082728750    -1.3555256472
   40      C      -2.6055292985     0.1603226308    -1.9713454502
   41      C      -1.5882805190    -0.4317186429     0.5139975947
   42      C      -2.6764801024    -2.9620270909     1.2663185532
   43      C      -5.5826594031     1.7804486649    -2.0521103789
   44      C      -4.7038410380    -4.1151457744     0.5589778018
   45      C      -3.8399662937     2.9687837734    -0.1628432203
   46      C      -3.4448809377     2.4253813011     1.2464194644
   47      C      -4.3321323933    -3.9091499316    -0.8048786408
   48      C      -6.3821564812    -1.6512658037     3.2879781248
   49      C      -6.6332933589    -3.2512147117     1.7440688786
   50      C      -7.7077986034    -2.3354773578     1.6298341283
   51      C      -8.5070547040    -0.7082779827     0.0432601845
   52      C      -4.5025048865     2.3446730603     2.1279106799
   53      C      -4.1809345724     1.6843941823    -2.2973103696
   54      C      -8.0618025330    -0.5000810430    -1.2665083212
   55      C      -1.8633023816    -0.7258863123     1.8810781912
   56      C      -6.4292609509     0.7324771014    -2.4331056826
   57      C      -2.2934344158    -1.2008438775    -1.6590114608
   58      C      -5.8130441026     0.7178187527     3.4510807462
   59      C      -7.6753555195    -2.6883157676    -0.7314751489
   60      C      -2.3362027592     1.2181994337    -1.0385073693
   61      C      -7.8279886739    -0.0283602365     2.2689232733
   62      C      -1.7700627057    -1.4917991660    -0.3942410970
   63      C      -4.5639684730    -0.5842147265    -3.1087095622
   64      C      -4.4733493111    -2.9945865172     2.7258263232
   65      C      -3.5393157036    -1.9844456531     3.1257021225
   66      C      -4.2649944682    -1.9244169111    -2.7873567205
   67      C      -4.5849111676     1.3826047858     3.1667200175
   68      C      -2.5301615962     1.3902020439     1.3925304897
   69      C      -5.5161712482    -0.6412832178     3.7242736122
   70      C      -5.3196354957     2.9638951838     0.0243122084
   71      C      -6.4742369356    -1.6732579797    -2.5936045307
   72      C      -1.9600190763     0.8578754228     0.2175071386
   73      C      -3.1115520507    -2.1712879659    -2.0404033940
   74      C      -6.9805551111     0.9923665715     2.6788673428
   75      C      -5.4997565372    -3.5992146132    -1.5209163193
   76      C      -8.2865168284     0.2923628739     0.9961410382
   77      C      -6.0858714733    -3.9255198646     0.6386075089
   78      C      -5.9412352876    -0.4463155876    -2.9498103838
   79      C      -5.4829644974    -2.5583247855    -2.4465579314
   80      C      -6.1735687274     2.4222513703    -0.9454516882
   81      C      -5.6827623035     2.7029747811     1.4115704630
   82      C      -5.8269133621    -2.8595666646     2.8063744410
   83      C      -7.6119770738    -1.7119209338    -1.7659611571
   84      C      -2.3462262321    -2.6991088363    -0.0187321744
   85      C      -4.0858667650    -0.7894666317     3.5638779728
   86      C      -3.8853785026    -3.6419648701     1.6041251168
   87      C      -6.8883875199     1.9466637372     1.6692183669
   88      C      -7.5608260306    -1.3830619877     2.5922254342
   89      O       0.9121276617    -4.8274832476     3.0172853268
   90      C       1.5725963276    -4.3403942319     4.2464258526
   91      H       2.6157109810    -4.0299662538     4.1120037924
   92      H       1.4972005516    -5.1524020840     4.9788845375
   93      H       1.1470277602    -3.4221388464     4.6729284218
   94      O       2.3263379468    -6.5960010970     2.7034384122
   95      C       1.4044132846    -5.8636810149     2.3451826171
   96      C       0.6229547083    -6.0091356230     1.1230686902
   97      H      -0.4050412923    -6.0403716180     1.5037858232
   98      H       0.9297766994    -6.9728772531     0.6970682954
   99      C       0.6749955368    -4.9276487121     0.0824905751
  100      H       0.0715252633    -5.1140398186    -0.8141308525
  101      H       0.5098313873    -3.9535109696     0.5587997839
  102      C       2.1099004828    -4.9281402734    -0.5135367350
  103      H       2.8562515829    -5.1021403584     0.2711058625
  104      H       2.1360805795    -5.8444695992    -1.1160823093
  105      C       2.3811118928    -3.6840625845    -1.3521928475
  106      C       1.6451884834    -3.8624747941    -2.6678447083
  107      C       0.4502738211    -3.2145143351    -2.9580570330
  108      H      -0.0023243645    -2.6630404474    -2.1396338946
  109      C      -0.1729881977    -3.4089714511    -4.2053424398
  110      H      -1.1299853774    -2.9211669601    -4.3661316699
  111      C       0.4474208692    -4.2202264211    -5.1681341947
  112      H      -0.1224264553    -4.6313700196    -5.9961275329
  113      C       1.6886925094    -4.7373939502    -4.9296735856
  114      H       2.1724635989    -5.2713857864    -5.7423846362
  115      C       2.3134428874    -4.5010849293    -3.7074321970
  116      H       3.3452796131    -4.8330760704    -3.6436132838
  117      C       5.9674915830     0.1140248146    -3.3912420933
  118      C       3.9642683458     1.4006156178    -3.0143153536
  119      C       5.4283575240     3.8461025056     0.5593274321
  120      C       7.2138292575    -2.2660298318     0.8594407085
  121      C       3.8187284181     1.6681581646     2.8484638607
  122      C       4.5812898693     0.2044264163    -3.3328523747
  123      C       6.5310151434    -0.7297009205     3.0339726954
  124      C       6.5370392755     3.0988244865    -1.5509126813
  125      C       1.7598779701    -0.1422285934    -0.0631473117
  126      C       6.0948495202    -2.6640568350     1.5907278287
  127      C       2.5828259605    -2.3041115695    -0.7276204889
  128      C       2.1686198401    -0.7824023566     1.0651406111
  129      C       4.3331566383    -1.7622028395     2.5703739694
  130      C       5.8822672976     0.4626617088     3.3516165095
  131      C       2.6529847856    -0.3073514012    -2.3281768202
  132      C       6.0056677436     2.6639598769     2.3961063289
  133      C       3.7504437960    -2.9209568522    -1.3834783144
  134      C       4.9562455250    -3.1728548796    -0.5591994938
  135      C       4.5953203052     2.7762059298     2.4035175820
  136      C       8.6982005923     0.8156163200     0.0121740826
  137      C       7.6093766207     2.7044932126     0.5892593829
  138      C       7.6071910777     2.6054823787    -0.7830860831
  139      C       6.1230022856     2.3961655375    -2.6596745007
  140      C       6.1158852601    -2.7997721746    -1.2116034943
  141      C       2.0804353044    -0.9331150133    -1.1969509394
  142      C       4.7237785967     2.4943884150    -2.6581465075
  143      C       5.7250651899    -1.8502674528     2.6373755204
  144      C       2.7590742185     1.0928452794    -2.3671163622
  145      C       2.6412777255    -0.0939781240     2.1869394341
  146      C       8.0455693484    -1.3544602813    -1.0519199000
  147      C       5.4485018354     3.6975598528    -0.9114353928
  148      C       2.6332156166    -2.0714825612     0.7559659181
  149      C       7.8406179595     0.7212821545    -2.2438319220
  150      C       3.6966472978    -0.5525635821     2.9838600347
  151      C       1.8477257156     1.2905848750    -0.1648593476
  152      C       7.7549420617     0.9757063621     2.2149422327
  153      C       7.7274339917    -0.4393607516     2.3432285129
  154      C       2.3545299332     1.9986726325     0.9294190506
  155      C       7.2970002901    -2.4858868346    -0.5169616591
  156      C       4.8869120507    -3.0930233285     0.8987098974
  157      C       8.5117112654    -0.5903891195     0.0701692110
  158      C       4.3787986678    -2.1170537648    -2.5115283935
  159      C       3.0719234562     3.1073680403    -0.9097525091
  160      C       3.7955199161    -2.4926033749     1.5036182275
  161      C       2.7284558637     1.2700629524     2.0957587663
  162      C       7.7193022446    -0.6635964934    -2.1875857855
  163      C       4.2592870259     3.4499601176     1.2838792790
  164      C       6.7824467398     1.1914847964    -3.0133994275
  165      C       6.5287077480     3.3410408132     1.2731474875
  166      C       2.3125032253     1.9525319464    -1.2974850320
  167      C       3.1384702945     3.0657242691     0.5020885990
  168      C       3.7914346433    -0.8662477691    -2.9038214776
  169      C       5.8064870558    -2.1278537419    -2.3883487390
  170      C       8.2446475483     1.5872983187     1.0776305713
  171      C       4.2808608550     3.3797449559    -1.6334452489
  172      C       4.4822467486     0.5372124631     3.3205255574
  173      C       8.0397051178    -1.1915295594     1.2236826995
  174      C       6.6409471842     1.5090283233     2.8835056916
  175      C       6.5732939056    -1.0758448687    -2.8491031050
  176      C       8.2741234315     1.4441478252    -1.1272172938
 ----------------------------------------------------------------

    9   -5804.2320859300      8.67E-06 Convergence criterion met
 Total energy in the final basis set = -5804.2320859300

                    Orbital Energies (a.u.)
 --------------------------------------------------------------

 Alpha MOs
 -- Occupied --
-19.197 -19.191 -19.142 -19.130 -10.324 -10.311 -10.250 -10.248
-10.245 -10.244 -10.243 -10.242 -10.242 -10.238 -10.234 -10.234
-10.234 -10.231 -10.230 -10.230 -10.227 -10.226 -10.226 -10.225
-10.225 -10.225 -10.224 -10.224 -10.224 -10.224 -10.223 -10.223
-10.223 -10.223 -10.222 -10.222 -10.222 -10.221 -10.221 -10.221
-10.221 -10.221 -10.220 -10.220 -10.220 -10.220 -10.220 -10.220
-10.219 -10.219 -10.219 -10.219 -10.218 -10.218 -10.218 -10.218
-10.218 -10.218 -10.218 -10.217 -10.217 -10.217 -10.217 -10.217
-10.217 -10.217 -10.217 -10.217 -10.217 -10.216 -10.216 -10.216
-10.216 -10.216 -10.216 -10.216 -10.216 -10.216 -10.215 -10.215
-10.215 -10.215 -10.215 -10.214 -10.214 -10.214 -10.214 -10.214
-10.214 -10.214 -10.213 -10.213 -10.213 -10.213 -10.213 -10.213
-10.213 -10.213 -10.213 -10.212 -10.212 -10.212 -10.212 -10.212
-10.212 -10.212 -10.212 -10.212 -10.211 -10.211 -10.211 -10.211
-10.211 -10.211 -10.211 -10.211 -10.210 -10.210 -10.210 -10.210
-10.210 -10.209 -10.209 -10.209 -10.208 -10.208 -10.208 -10.207
-10.207 -10.206 -10.206 -10.205 -10.204 -10.204 -10.204 -10.203
-10.203 -10.202 -10.200 -10.199 -10.198 -10.197 -10.196 -10.196
-10.195 -10.193 -10.193 -10.191  -1.097  -1.085  -1.007  -1.003
 -0.990  -0.986  -0.971  -0.970  -0.969  -0.967  -0.967  -0.963
 -0.941  -0.936  -0.933  -0.932  -0.931  -0.928  -0.928  -0.926
 -0.925  -0.925  -0.903  -0.901  -0.896  -0.894  -0.891  -0.889
 -0.879  -0.877  -0.858  -0.852  -0.845  -0.845  -0.843  -0.842
 -0.841  -0.836  -0.827  -0.827  -0.816  -0.811  -0.803  -0.800
 -0.800  -0.798  -0.798  -0.797  -0.796  -0.793  -0.788  -0.788
 -0.775  -0.774  -0.774  -0.773  -0.772  -0.769  -0.767  -0.765
 -0.753  -0.751  -0.746  -0.746  -0.736  -0.735  -0.721  -0.719
 -0.718  -0.716  -0.715  -0.715  -0.715  -0.713  -0.712  -0.712
 -0.711  -0.710  -0.709  -0.708  -0.706  -0.703  -0.678  -0.677
 -0.665  -0.663  -0.660  -0.658  -0.651  -0.649  -0.636  -0.636
 -0.630  -0.629  -0.627  -0.627  -0.627  -0.625  -0.621  -0.618
 -0.618  -0.618  -0.617  -0.615  -0.615  -0.613  -0.612  -0.609
 -0.608  -0.606  -0.605  -0.604  -0.572  -0.568  -0.566  -0.565
 -0.564  -0.564  -0.562  -0.562  -0.560  -0.560  -0.558  -0.556
 -0.540  -0.539  -0.537  -0.535  -0.530  -0.529  -0.527  -0.527
 -0.526  -0.526  -0.523  -0.522  -0.519  -0.518  -0.518  -0.515
 -0.511  -0.509  -0.504  -0.502  -0.496  -0.495  -0.489  -0.488
 -0.487  -0.486  -0.484  -0.484  -0.482  -0.479  -0.478  -0.478
 -0.475  -0.475  -0.474  -0.474  -0.471  -0.470  -0.470  -0.469
 -0.469  -0.468  -0.467  -0.467  -0.465  -0.464  -0.462  -0.462
 -0.459  -0.458  -0.456  -0.454  -0.454  -0.451  -0.446  -0.445
 -0.445  -0.444  -0.443  -0.441  -0.441  -0.440  -0.435  -0.435
 -0.435  -0.434  -0.430  -0.430  -0.429  -0.429  -0.428  -0.427
 -0.425  -0.425  -0.424  -0.423  -0.422  -0.422  -0.421  -0.421
 -0.420  -0.419  -0.419  -0.418  -0.417  -0.417  -0.417  -0.415
 -0.415  -0.414  -0.413  -0.411  -0.404  -0.403  -0.401  -0.400
 -0.396  -0.393  -0.393  -0.392  -0.391  -0.390  -0.387  -0.386
 -0.379  -0.377  -0.374  -0.372  -0.372  -0.371  -0.369  -0.369
 -0.367  -0.366  -0.363  -0.362  -0.362  -0.361  -0.361  -0.359
 -0.358  -0.358  -0.357  -0.355  -0.355  -0.354  -0.354  -0.353
 -0.352  -0.351  -0.351  -0.350  -0.349  -0.349  -0.348  -0.347
 -0.346  -0.345  -0.344  -0.342  -0.340  -0.339  -0.339  -0.337
 -0.337  -0.334  -0.333  -0.333  -0.332  -0.331  -0.329  -0.327
 -0.314  -0.306  -0.301  -0.298  -0.293  -0.291  -0.275  -0.273
 -0.272  -0.271  -0.270  -0.268  -0.268  -0.267  -0.267  -0.266
 -0.265  -0.264  -0.262  -0.262  -0.261  -0.258  -0.257  -0.256
 -0.252  -0.250  -0.247  -0.247  -0.226  -0.224  -0.213  -0.212
 -0.211  -0.210  -0.210  -0.208  -0.204  -0.201

          Ground-State Mulliken Net Atomic Charges

     Atom                 Charge (a.u.)
  ----------------------------------------
      1 O                    -0.471573
      2 C                    -0.082419
      3 H                     0.122427
      4 H                     0.132286
      5 H                     0.123610
      6 O                    -0.478605
      7 C                     0.606709
      8 C                    -0.265679
      9 H                     0.130612
     10 H                     0.145267
     11 C                    -0.174646
     12 H                     0.115236
     13 H                     0.124335
     14 C                    -0.202053
     15 H                     0.116219
     16 H                     0.106695
     17 C                     0.022664
     18 C                     0.093506
     19 C                    -0.099931
     20 H                     0.092562
     21 C                    -0.094149
     22 H                     0.093541
     23 C                    -0.095239
     24 H                     0.093117
     25 C                    -0.090548
     26 H                     0.096931
     27 C                    -0.106201
     28 H                     0.093812
     29 C                    -0.004742
     30 C                    -0.024062
     31 C                     0.007746
     32 C                    -0.002502
     33 C                    -0.013421
     34 C                     0.013011
     35 C                    -0.003872
     36 C                    -0.055746
     37 C                     0.042969
     38 C                    -0.013585
     39 C                    -0.104725
     40 C                    -0.019396
     41 C                    -0.025253
     42 C                    -0.001572
     43 C                    -0.000165
     44 C                    -0.008376
     45 C                    -0.069399
     46 C                     0.026116
     47 C                    -0.006026
     48 C                    -0.010042
     49 C                     0.003874
     50 C                     0.024001
     51 C                     0.014009
     52 C                    -0.000828
     53 C                     0.003022
     54 C                     0.014712
     55 C                    -0.027902
     56 C                     0.030387
     57 C                    -0.015422
     58 C                    -0.030717
     59 C                     0.010974
     60 C                     0.044105
     61 C                    -0.002492
     62 C                    -0.025338
     63 C                    -0.025774
     64 C                     0.009159
     65 C                     0.005344
     66 C                    -0.036582
     67 C                     0.018271
     68 C                     0.013584
     69 C                    -0.004173
     70 C                     0.013070
     71 C                     0.009378
     72 C                     0.036773
     73 C                     0.028558
     74 C                     0.011051
     75 C                    -0.027022
     76 C                    -0.007124
     77 C                     0.009860
     78 C                     0.002811
     79 C                     0.037009
     80 C                     0.011345
     81 C                    -0.028727
     82 C                    -0.001269
     83 C                    -0.024481
     84 C                     0.037817
     85 C                     0.013181
     86 C                    -0.011344
     87 C                     0.007132
     88 C                     0.000387
     89 O                    -0.454012
     90 C                    -0.095810
     91 H                     0.133531
     92 H                     0.135979
     93 H                     0.128750
     94 O                    -0.497571
     95 C                     0.608344
     96 C                    -0.248381
     97 H                     0.129737
     98 H                     0.122009
     99 C                    -0.183850
    100 H                     0.120560
    101 H                     0.119284
    102 C                    -0.213613
    103 H                     0.117891
    104 H                     0.116518
    105 C                     0.030332
    106 C                     0.072041
    107 C                    -0.099508
    108 H                     0.092408
    109 C                    -0.105239
    110 H                     0.092748
    111 C                    -0.084934
    112 H                     0.091392
    113 C                    -0.085186
    114 H                     0.090084
    115 C                    -0.103670
    116 H                     0.089940
    117 C                    -0.026571
    118 C                     0.004388
    119 C                    -0.031564
    120 C                     0.030611
    121 C                    -0.025005
    122 C                     0.011141
    123 C                    -0.000662
    124 C                     0.006984
    125 C                     0.029436
    126 C                    -0.025052
    127 C                    -0.076813
    128 C                     0.026248
    129 C                    -0.018193
    130 C                     0.016370
    131 C                    -0.002986
    132 C                    -0.006914
    133 C                    -0.086730
    134 C                     0.038512
    135 C                     0.003510
    136 C                    -0.027831
    137 C                     0.011254
    138 C                     0.008730
    139 C                    -0.001118
    140 C                     0.030693
    141 C                    -0.000604
    142 C                     0.007905
    143 C                     0.015238
    144 C                    -0.011665
    145 C                     0.012816
    146 C                    -0.013941
    147 C                     0.006520
    148 C                     0.016323
    149 C                     0.020894
    150 C                    -0.049309
    151 C                    -0.020335
    152 C                    -0.000664
    153 C                    -0.036435
    154 C                    -0.007890
    155 C                    -0.048150
    156 C                    -0.041467
    157 C                     0.006624
    158 C                    -0.001205
    159 C                    -0.033900
    160 C                     0.032436
    161 C                     0.005954
    162 C                     0.005282
    163 C                     0.018379
    164 C                    -0.007900
    165 C                    -0.013545
    166 C                    -0.012394
    167 C                     0.029563
    168 C                     0.026972
    169 C                     0.025597
    170 C                     0.011637
    171 C                    -0.019376
    172 C                     0.019973
    173 C                     0.031329
    174 C                     0.005402
    175 C                    -0.010175
    176 C                     0.005834
  ----------------------------------------
  Sum of atomic charges =     0.000000

                    Cartesian Multipole Moments
 -----------------------------------------------------------------
    Charge (ESU x 10^10)
                 0.0000
    Dipole Moment (Debye)
         X      -0.3302      Y       1.1740      Z      -1.7881
       Tot       2.1644
    Quadrupole Moments (Debye-Ang)
        XX    -820.5228     XY       9.0888     YY    -824.7701
        XZ       4.6104     YZ       3.1478     ZZ    -789.4711

 Total job time:  877.25s(wall), 7524.91s(cpu)
        *  Thank you very much for using Q-Chem.  Have a nice day.  *
