 Q-Chem 4.4, Q-Chem, Inc., Pleasanton, CA (2016)
 Q-Chem 4.4.2 for Intel X86 Linux

User input:
--------------------------------------------------------------
$comment
SP
$end

$rem
MEM_STATIC 5000
MEM_TOTAL 20000
JOBTYPE SP
EXCHANGE B3LYP
BASIS 6-31g(d,p)
$end

$molecule
0 1
O          12.859000     -9.359000     -5.627000
C          11.393000     -9.230000     -5.639000
H          11.101000     -8.174000     -5.573000
H          10.971000     -9.684000     -4.734000
H          10.997000     -9.686000     -6.555000
O          13.421000     -7.094000     -5.946000
C          13.694000     -8.238000     -5.847000
C          15.123000     -8.755000     -6.068000
H          15.111000     -9.551000     -6.822000
H          15.457000     -9.236000     -5.140000
C          16.206000     -7.780000     -6.463000
H          15.956000     -7.437000     -7.474000
H          16.348000     -6.874000     -5.861000
C          17.559000     -8.444000     -6.643000
H          17.378000     -9.413000     -7.123000
H          18.139000     -7.934000     -7.422000
C          18.327000     -8.617000     -5.238000
C          18.684000     -7.339000     -4.588000
C          17.965000     -6.769000     -3.522000
H          17.354000     -7.487000     -2.982000
C          18.172000     -5.440000     -3.093000
H          17.597000     -5.044000     -2.261000
C          19.323000     -4.764000     -3.558000
H          19.595000     -3.817000     -3.102000
C          20.099000     -5.300000     -4.608000
H          20.775000     -4.655000     -5.163000
C          19.786000     -6.574000     -5.161000
H          20.298000     -6.907000     -6.059000
C          22.846000    -10.677000     -2.881000
C          21.112000    -10.808000     -1.096000
C          20.641000    -15.334000     -1.271000
C          21.071000    -12.869000     -7.037000
C          17.747000    -15.221000     -3.225000
C          21.697000    -10.099000     -2.213000
C          19.448000    -15.053000     -6.422000
C          22.634000    -13.913000     -1.477000
C          17.416000    -11.285000     -2.684000
C          19.728000    -12.714000     -7.133000
C          18.142000     -9.925000     -4.505000
C          16.906000    -11.895000     -3.856000
C          17.735000    -13.269000     -6.089000
C          18.881000    -15.723000     -5.346000
C          19.403000     -9.916000     -2.220000
C          19.928000    -16.318000     -3.202000
C          19.448000     -9.623000     -5.164000
C          19.913000    -10.459000     -6.299000
C          18.820000    -15.834000     -2.539000
C          23.167000    -14.521000     -4.917000
C          22.295000    -15.711000     -3.103000
C          23.066000    -14.632000     -2.639000
C          22.816000    -12.562000     -1.322000
C          21.269000    -10.696000     -6.180000
C          18.295000    -10.219000     -3.017000
C          21.654000    -12.096000     -0.690000
C          18.871000    -13.776000     -6.765000
C          19.686000    -10.684000     -1.067000
C          16.728000    -13.245000     -3.885000
C          22.987000    -12.393000     -5.939000
C          21.432000    -14.308000     -0.756000
C          17.437000    -11.137000     -4.988000
C          23.726000    -12.556000     -3.634000
C          17.170000    -13.968000     -5.058000
C          17.726000    -12.115000     -1.560000
C          21.215000    -15.940000     -5.298000
C          20.876000    -15.164000     -6.425000
C          17.577000    -13.489000     -1.584000
C          21.868000    -11.833000     -6.624000
C          19.133000    -11.493000     -6.726000
C          22.809000    -13.760000     -5.967000
C          20.691000     -9.497000     -4.279000
C          19.423000    -12.984000     -0.325000
C          17.930000    -11.895000     -6.064000
C          17.048000    -14.083000     -2.758000
C          23.474000    -11.756000     -4.768000
C          19.270000    -15.258000     -1.298000
C          23.312000    -11.890000     -2.473000
C          21.073000    -16.020000     -2.414000
C          18.830000    -11.807000     -0.779000
C          18.619000    -14.084000     -0.828000
C          20.619000     -9.589000     -2.875000
C          21.742000    -10.097000     -4.993000
C          22.354000    -15.591000     -4.503000
C          20.853000    -13.144000     -0.247000
C          17.814000    -15.141000     -4.607000
C          21.684000    -14.065000     -6.753000
C          19.994000    -16.237000     -4.612000
C          22.861000    -10.607000     -4.291000
C          23.641000    -13.951000     -3.704000
O          27.999000    -30.568000     -7.445000
C          29.022000    -30.992000     -8.352000
H          29.915000    -31.334000     -7.814000
H          29.341000    -30.189000     -9.028000
H          28.615000    -31.669000     -9.113000
O          29.456000    -29.235000     -6.439000
C          28.333000    -29.620000     -6.564000
C          27.187000    -29.212000     -5.662000
H          27.645000    -28.902000     -4.715000
H          26.676000    -30.151000     -5.415000
C          26.175000    -28.224000     -6.217000
H          26.586000    -27.286000     -6.610000
H          25.636000    -28.553000     -7.114000
C          25.161000    -27.804000     -5.117000
H          24.574000    -28.669000     -4.786000
H          25.712000    -27.413000     -4.252000
C          24.130000    -26.789000     -5.571000
C          23.148000    -27.464000     -6.513000
C          21.912000    -27.958000     -6.046000
H          21.714000    -28.010000     -4.980000
C          21.161000    -28.743000     -6.976000
H          20.277000    -29.252000     -6.605000
C          21.385000    -28.683000     -8.331000
H          20.674000    -29.173000     -8.990000
C          22.513000    -27.925000     -8.768000
H          22.658000    -27.848000     -9.841000
C          23.394000    -27.327000     -7.854000
H          24.372000    -27.011000     -8.204000
C          23.194000    -21.851000     -7.556000
C          21.169000    -22.342000     -6.270000
C          22.045000    -19.415000     -2.893000
C          27.317000    -22.452000     -4.829000
C          23.431000    -21.869000     -0.786000
C          22.226000    -22.715000     -7.071000
C          26.684000    -21.791000     -2.217000
C          22.307000    -19.212000     -5.228000
C          22.097000    -24.716000     -3.196000
C          27.088000    -23.471000     -3.912000
C          23.658000    -25.680000     -4.625000
C          23.249000    -25.004000     -2.423000
C          25.836000    -24.029000     -2.083000
C          25.751000    -21.333000     -1.261000
C          21.830000    -24.360000     -5.585000
C          23.978000    -19.697000     -1.594000
C          24.522000    -25.359000     -5.845000
C          25.839000    -24.695000     -5.601000
C          22.962000    -20.607000     -1.130000
C          25.894000    -19.195000     -5.213000
C          24.193000    -18.654000     -3.762000
C          23.623000    -18.818000     -5.051000
C          22.050000    -20.047000     -6.266000
C          26.111000    -23.702000     -6.517000
C          22.337000    -25.120000     -4.541000
C          21.042000    -20.926000     -5.890000
C          26.726000    -23.134000     -2.625000
C          20.968000    -23.313000     -5.302000
C          23.543000    -24.045000     -1.415000
C          26.535000    -21.272000     -6.512000
C          21.467000    -19.532000     -4.187000
C          24.250000    -25.493000     -3.251000
C          24.411000    -20.131000     -6.927000
C          24.842000    -23.564000     -1.247000
C          21.191000    -23.661000     -2.947000
C          26.129000    -19.638000     -2.844000
C          26.954000    -20.740000     -3.101000
C          21.448000    -22.827000     -1.889000
C          26.874000    -22.584000     -6.123000
C          26.354000    -24.591000     -4.256000
C          26.749000    -20.332000     -5.445000
C          23.977000    -24.437000     -6.810000
C          20.491000    -21.625000     -3.577000
C          25.569000    -24.999000     -3.128000
C          22.673000    -22.983000     -1.163000
C          25.307000    -21.130000     -7.214000
C          21.856000    -20.418000     -1.946000
C          23.127000    -20.522000     -7.091000
C          23.365000    -19.050000     -2.705000
C          20.576000    -22.977000     -3.996000
C          21.089000    -21.559000     -2.283000
C          22.644000    -23.990000     -6.646000
C          24.943000    -23.488000     -7.256000
C          25.505000    -18.995000     -3.902000
C          20.717000    -20.601000     -4.559000
C          24.754000    -22.210000     -0.855000
C          27.253000    -21.111000     -4.447000
C          25.410000    -20.033000     -1.661000
C          24.538000    -22.237000     -7.618000
C          24.695000    -19.167000     -5.924000
$end

--------------------------------------------------------------

             Standard Nuclear Orientation (Angstroms)
    I     Atom           X                Y                Z
 ----------------------------------------------------------------
    1      O      10.9898663971     5.3710591110     0.7460280027
    2      C      11.6742798243     6.5417565953     1.3178554775
    3      H      12.7629562576     6.4211591618     1.2471739194
    4      H      11.4782781491     6.5990648910     2.3955957536
    5      H      11.3484304656     7.4458569758     0.7884853827
    6      O      12.8359227663     4.3549029481    -0.3062706879
    7      C      11.6843131894     4.4399464750    -0.0620802275
    8      C      10.6421283458     3.5316288888    -0.7306465401
    9      H       9.8655700490     4.1488597334    -1.1978288344
   10      H      10.1306348582     2.9648906130     0.0575686201
   11      C      11.0950784939     2.5255230327    -1.7612415962
   12      H      11.4417696419     3.1057684797    -2.6246015844
   13      H      11.9127592998     1.8395413620    -1.5078027536
   14      C       9.9496720847     1.7059792213    -2.3271895611
   15      H       9.0970023103     2.3855408672    -2.4423947053
   16      H      10.1443022495     1.4412937365    -3.3738039567
   17      C       9.5847400425     0.4591838163    -1.3752947019
   18      C      10.6647032794    -0.5423873706    -1.2579594365
   19      C      11.5360227535    -0.6368490223    -0.1579156326
   20      H      11.1465213828    -0.1679726103     0.7414667068
   21      C      12.7065566024    -1.4257179855    -0.1837471521
   22      H      13.3469850324    -1.4728374450     0.6922072889
   23      C      12.8536027254    -2.3611648214    -1.2331844561
   24      H      13.6493118504    -3.0972450905    -1.1718507297
   25      C      11.9925746319    -2.3317848112    -2.3511019115
   26      H      12.2888234048    -2.8241937762    -3.2734879889
   27      C      10.9055721195    -1.4138447472    -2.4027311354
   28      H      10.3431760099    -1.3031302064    -3.3251680744
   29      C       6.0958618889    -3.7365745432    -0.7091483080
   30      C       6.7610333841    -3.1206092225     1.6121176409
   31      C       2.7675980691    -1.2390525549     2.7298657750
   32      C       4.4958265255     0.3859653081    -3.0908235611
   33      C       3.8633133824     2.0357781649     2.1997594561
   34      C       7.1149247342    -3.2904165958     0.2198097122
   35      C       3.1534692845     2.1080987065    -1.3545794552
   36      C       3.2914789924    -3.2223495749     1.3786412531
   37      C       7.6475492885     0.8231101993     1.8783049309
   38      C       5.1511888818     1.4874576813    -2.6502503733
   39      C       8.5002974620     0.6698311233    -0.3447657107
   40      C       7.2074833724     1.9909001933     1.2086837548
   41      C       5.4783476442     2.8015481336    -0.7697867530
   42      C       2.8258479299     2.2704829155    -0.0150046657
   43      C       8.1693077842    -1.4582381725     1.1294099591
   44      C       2.0127154462     0.5738129916     1.5683767583
   45      C       8.2307846497    -0.1840231891    -1.5403478523
   46      C       7.2084175439     0.2350490238    -2.5315541785
   47      C       2.9291269068     1.0179513753     2.4981187284
   48      C       2.3032912223    -1.8321331251    -1.7162151497
   49      C       1.6629153277    -1.6084901675     0.5214136268
   50      C       2.3877598982    -2.7997596857     0.3497882100
   51      C       4.4741653591    -3.8669881395     1.1177886528
   52      C       6.4740781008    -0.8625246366    -2.9379328718
   53      C       8.2670710169    -0.0731941996     0.9657715054
   54      C       5.3928751460    -3.3580762409     2.0471997604
   55      C       4.5291130978     2.3477545594    -1.7171758853
   56      C       7.4280453217    -2.0007697491     2.2043571439
   57      C       6.0323333369     2.5719109183     1.5781075379
   58      C       4.2644936743    -1.8606662376    -3.0421634155
   59      C       3.4392555276    -2.4545382616     2.6071761052
   60      C       7.6263522686     1.8573565788    -0.1858283286
   61      C       3.9782685489    -3.5155075452    -1.2913663330
   62      C       5.1203572275     2.9927673336     0.5363775089
   63      C       6.8369321092     0.2915263111     2.9312504938
   64      C       1.7273821894     0.3964872059    -0.8973096570
   65      C       2.4993292502     0.9701756301    -1.9279431162
   66      C       5.6288185181     0.8537961113     3.2986293485
   67      C       5.1677584829    -0.7889766302    -3.3078325157
   68      C       6.5308494808     1.4020615358    -2.3344036859
   69      C       3.0737677127    -1.2748321877    -2.6678278035
   70      C       7.9237065757    -1.6667949515    -1.3139831972
   71      C       5.4616461533    -1.4210313309     3.5108450608
   72      C       6.6687502632     2.2009853986    -1.1555224214
   73      C       5.2106858664     2.0331708087     2.6314011952
   74      C       4.7382238056    -3.0174887854    -2.3702107715
   75      C       3.3655668464    -0.1227855569     3.2613987756
   76      C       4.8262049423    -3.9358960910    -0.2583366416
   77      C       1.8954711203    -0.8358021824     1.7098399311
   78      C       6.7442783556    -1.0841654492     3.0813453385
   79      C       4.7277065461    -0.1775058338     3.6670564266
   80      C       7.9578337594    -2.2478030017    -0.0309676163
   81      C       6.9192931148    -2.0036139052    -2.2370777710
   82      C       1.6598319962    -1.0274294553    -0.7593048988
   83      C       4.7668982360    -2.5839121307     3.0192989521
   84      C       3.8215029608     2.6141566699     0.9409730589
   85      C       3.1769727176     0.1195704423    -2.8142382958
   86      C       1.9703977160     1.1660413341     0.2852197920
   87      C       6.0631315998    -3.0989899439    -1.9683701340
   88      C       2.7231228297    -2.9773904351    -0.9860972720
   89      O     -14.4915982229     0.4024910169    -2.1444212556
   90      C     -15.3357664964     0.1257701579    -3.2668113358
   91      H     -15.9606515878    -0.7580542159    -3.0872839040
   92      H     -14.7640340229    -0.0647604082    -4.1835261672
   93      H     -15.8506537192     1.0339665815    -3.6032179410
   94      O     -13.7630440785    -1.6901366338    -2.1879226854
   95      C     -13.6913970960    -0.5873454743    -1.7365942369
   96      C     -12.8147425648    -0.2021364794    -0.5633615817
   97      H     -12.6451697582    -1.1264603053     0.0019202315
   98      H     -13.4651959269     0.3930148688     0.0897511929
   99      C     -11.5506268546     0.5862266399    -0.8613683994
  100      H     -10.8719081633     0.1431527797    -1.6004492424
  101      H     -11.7031407793     1.5592431517    -1.3444308907
  102      C     -10.7011144887     0.7648484235     0.4274368607
  103      H     -11.2486748182     1.3593913474     1.1684168855
  104      H     -10.4982680395    -0.2221165850     0.8627073400
  105      C      -9.3982729416     1.5122967457     0.2195260414
  106      C      -9.7008479964     2.9788064919    -0.0356415514
  107      C      -9.6474705331     3.9264405272     1.0078916687
  108      H      -9.5497465038     3.5975735847     2.0377268731
  109      C     -10.1397379875     5.2316210322     0.6927685137
  110      H     -10.2424029468     5.9402880693     1.5085067907
  111      C     -10.2588696429     5.6743019990    -0.6032415983
  112      H     -10.4776272622     6.7255253883    -0.7674868109
  113      C     -10.0256784701     4.7188605090    -1.6379736583
  114      H     -10.0803741537     5.0868398086    -2.6577200078
  115      C      -9.7567310192     3.3727268681    -1.3468508501
  116      H      -9.8665980757     2.6369455499    -2.1376700972
  117      C      -4.6219946020     1.6880380665    -2.3016731198
  118      C      -4.2079112143     2.8931924315    -0.2108264242
  119      C      -1.6347073681    -0.3482929811     1.6892336502
  120      C      -6.5915385209    -2.8132831232    -1.4918192450
  121      C      -4.2915931581    -1.7264854459     3.5396672289
  122      C      -5.0114295231     2.5221215318    -1.2665933089
  123      C      -5.5695816691    -3.7433447177     0.9062515679
  124      C      -1.7004396956     0.4854502106    -0.5159034320
  125      C      -6.5515688850     1.4058923327     2.6600172041
  126      C      -7.3811671214    -2.7442184793    -0.3501504015
  127      C      -8.1342725366     1.1039132557     0.9831404084
  128      C      -7.2116341494     0.1803536116     2.9244896789
  129      C      -7.2922620272    -2.4123497455     1.9095106412
  130      C      -4.7257365148    -3.5745562859     2.0259054523
  131      C      -6.2756117567     2.6525540973     0.5924030941
  132      C      -2.5569805611    -2.4683528314     2.0869425748
  133      C      -8.2518431573     0.8747693601    -0.5240447907
  134      C      -8.1340573174    -0.5311797122    -1.0183672584
  135      C      -2.9715491130    -1.5704635688     3.1345969968
  136      C      -3.0699493841    -2.4758625013    -2.0065922780
  137      C      -1.8208980277    -1.9374008004    -0.1514877781
  138      C      -1.8350187216    -0.8035850100    -1.0044704037
  139      C      -2.4366013230     1.4515538929    -1.1204096217
  140      C      -7.3849014774    -0.6279655187    -2.1709673778
  141      C      -7.1031348451     1.9753072167     1.4762171021
  142      C      -2.8314404756     2.3751262515    -0.1606194665
  143      C      -6.8478566701    -3.1648183748     0.8497069610
  144      C      -4.9608941793     2.8999774383     0.9524605645
  145      C      -6.3776286081    -0.8405322927     3.4577885890
  146      C      -5.3127230076    -1.7364676482    -2.9206342491
  147      C      -1.6028185703     0.7798294388     0.8240562636
  148      C      -8.1019862199    -0.0956538034     1.8959960730
  149      C      -3.4690626336    -0.1483262081    -2.6672468157
  150      C      -6.4261777332    -2.1384263224     2.9477885201
  151      C      -5.2146905316     1.7031919586     3.0067609143
  152      C      -3.4148799327    -3.6595667386     0.0775147718
  153      C      -4.7642176781    -3.8718129061    -0.2312200873
  154      C      -4.4781533889     0.7278718196     3.6290411275
  155      C      -6.6256183057    -1.7914677453    -2.4098829147
  156      C      -8.1502579352    -1.6277541216    -0.0790440422
  157      C      -4.4614620132    -2.7137706576    -2.2976426381
  158      C      -7.2554715966     1.4951162071    -1.3611514162
  159      C      -3.1117957185     1.9440780786     2.2637916807
  160      C      -8.1492183962    -1.3926040758     1.3350904547
  161      C      -5.0480270877    -0.5764396825     3.7904489116
  162      C      -4.7530159324    -0.4367592103    -3.0564207224
  163      C      -2.4231291449    -0.3313925664     2.8366849468
  164      C      -3.3432471105     1.1072732837    -2.1813729944
  165      C      -1.7968007562    -1.6368163837     1.2155225840
  166      C      -4.4156801101     2.4953004472     2.1817587999
  167      C      -3.1983352150     0.8154128968     3.1327115982
  168      C      -6.3184792053     2.3734901760    -0.7660897140
  169      C      -6.7845339614     0.6175982615    -2.3813734503
  170      C      -2.6506963453    -2.8429899580    -0.7418842801
  171      C      -2.3206181821     1.9068876532     1.0651962618
  172      C      -5.1210429723    -2.6749428163     3.0069265581
  173      C      -5.3082863809    -3.3607131362    -1.4483989041
  174      C      -3.4238214111    -3.5089304894     1.5091934265
  175      C      -5.5005078509     0.7330104690    -2.8263756637
  176      C      -2.6269164810    -1.1601678230    -2.1353376090
 ----------------------------------------------------------------

    9   -5804.2432591169      7.79E-06 Convergence criterion met
 Total energy in the final basis set = -5804.2432591169

                    Orbital Energies (a.u.)
 --------------------------------------------------------------

 Alpha MOs
 -- Occupied --
-19.193 -19.185 -19.148 -19.130 -10.320 -10.311 -10.246 -10.243
-10.243 -10.240 -10.234 -10.234 -10.234 -10.232 -10.231 -10.230
-10.228 -10.226 -10.225 -10.224 -10.224 -10.224 -10.223 -10.222
-10.221 -10.220 -10.220 -10.220 -10.220 -10.219 -10.219 -10.219
-10.219 -10.219 -10.219 -10.218 -10.218 -10.218 -10.218 -10.218
-10.218 -10.218 -10.218 -10.218 -10.217 -10.217 -10.217 -10.217
-10.217 -10.217 -10.216 -10.216 -10.216 -10.216 -10.215 -10.215
-10.215 -10.215 -10.215 -10.214 -10.214 -10.214 -10.214 -10.214
-10.214 -10.214 -10.214 -10.214 -10.214 -10.213 -10.213 -10.213
-10.213 -10.213 -10.213 -10.213 -10.213 -10.213 -10.212 -10.212
-10.212 -10.212 -10.212 -10.212 -10.212 -10.211 -10.211 -10.211
-10.211 -10.211 -10.211 -10.211 -10.211 -10.211 -10.211 -10.211
-10.211 -10.210 -10.210 -10.210 -10.210 -10.210 -10.209 -10.209
-10.209 -10.209 -10.209 -10.209 -10.209 -10.209 -10.209 -10.208
-10.208 -10.208 -10.207 -10.207 -10.206 -10.206 -10.206 -10.206
-10.206 -10.206 -10.205 -10.205 -10.205 -10.205 -10.205 -10.204
-10.204 -10.204 -10.204 -10.203 -10.203 -10.203 -10.203 -10.203
-10.202 -10.202 -10.202 -10.201 -10.201 -10.200 -10.200 -10.199
-10.199 -10.198 -10.197 -10.187  -1.110  -1.087  -1.019  -1.017
 -0.985  -0.981  -0.967  -0.964  -0.964  -0.963  -0.962  -0.957
 -0.935  -0.931  -0.930  -0.927  -0.927  -0.925  -0.923  -0.922
 -0.920  -0.918  -0.899  -0.894  -0.893  -0.889  -0.887  -0.883
 -0.877  -0.870  -0.855  -0.847  -0.844  -0.841  -0.838  -0.837
 -0.834  -0.830  -0.822  -0.818  -0.808  -0.806  -0.800  -0.798
 -0.796  -0.793  -0.793  -0.792  -0.791  -0.788  -0.783  -0.780
 -0.771  -0.771  -0.770  -0.769  -0.766  -0.765  -0.765  -0.757
 -0.750  -0.746  -0.745  -0.738  -0.733  -0.729  -0.718  -0.717
 -0.714  -0.713  -0.713  -0.713  -0.712  -0.709  -0.709  -0.708
 -0.707  -0.705  -0.704  -0.703  -0.702  -0.696  -0.673  -0.670
 -0.658  -0.657  -0.657  -0.656  -0.647  -0.645  -0.633  -0.630
 -0.627  -0.626  -0.625  -0.624  -0.620  -0.620  -0.618  -0.618
 -0.615  -0.613  -0.613  -0.612  -0.611  -0.610  -0.607  -0.606
 -0.604  -0.603  -0.603  -0.599  -0.571  -0.565  -0.563  -0.562
 -0.561  -0.559  -0.557  -0.557  -0.554  -0.554  -0.552  -0.548
 -0.537  -0.534  -0.531  -0.530  -0.527  -0.527  -0.526  -0.526
 -0.523  -0.522  -0.519  -0.518  -0.517  -0.516  -0.514  -0.511
 -0.509  -0.503  -0.502  -0.501  -0.493  -0.493  -0.487  -0.487
 -0.484  -0.482  -0.481  -0.479  -0.479  -0.478  -0.476  -0.474
 -0.473  -0.471  -0.470  -0.469  -0.468  -0.468  -0.467  -0.466
 -0.464  -0.464  -0.463  -0.462  -0.460  -0.459  -0.458  -0.457
 -0.455  -0.454  -0.453  -0.450  -0.447  -0.446  -0.443  -0.442
 -0.442  -0.440  -0.439  -0.437  -0.437  -0.436  -0.433  -0.431
 -0.431  -0.429  -0.427  -0.426  -0.426  -0.425  -0.425  -0.423
 -0.423  -0.422  -0.421  -0.420  -0.420  -0.419  -0.419  -0.418
 -0.418  -0.417  -0.417  -0.415  -0.414  -0.413  -0.412  -0.412
 -0.411  -0.410  -0.409  -0.409  -0.403  -0.398  -0.396  -0.396
 -0.395  -0.391  -0.391  -0.390  -0.386  -0.386  -0.384  -0.383
 -0.381  -0.380  -0.376  -0.372  -0.370  -0.369  -0.368  -0.366
 -0.364  -0.363  -0.363  -0.362  -0.360  -0.358  -0.357  -0.356
 -0.355  -0.355  -0.354  -0.353  -0.352  -0.352  -0.351  -0.349
 -0.349  -0.347  -0.347  -0.345  -0.345  -0.344  -0.344  -0.344
 -0.342  -0.341  -0.341  -0.339  -0.338  -0.337  -0.334  -0.332
 -0.331  -0.331  -0.329  -0.328  -0.327  -0.323  -0.322  -0.319
 -0.311  -0.310  -0.301  -0.300  -0.286  -0.283  -0.277  -0.272
 -0.270  -0.267  -0.267  -0.266  -0.265  -0.265  -0.264  -0.263
 -0.261  -0.261  -0.259  -0.256  -0.256  -0.254  -0.253  -0.252
 -0.250  -0.245  -0.242  -0.241  -0.220  -0.215  -0.213  -0.211
 -0.209  -0.206  -0.206  -0.201  -0.201  -0.199

          Ground-State Mulliken Net Atomic Charges

     Atom                 Charge (a.u.)
  ----------------------------------------
      1 O                    -0.497900
      2 C                    -0.093505
      3 H                     0.135587
      4 H                     0.127098
      5 H                     0.127755
      6 O                    -0.424910
      7 C                     0.593247
      8 C                    -0.257006
      9 H                     0.130253
     10 H                     0.131579
     11 C                    -0.171842
     12 H                     0.102057
     13 H                     0.125165
     14 C                    -0.195423
     15 H                     0.103097
     16 H                     0.109382
     17 C                     0.023576
     18 C                     0.079154
     19 C                    -0.113738
     20 H                     0.093553
     21 C                    -0.087158
     22 H                     0.097059
     23 C                    -0.087266
     24 H                     0.093407
     25 C                    -0.090449
     26 H                     0.095120
     27 C                    -0.106627
     28 H                     0.093182
     29 C                    -0.018920
     30 C                    -0.015860
     31 C                     0.029440
     32 C                     0.036877
     33 C                     0.025610
     34 C                    -0.010962
     35 C                    -0.003050
     36 C                     0.013466
     37 C                    -0.007949
     38 C                    -0.011056
     39 C                    -0.082448
     40 C                     0.014555
     41 C                     0.026533
     42 C                    -0.006396
     43 C                    -0.006152
     44 C                     0.013326
     45 C                    -0.118274
     46 C                     0.052526
     47 C                    -0.012263
     48 C                     0.006301
     49 C                     0.001523
     50 C                     0.006984
     51 C                    -0.023259
     52 C                     0.016573
     53 C                     0.045259
     54 C                     0.007435
     55 C                    -0.020980
     56 C                    -0.028817
     57 C                    -0.009715
     58 C                    -0.011729
     59 C                    -0.008325
     60 C                     0.008813
     61 C                     0.003641
     62 C                    -0.025048
     63 C                     0.009008
     64 C                     0.002212
     65 C                    -0.020709
     66 C                     0.011507
     67 C                    -0.019060
     68 C                    -0.009703
     69 C                     0.035266
     70 C                     0.039534
     71 C                    -0.016395
     72 C                    -0.003108
     73 C                    -0.030655
     74 C                    -0.014234
     75 C                    -0.013437
     76 C                     0.037803
     77 C                    -0.015459
     78 C                     0.013764
     79 C                    -0.017178
     80 C                     0.029050
     81 C                     0.009535
     82 C                    -0.000570
     83 C                     0.000730
     84 C                     0.017869
     85 C                    -0.008415
     86 C                    -0.013391
     87 C                    -0.015342
     88 C                    -0.031071
     89 O                    -0.446289
     90 C                    -0.088649
     91 H                     0.136172
     92 H                     0.120011
     93 H                     0.118921
     94 O                    -0.461125
     95 C                     0.572882
     96 C                    -0.242515
     97 H                     0.132915
     98 H                     0.126642
     99 C                    -0.193515
    100 H                     0.111145
    101 H                     0.117969
    102 C                    -0.174533
    103 H                     0.109990
    104 H                     0.107779
    105 C                     0.004755
    106 C                     0.074275
    107 C                    -0.102430
    108 H                     0.094727
    109 C                    -0.098404
    110 H                     0.086291
    111 C                    -0.068717
    112 H                     0.096515
    113 C                    -0.108366
    114 H                     0.088154
    115 C                    -0.086385
    116 H                     0.094985
    117 C                    -0.027799
    118 C                    -0.016656
    119 C                     0.026816
    120 C                     0.018916
    121 C                     0.024088
    122 C                     0.004085
    123 C                     0.014756
    124 C                     0.029030
    125 C                     0.006563
    126 C                    -0.013273
    127 C                    -0.104749
    128 C                    -0.007814
    129 C                    -0.018098
    130 C                    -0.011579
    131 C                     0.001622
    132 C                    -0.023402
    133 C                    -0.063058
    134 C                     0.030970
    135 C                    -0.029277
    136 C                    -0.027644
    137 C                    -0.012495
    138 C                    -0.002903
    139 C                    -0.002514
    140 C                     0.015866
    141 C                     0.029015
    142 C                    -0.033750
    143 C                     0.027363
    144 C                     0.017402
    145 C                    -0.017542
    146 C                    -0.038313
    147 C                    -0.001467
    148 C                     0.036288
    149 C                     0.008574
    150 C                    -0.000229
    151 C                     0.006352
    152 C                    -0.003226
    153 C                    -0.027162
    154 C                    -0.008017
    155 C                    -0.004379
    156 C                    -0.012464
    157 C                     0.003954
    158 C                     0.028141
    159 C                    -0.021839
    160 C                    -0.018840
    161 C                    -0.004916
    162 C                     0.006062
    163 C                     0.004077
    164 C                     0.011774
    165 C                     0.014277
    166 C                    -0.005628
    167 C                     0.004257
    168 C                     0.009087
    169 C                    -0.005019
    170 C                     0.042704
    171 C                     0.008910
    172 C                     0.025155
    173 C                     0.011091
    174 C                    -0.025859
    175 C                     0.007553
    176 C                    -0.007691
  ----------------------------------------
  Sum of atomic charges =     0.000000

                    Cartesian Multipole Moments
 -----------------------------------------------------------------
    Charge (ESU x 10^10)
                 0.0000
    Dipole Moment (Debye)
         X      -0.9563      Y       4.1062      Z      -0.7812
       Tot       4.2878
    Quadrupole Moments (Debye-Ang)
        XX    -752.4824     XY     -33.2774     YY    -795.2686
        XZ       0.3178     YZ       0.2191     ZZ    -795.9589

 Total job time:  843.28s(wall), 7183.08s(cpu)
        *  Thank you very much for using Q-Chem.  Have a nice day.  *
