 Q-Chem 4.4, Q-Chem, Inc., Pleasanton, CA (2016)
 Q-Chem 4.4.2 for Intel X86 Linux

User input:
--------------------------------------------------------------
$comment
SP
$end

$rem
MEM_STATIC 5000
MEM_TOTAL 20000
JOBTYPE SP
EXCHANGE B3LYP
BASIS 6-31g(d,p)
$end

$molecule
0 1
O          17.710000    -11.322000    -12.088000
C          18.796000    -11.588000    -13.060000
H          18.456000    -11.379000    -14.082000
H          19.081000    -12.637000    -12.912000
H          19.644000    -10.941000    -12.804000
O          18.948000    -11.860000    -10.229000
C          17.884000    -11.660000    -10.773000
C          16.603000    -11.463000    -10.012000
H          15.821000    -11.201000    -10.735000
H          16.820000    -10.676000     -9.279000
C          16.263000    -12.792000     -9.341000
H          17.172000    -13.334000     -9.051000
H          15.637000    -12.591000     -8.463000
C          15.482000    -13.655000    -10.344000
H          14.537000    -13.120000    -10.503000
H          16.022000    -13.685000    -11.298000
C          15.133000    -15.039000     -9.864000
C          13.918000    -15.096000     -8.900000
C          12.601000    -15.235000     -9.401000
H          12.361000    -15.456000    -10.437000
C          11.552000    -15.356000     -8.461000
H          10.500000    -15.417000     -8.723000
C          11.765000    -15.413000     -7.099000
H          10.870000    -15.518000     -6.492000
C          13.072000    -15.278000     -6.589000
H          13.241000    -15.297000     -5.516000
C          14.129000    -15.041000     -7.474000
H          15.163000    -15.034000     -7.141000
C          17.530000    -19.598000     -7.884000
C          15.614000    -20.376000     -9.061000
C          17.964000    -22.030000    -12.650000
C          20.351000    -16.535000    -10.879000
C          17.430000    -19.427000    -14.687000
C          16.199000    -19.463000     -8.197000
C          20.108000    -17.394000    -13.520000
C          18.476000    -22.165000    -10.324000
C          14.643000    -17.907000    -12.163000
C          19.501000    -15.859000    -11.798000
C          15.437000    -16.167000    -10.817000
C          15.437000    -17.069000    -13.020000
C          18.029000    -16.092000    -13.506000
C          19.583000    -18.343000    -14.400000
C          14.728000    -18.333000     -9.699000
C          19.250000    -20.771000    -14.020000
C          16.336000    -15.900000     -9.666000
C          17.813000    -15.692000    -10.034000
C          17.894000    -20.695000    -14.336000
C          21.164000    -19.929000    -10.470000
C          20.212000    -21.497000    -11.852000
C          19.845000    -21.825000    -10.524000
C          17.765000    -21.589000     -9.230000
C          18.639000    -16.408000     -9.124000
C          14.714000    -17.435000    -10.817000
C          16.394000    -21.465000     -9.512000
C          19.394000    -16.225000    -13.133000
C          14.727000    -19.740000     -9.987000
C          16.183000    -17.626000    -14.059000
C          20.536000    -18.012000     -9.089000
C          17.573000    -22.248000    -11.352000
C          15.998000    -16.062000    -12.201000
C          19.633000    -20.214000     -8.657000
C          17.426000    -17.137000    -14.305000
C          14.594000    -19.253000    -12.428000
C          20.954000    -19.426000    -12.861000
C          21.009000    -18.028000    -12.626000
C          15.395000    -19.770000    -13.447000
C          19.923000    -16.808000     -9.537000
C          18.225000    -15.419000    -11.354000
C          21.168000    -18.522000    -10.223000
C          16.539000    -17.030000     -8.648000
C          15.458000    -21.236000    -11.737000
C          17.296000    -15.563000    -12.438000
C          16.161000    -19.020000    -14.287000
C          19.640000    -18.859000     -8.344000
C          17.090000    -21.524000    -13.531000
C          18.317000    -20.661000     -8.361000
C          19.285000    -21.640000    -12.942000
C          14.634000    -20.200000    -11.371000
C          15.852000    -21.043000    -13.063000
C          15.658000    -18.170000     -8.608000
C          17.870000    -17.197000     -8.242000
C          21.046000    -20.362000    -11.821000
C          16.316000    -21.874000    -10.860000
C          18.167000    -18.256000    -14.666000
C          21.150000    -17.624000    -11.282000
C          20.113000    -19.609000    -13.965000
C          18.375000    -18.480000     -7.951000
C          20.417000    -20.848000     -9.684000
O          27.999000    -30.568000     -7.445000
C          29.022000    -30.992000     -8.352000
H          29.915000    -31.334000     -7.814000
H          29.341000    -30.189000     -9.028000
H          28.615000    -31.669000     -9.113000
O          29.456000    -29.235000     -6.439000
C          28.333000    -29.620000     -6.564000
C          27.187000    -29.212000     -5.662000
H          27.645000    -28.902000     -4.715000
H          26.676000    -30.151000     -5.415000
C          26.175000    -28.224000     -6.217000
H          26.586000    -27.286000     -6.610000
H          25.636000    -28.553000     -7.114000
C          25.161000    -27.804000     -5.117000
H          24.574000    -28.669000     -4.786000
H          25.712000    -27.413000     -4.252000
C          24.130000    -26.789000     -5.571000
C          23.148000    -27.464000     -6.513000
C          21.912000    -27.958000     -6.046000
H          21.714000    -28.010000     -4.980000
C          21.161000    -28.743000     -6.976000
H          20.277000    -29.252000     -6.605000
C          21.385000    -28.683000     -8.331000
H          20.674000    -29.173000     -8.990000
C          22.513000    -27.925000     -8.768000
H          22.658000    -27.848000     -9.841000
C          23.394000    -27.327000     -7.854000
H          24.372000    -27.011000     -8.204000
C          23.194000    -21.851000     -7.556000
C          21.169000    -22.342000     -6.270000
C          22.045000    -19.415000     -2.893000
C          27.317000    -22.452000     -4.829000
C          23.431000    -21.869000     -0.786000
C          22.226000    -22.715000     -7.071000
C          26.684000    -21.791000     -2.217000
C          22.307000    -19.212000     -5.228000
C          22.097000    -24.716000     -3.196000
C          27.088000    -23.471000     -3.912000
C          23.658000    -25.680000     -4.625000
C          23.249000    -25.004000     -2.423000
C          25.836000    -24.029000     -2.083000
C          25.751000    -21.333000     -1.261000
C          21.830000    -24.360000     -5.585000
C          23.978000    -19.697000     -1.594000
C          24.522000    -25.359000     -5.845000
C          25.839000    -24.695000     -5.601000
C          22.962000    -20.607000     -1.130000
C          25.894000    -19.195000     -5.213000
C          24.193000    -18.654000     -3.762000
C          23.623000    -18.818000     -5.051000
C          22.050000    -20.047000     -6.266000
C          26.111000    -23.702000     -6.517000
C          22.337000    -25.120000     -4.541000
C          21.042000    -20.926000     -5.890000
C          26.726000    -23.134000     -2.625000
C          20.968000    -23.313000     -5.302000
C          23.543000    -24.045000     -1.415000
C          26.535000    -21.272000     -6.512000
C          21.467000    -19.532000     -4.187000
C          24.250000    -25.493000     -3.251000
C          24.411000    -20.131000     -6.927000
C          24.842000    -23.564000     -1.247000
C          21.191000    -23.661000     -2.947000
C          26.129000    -19.638000     -2.844000
C          26.954000    -20.740000     -3.101000
C          21.448000    -22.827000     -1.889000
C          26.874000    -22.584000     -6.123000
C          26.354000    -24.591000     -4.256000
C          26.749000    -20.332000     -5.445000
C          23.977000    -24.437000     -6.810000
C          20.491000    -21.625000     -3.577000
C          25.569000    -24.999000     -3.128000
C          22.673000    -22.983000     -1.163000
C          25.307000    -21.130000     -7.214000
C          21.856000    -20.418000     -1.946000
C          23.127000    -20.522000     -7.091000
C          23.365000    -19.050000     -2.705000
C          20.576000    -22.977000     -3.996000
C          21.089000    -21.559000     -2.283000
C          22.644000    -23.990000     -6.646000
C          24.943000    -23.488000     -7.256000
C          25.505000    -18.995000     -3.902000
C          20.717000    -20.601000     -4.559000
C          24.754000    -22.210000     -0.855000
C          27.253000    -21.111000     -4.447000
C          25.410000    -20.033000     -1.661000
C          24.538000    -22.237000     -7.618000
C          24.695000    -19.167000     -5.924000
$end

--------------------------------------------------------------

             Standard Nuclear Orientation (Angstroms)
    I     Atom           X                Y                Z
 ----------------------------------------------------------------
    1      O      -9.6383016943     2.7914165193    -3.5976234769
    2      C      -9.2435030469     2.0038565194    -4.7887654813
    3      H     -10.0681835226     1.3559186026    -5.1110131640
    4      H      -8.3496145786     1.4406015212    -4.4934060168
    5      H      -8.9820181217     2.7084874652    -5.5877459968
    6      O      -7.6483958333     3.9257328427    -3.4199435882
    7      C      -8.7019518596     3.5529792161    -2.9518555265
    8      C      -9.2773877846     4.1195539328    -1.6842761063
    9      H     -10.2742986254     3.6839788074    -1.5452074700
   10      H      -9.2776530136     5.2073164784    -1.8275226559
   11      C      -8.3621685460     3.6934660800    -0.5384554890
   12      H      -7.3166427473     3.6351388739    -0.8665084441
   13      H      -8.4695157828     4.4136612206     0.2818837885
   14      C      -8.8000786601     2.3001048452    -0.0614668084
   15      H      -9.8025185666     2.4468481390     0.3605659388
   16      H      -8.8879335702     1.6295559631    -0.9247522255
   17      C      -7.9466862473     1.6954902498     1.0219627374
   18      C      -8.2289467782     2.2487069390     2.4443024604
   19      C      -9.2148167646     1.6563130386     3.2700995521
   20      H      -9.7188800149     0.7207438613     3.0456723827
   21      C      -9.3638072010     2.1654629064     4.5805232476
   22      H     -10.1169835334     1.8276288872     5.2859752926
   23      C      -8.5529762063     3.1532103584     5.1006867500
   24      H      -8.7707502408     3.4425760864     6.1250601904
   25      C      -7.5667620438     3.7485857448     4.2886006862
   26      H      -6.9431116036     4.5441636625     4.6865540820
   27      C      -7.4579783042     3.3582700760     2.9497718037
   28      H      -6.6496941150     3.7106438179     2.3152614290
   29      C      -2.6981022331     0.3480598088     2.0646933126
   30      C      -3.9899990044    -1.2289004887     3.2918314274
   31      C      -3.1731219818    -4.7493461916     0.4495944593
   32      C      -4.1964777640     0.4625026569    -2.8395710158
   33      C      -6.0668859503    -4.5664228005    -1.2245629787
   34      C      -3.7724846610     0.0759665833     2.8767417567
   35      C      -5.0661537175    -2.0835094414    -3.5698429725
   36      C      -1.6712622085    -3.0730083776     1.2401346259
   37      C      -7.5798034636    -1.9642781583     1.4935740412
   38      C      -5.5826859420     0.1521065846    -2.9177897190
   39      C      -7.5102480861     0.2691039589     0.8029812757
   40      C      -7.9933438532    -1.9585183000     0.1165917718
   41      C      -7.1770495481    -1.4088061152    -2.5179231971
   42      C      -5.2310512203    -3.4183018132    -3.1933271857
   43      C      -6.1053861407    -0.4226094155     2.8009944194
   44      C      -3.7741488570    -4.7923349871    -1.7304733512
   45      C      -6.5622630611     1.3852620362     0.5584275210
   46      C      -5.9260414379     1.3984330471    -0.8398805891
   47      C      -4.8296099303    -5.1085108640    -0.8758373248
   48      C      -1.4064073063    -1.4221837750    -1.8341109746
   49      C      -1.6986336244    -3.5828471774    -1.1123149918
   50      C      -1.1054860766    -2.8584002543    -0.0496722286
   51      C      -1.9609431832    -1.9514103598     2.0721417288
   52      C      -4.5347551214     1.6731076722    -0.7307557260
   53      C      -7.1910739365    -0.6490599282     1.8918595694
   54      C      -3.0393682188    -2.2119271248     2.9345056067
   55      C      -6.0540991589    -1.0877580284    -3.3278327905
   56      C      -5.3784347133    -1.5748253494     3.2554546088
   57      C      -7.6672408559    -3.0233981944    -0.7236306069
   58      C      -2.3310079850     0.8149066555    -1.4920963684
   59      C      -2.6767879191    -3.9759373208     1.4697416138
   60      C      -7.8698850708    -0.6264407375    -0.3415111602
   61      C      -1.3498542411    -0.4260790486     0.3376929127
   62      C      -7.2944323629    -2.7556513163    -2.0019151749
   63      C      -6.9098989013    -3.0635245351     1.9702576686
   64      C      -2.9730087907    -2.8709089533    -3.0428066133
   65      C      -3.6851182441    -1.7584749519    -3.5605369668
   66      C      -6.5640342348    -4.0815088768     1.0806866975
   67      C      -3.6691771849     1.2279896708    -1.7465656495
   68      C      -6.4531417890     0.6475973705    -1.9099665701
   69      C      -2.1507440299    -0.2999189671    -2.3107224966
   70      C      -5.2614154165     1.4016504694     1.3720366562
   71      C      -4.8203386596    -3.7928161975     2.4783301707
   72      C      -7.4640873865    -0.3399485667    -1.6618234246
   73      C      -6.9333583420    -4.1247403212    -0.2294990702
   74      C      -2.0293408017     0.7104447170    -0.0873420788
   75      C      -4.4523970580    -5.1476092016     0.4798410179
   76      C      -1.7712114116    -0.6360933952     1.6784513208
   77      C      -2.7117466198    -4.5739543335    -0.8690318985
   78      C      -5.8063579499    -2.9122343779     2.8505795738
   79      C      -5.3126068294    -4.6032816053     1.4528649729
   80      C      -5.1021679411     0.5828882889     2.5474641245
   81      C      -4.1236520920     1.7209822592     0.6185064143
   82      C      -1.8512267524    -2.7196828238    -2.2152223479
   83      C      -3.4721242334    -3.4872377173     2.5140604563
   84      C      -6.3077985467    -3.6961653538    -2.2731163142
   85      C      -3.2112128248    -0.4832377909    -3.1882241455
   86      C      -3.9136172619    -3.8905716693    -2.8553775617
   87      C      -2.8793933064     1.1286582680     0.9130694191
   88      C      -0.9467675884    -1.5297799561    -0.4933946021
   89      O      10.8786068672    -5.6212089596    -1.1250374559
   90      C      11.3609400284    -6.4725514053    -2.1697980800
   91      H      12.3903042341    -6.2159312385    -2.4498202614
   92      H      10.7527033816    -6.4035077536    -3.0801975284
   93      H      11.1600303811    -7.5262570579    -1.9408030772
   94      O      11.4584447098    -3.8450439731    -2.3170106171
   95      C      10.9234271682    -4.3051941638    -1.3542037661
   96      C      10.3705312187    -3.4803631969    -0.2108123436
   97      H      10.9164192614    -2.5295030465    -0.2341408460
   98      H      10.7385748697    -3.9756676685     0.6964188019
   99      C       8.8614156380    -3.3298435730    -0.1201094932
  100      H       8.3618649477    -2.9527841246    -1.0209364911
  101      H       8.2993224137    -4.2644987908    -0.0024581821
  102      C       8.4780416730    -2.3379014116     1.0128826301
  103      H       8.7919995350    -2.7293155284     1.9878597837
  104      H       8.9946610695    -1.3842635837     0.8444003098
  105      C       6.9878264228    -2.0967137200     1.1556727054
  106      C       6.3357870449    -3.3393536118     1.7370536037
  107      C       6.0744549919    -3.4467093722     3.1190815697
  108      H       6.4822481273    -2.7145490662     3.8089439076
  109      C       5.6420717254    -4.7311641340     3.5755316498
  110      H       5.5680695251    -4.8846254869     4.6475163920
  111      C       5.1099050591    -5.6686216920     2.7224355436
  112      H       4.6494297467    -6.5521905013     3.1550677730
  113      C       5.1548991010    -5.3734815904     1.3264466982
  114      H       4.6948568525    -6.0993399987     0.6632923416
  115      C       5.7769294267    -4.2128883591     0.8414079105
  116      H       6.0388290939    -4.1635517566    -0.2111197442
  117      C       2.4311929370    -0.3556926309    -1.1694298392
  118      C       2.0528141465     0.0653037444     1.2128156441
  119      C       2.4017418770     4.5978432836     0.9423183890
  120      C       6.6981953895     1.6615899857    -2.7569183951
  121      C       5.7775055190     4.6501429309     1.9343091048
  122      C       2.5752985293    -0.6704238937     0.1718094424
  123      C       7.1199929190     3.9675338279    -1.2855707677
  124      C       1.3449236351     3.0366555670    -0.4746876508
  125      C       5.5438945669     0.8392263693     2.9904368830
  126      C       7.6093991007     1.6349684082    -1.7077806118
  127      C       6.4531790222    -0.7047584001     1.5080837499
  128      C       6.8149864857     1.3308352728     2.6028507379
  129      C       8.0179255394     2.4880879956     0.3729409261
  130      C       6.6969471842     4.8866128503    -0.3004235418
  131      C       4.0322479444    -0.7118203019     1.8883821147
  132      C       4.4120369429     5.5585755603     0.2080696297
  133      C       6.2304062208    -1.3051618511     0.1196223802
  134      C       6.7733283992    -0.5517505507    -1.0519269873
  135      C       4.5440313653     5.1928947205     1.5953356445
  136      C       3.6169697688     3.4130323724    -3.2248203507
  137      C       2.8887004776     4.6769365475    -1.4461542562
  138      C       2.0213134821     3.5602233877    -1.5640886386
  139      C       1.2057722291     1.6878802792    -0.4282106747
  140      C       5.9058210195    -0.5375119021    -2.1225890288
  141      C       5.3112064773    -0.3991522599     2.3255191259
  142      C       1.2824262164     1.2787711371     0.8972458037
  143      C       7.7785091895     2.7737744632    -0.9491604519
  144      C       2.9763286019     0.1111259325     2.2449432417
  145      C       6.8874320173     2.7439416036     2.4612063134
  146      C       4.6865400845     1.1308648413    -3.4696502908
  147      C       1.4980973375     3.5080404535     0.8082835514
  148      C       7.3604012428     0.4921934947     1.6406092346
  149      C       2.4440362438     1.3771170204    -2.5230678122
  150      C       7.4954367766     3.3172942689     1.3438062356
  151      C       4.4391612397     1.6380904788     3.3608993108
  152      C       5.1522752950     4.8880646513    -2.0712382263
  153      C       6.2306930982     4.0439173191    -2.3636562889
  154      C       4.5883350115     3.0009526396     3.3245273924
  155      C       5.8893894739     0.5750910834    -2.9881371794
  156      C       7.6689760358     0.5607781830    -0.8394155107
  157      C       4.7476488135     2.5669144030    -3.5133810541
  158      C       4.8651344983    -1.4551086298    -0.3184222378
  159      C       2.4498208961     2.4639626474     2.7342764908
  160      C       7.9519484921     1.0430035217     0.4806065769
  161      C       5.8026527692     3.5532461957     2.8025683796
  162      C       3.4901978222     0.5866311607    -2.9278690690
  163      C       3.3426184221     4.6079863120     1.9685676014
  164      C       1.7922212064     0.8683009710    -1.4531723104
  165      C       3.1036330817     5.1105535778    -0.1325983012
  166      C       3.1359600754     1.2603207888     3.0361859193
  167      C       3.3974366146     3.5216792484     2.8744764982
  168      C       3.8225014201    -1.1671335774     0.5945841333
  169      C       4.6859673972    -1.0550367235    -1.6750779125
  170      C       3.8642809509     4.4753858431    -2.3761247147
  171      C       1.5030679669     2.4456745720     1.6538597022
  172      C       6.7934656306     4.5020569106     1.0302811282
  173      C       6.0147185878     2.8326616338    -3.0882062705
  174      C       5.4950151476     5.4260600935    -0.7806704065
  175      C       3.4913712225    -0.5265950195    -2.0671995071
  176      C       2.5047189522     2.7888870892    -2.6615737027
 ----------------------------------------------------------------

    9   -5804.2455473999      7.97E-06 Convergence criterion met
 Total energy in the final basis set = -5804.2455473999

                    Orbital Energies (a.u.)
 --------------------------------------------------------------

 Alpha MOs
 -- Occupied --
-19.193 -19.187 -19.132 -19.130 -10.311 -10.309 -10.247 -10.243
-10.241 -10.240 -10.235 -10.234 -10.234 -10.234 -10.232 -10.230
-10.230 -10.228 -10.228 -10.226 -10.225 -10.225 -10.224 -10.223
-10.223 -10.222 -10.222 -10.222 -10.222 -10.221 -10.221 -10.220
-10.220 -10.220 -10.219 -10.219 -10.219 -10.219 -10.219 -10.219
-10.218 -10.218 -10.218 -10.218 -10.218 -10.218 -10.218 -10.218
-10.217 -10.217 -10.217 -10.216 -10.216 -10.216 -10.216 -10.215
-10.215 -10.215 -10.215 -10.214 -10.214 -10.214 -10.214 -10.214
-10.214 -10.214 -10.214 -10.213 -10.213 -10.213 -10.213 -10.213
-10.213 -10.213 -10.213 -10.212 -10.212 -10.212 -10.212 -10.212
-10.212 -10.212 -10.212 -10.212 -10.212 -10.211 -10.211 -10.211
-10.211 -10.211 -10.211 -10.211 -10.211 -10.211 -10.211 -10.211
-10.211 -10.211 -10.211 -10.210 -10.210 -10.210 -10.210 -10.209
-10.209 -10.209 -10.209 -10.209 -10.209 -10.208 -10.208 -10.208
-10.208 -10.208 -10.207 -10.207 -10.206 -10.206 -10.206 -10.206
-10.206 -10.206 -10.206 -10.205 -10.205 -10.205 -10.205 -10.204
-10.204 -10.204 -10.204 -10.204 -10.203 -10.203 -10.203 -10.202
-10.202 -10.202 -10.201 -10.199 -10.199 -10.199 -10.198 -10.197
-10.197 -10.196 -10.196 -10.191  -1.109  -1.083  -1.017  -1.006
 -0.985  -0.982  -0.967  -0.965  -0.964  -0.964  -0.963  -0.956
 -0.937  -0.935  -0.930  -0.927  -0.927  -0.925  -0.923  -0.922
 -0.920  -0.915  -0.899  -0.894  -0.893  -0.889  -0.888  -0.883
 -0.877  -0.872  -0.855  -0.854  -0.841  -0.839  -0.838  -0.837
 -0.834  -0.834  -0.822  -0.820  -0.808  -0.807  -0.800  -0.796
 -0.794  -0.793  -0.793  -0.792  -0.792  -0.789  -0.784  -0.783
 -0.771  -0.770  -0.770  -0.766  -0.766  -0.765  -0.763  -0.762
 -0.751  -0.750  -0.745  -0.741  -0.733  -0.730  -0.718  -0.714
 -0.713  -0.712  -0.712  -0.711  -0.710  -0.709  -0.709  -0.709
 -0.708  -0.708  -0.705  -0.704  -0.702  -0.701  -0.673  -0.670
 -0.658  -0.657  -0.656  -0.655  -0.647  -0.643  -0.633  -0.629
 -0.627  -0.626  -0.625  -0.624  -0.622  -0.621  -0.620  -0.615
 -0.615  -0.614  -0.613  -0.613  -0.611  -0.609  -0.607  -0.606
 -0.604  -0.604  -0.603  -0.599  -0.570  -0.565  -0.563  -0.562
 -0.561  -0.559  -0.557  -0.557  -0.555  -0.554  -0.552  -0.551
 -0.537  -0.534  -0.530  -0.530  -0.528  -0.527  -0.526  -0.524
 -0.523  -0.522  -0.518  -0.517  -0.517  -0.516  -0.513  -0.513
 -0.509  -0.507  -0.503  -0.502  -0.493  -0.490  -0.486  -0.485
 -0.485  -0.483  -0.480  -0.479  -0.478  -0.476  -0.475  -0.474
 -0.474  -0.472  -0.471  -0.468  -0.468  -0.468  -0.466  -0.466
 -0.465  -0.463  -0.462  -0.462  -0.461  -0.460  -0.459  -0.458
 -0.455  -0.454  -0.452  -0.451  -0.447  -0.445  -0.443  -0.442
 -0.442  -0.440  -0.440  -0.439  -0.437  -0.436  -0.434  -0.433
 -0.431  -0.431  -0.427  -0.427  -0.426  -0.426  -0.425  -0.423
 -0.422  -0.421  -0.420  -0.420  -0.419  -0.419  -0.419  -0.418
 -0.417  -0.416  -0.415  -0.415  -0.413  -0.413  -0.412  -0.411
 -0.411  -0.409  -0.409  -0.406  -0.400  -0.398  -0.398  -0.395
 -0.393  -0.391  -0.391  -0.391  -0.387  -0.386  -0.386  -0.384
 -0.383  -0.376  -0.373  -0.371  -0.369  -0.368  -0.366  -0.365
 -0.364  -0.363  -0.363  -0.362  -0.362  -0.360  -0.358  -0.356
 -0.356  -0.356  -0.355  -0.354  -0.353  -0.353  -0.352  -0.352
 -0.350  -0.349  -0.348  -0.347  -0.346  -0.345  -0.344  -0.343
 -0.341  -0.340  -0.339  -0.339  -0.337  -0.336  -0.334  -0.332
 -0.332  -0.331  -0.330  -0.328  -0.327  -0.326  -0.324  -0.322
 -0.310  -0.309  -0.301  -0.295  -0.285  -0.283  -0.270  -0.269
 -0.268  -0.267  -0.267  -0.266  -0.266  -0.265  -0.264  -0.263
 -0.262  -0.261  -0.260  -0.257  -0.257  -0.255  -0.255  -0.253
 -0.251  -0.250  -0.243  -0.242  -0.220  -0.218  -0.212  -0.210
 -0.207  -0.207  -0.205  -0.201  -0.200  -0.199

          Ground-State Mulliken Net Atomic Charges

     Atom                 Charge (a.u.)
  ----------------------------------------
      1 O                    -0.481946
      2 C                    -0.091414
      3 H                     0.129566
      4 H                     0.134283
      5 H                     0.136267
      6 O                    -0.469317
      7 C                     0.599560
      8 C                    -0.243617
      9 H                     0.122013
     10 H                     0.134563
     11 C                    -0.192958
     12 H                     0.130529
     13 H                     0.102723
     14 C                    -0.197399
     15 H                     0.108037
     16 H                     0.114194
     17 C                     0.029998
     18 C                     0.064051
     19 C                    -0.108462
     20 H                     0.099673
     21 C                    -0.088171
     22 H                     0.087620
     23 C                    -0.070333
     24 H                     0.091156
     25 C                    -0.094001
     26 H                     0.095648
     27 C                    -0.101005
     28 H                     0.097934
     29 C                     0.014687
     30 C                     0.022318
     31 C                     0.035585
     32 C                     0.000093
     33 C                     0.022855
     34 C                    -0.007329
     35 C                     0.021475
     36 C                     0.005216
     37 C                    -0.015491
     38 C                     0.008402
     39 C                    -0.101994
     40 C                    -0.000092
     41 C                    -0.035355
     42 C                    -0.044821
     43 C                    -0.009932
     44 C                    -0.015987
     45 C                    -0.063072
     46 C                     0.037762
     47 C                    -0.006395
     48 C                    -0.013945
     49 C                    -0.005911
     50 C                    -0.024065
     51 C                    -0.004053
     52 C                     0.016614
     53 C                     0.059451
     54 C                    -0.011264
     55 C                    -0.009355
     56 C                    -0.015763
     57 C                    -0.014786
     58 C                    -0.052664
     59 C                     0.017515
     60 C                     0.051197
     61 C                     0.000742
     62 C                     0.022811
     63 C                    -0.007170
     64 C                     0.028825
     65 C                    -0.009775
     66 C                     0.023735
     67 C                    -0.005576
     68 C                    -0.019232
     69 C                     0.045943
     70 C                     0.024286
     71 C                     0.015637
     72 C                    -0.017112
     73 C                    -0.013643
     74 C                     0.025544
     75 C                    -0.022086
     76 C                    -0.026098
     77 C                     0.006725
     78 C                    -0.019710
     79 C                    -0.007556
     80 C                    -0.024745
     81 C                    -0.018186
     82 C                    -0.000969
     83 C                    -0.004958
     84 C                     0.001776
     85 C                    -0.010571
     86 C                    -0.016565
     87 C                     0.017494
     88 C                     0.006297
     89 O                    -0.446177
     90 C                    -0.088807
     91 H                     0.136138
     92 H                     0.120178
     93 H                     0.119007
     94 O                    -0.460950
     95 C                     0.572682
     96 C                    -0.243072
     97 H                     0.132896
     98 H                     0.126781
     99 C                    -0.193038
    100 H                     0.111058
    101 H                     0.118080
    102 C                    -0.173868
    103 H                     0.109903
    104 H                     0.107533
    105 C                     0.004241
    106 C                     0.073338
    107 C                    -0.101808
    108 H                     0.094443
    109 C                    -0.098783
    110 H                     0.086236
    111 C                    -0.068506
    112 H                     0.096779
    113 C                    -0.108206
    114 H                     0.088731
    115 C                    -0.085985
    116 H                     0.095013
    117 C                    -0.025083
    118 C                    -0.012081
    119 C                     0.020126
    120 C                     0.018642
    121 C                     0.023743
    122 C                     0.008558
    123 C                     0.015622
    124 C                     0.014819
    125 C                     0.006015
    126 C                    -0.013506
    127 C                    -0.105229
    128 C                    -0.007008
    129 C                    -0.017816
    130 C                    -0.011915
    131 C                     0.002288
    132 C                    -0.020818
    133 C                    -0.062743
    134 C                     0.032246
    135 C                    -0.029651
    136 C                    -0.027431
    137 C                    -0.015456
    138 C                    -0.006020
    139 C                     0.013013
    140 C                     0.016093
    141 C                     0.029336
    142 C                    -0.028362
    143 C                     0.027006
    144 C                     0.015350
    145 C                    -0.017203
    146 C                    -0.037408
    147 C                    -0.008076
    148 C                     0.036399
    149 C                     0.007273
    150 C                     0.000319
    151 C                     0.006798
    152 C                    -0.002595
    153 C                    -0.027724
    154 C                    -0.007490
    155 C                    -0.004107
    156 C                    -0.012556
    157 C                     0.005028
    158 C                     0.028276
    159 C                    -0.022436
    160 C                    -0.019338
    161 C                    -0.006138
    162 C                     0.006216
    163 C                     0.009097
    164 C                     0.015127
    165 C                     0.011184
    166 C                    -0.005593
    167 C                     0.003914
    168 C                     0.006992
    169 C                    -0.004957
    170 C                     0.046004
    171 C                     0.003752
    172 C                     0.024770
    173 C                     0.010715
    174 C                    -0.026542
    175 C                     0.004431
    176 C                    -0.003663
  ----------------------------------------
  Sum of atomic charges =     0.000000

                    Cartesian Multipole Moments
 -----------------------------------------------------------------
    Charge (ESU x 10^10)
                 0.0000
    Dipole Moment (Debye)
         X      -2.3812      Y      -3.0190      Z       3.4795
       Tot       5.1857
    Quadrupole Moments (Debye-Ang)
        XX    -774.1518     XY     -29.1047     YY    -791.4982
        XZ       7.5093     YZ       9.9388     ZZ    -798.9632

 Total job time:  861.94s(wall), 7294.91s(cpu)
        *  Thank you very much for using Q-Chem.  Have a nice day.  *
