 Q-Chem 4.4, Q-Chem, Inc., Pleasanton, CA (2016)
 Q-Chem 4.4.2 for Intel X86 Linux

User input:
--------------------------------------------------------------
$comment
SP
$end

$rem
MEM_STATIC 5000
MEM_TOTAL 20000
JOBTYPE SP
EXCHANGE B3LYP
BASIS 6-31g(d,p)
$end

$molecule
0 1
O          11.716000    -20.367000    -12.496000
C          11.272000    -19.219000    -13.282000
H          10.177000    -19.154000    -13.310000
H          11.621000    -19.243000    -14.322000
H          11.596000    -18.285000    -12.808000
O          10.053000    -21.683000    -13.276000
C          10.999000    -21.514000    -12.637000
C          11.672000    -22.606000    -11.858000
H          12.700000    -22.646000    -12.239000
H          11.149000    -23.549000    -12.063000
C          11.551000    -22.377000    -10.389000
H          11.653000    -21.323000    -10.105000
H          10.500000    -22.570000    -10.143000
C          12.612000    -23.192000     -9.637000
H          12.472000    -24.243000     -9.919000
H          13.592000    -22.830000     -9.970000
C          12.570000    -22.954000     -8.073000
C          11.794000    -21.758000     -7.607000
C          10.386000    -21.808000     -7.483000
H           9.898000    -22.773000     -7.382000
C           9.680000    -20.672000     -7.152000
H           8.608000    -20.746000     -6.994000
C          10.387000    -19.508000     -6.842000
H           9.760000    -18.637000     -6.675000
C          11.769000    -19.413000     -7.103000
H          12.263000    -18.460000     -6.938000
C          12.452000    -20.520000     -7.501000
H          13.518000    -20.452000     -7.701000
C          15.521000    -22.843000     -3.376000
C          13.502000    -23.775000     -2.684000
C          14.951000    -27.907000     -1.961000
C          17.366000    -25.551000     -7.191000
C          13.678000    -29.175000     -4.929000
C          14.138000    -22.891000     -3.460000
C          16.512000    -28.133000     -6.881000
C          15.975000    -25.741000     -1.406000
C          11.625000    -25.713000     -5.524000
C          16.277000    -25.976000     -7.938000
C          12.591000    -24.174000     -7.126000
C          12.129000    -26.501000     -6.594000
C          14.477000    -27.397000     -7.827000
C          15.810000    -28.974000     -6.043000
C          12.429000    -23.647000     -4.640000
C          15.720000    -29.125000     -3.658000
C          13.814000    -23.289000     -7.207000
C          15.081000    -23.922000     -7.680000
C          14.302000    -29.157000     -3.694000
C          18.482000    -26.080000     -3.952000
C          17.271000    -27.440000     -2.635000
C          17.210000    -26.153000     -2.027000
C          15.517000    -24.461000     -1.622000
C          16.167000    -23.441000     -6.855000
C          11.924000    -24.349000     -5.786000
C          14.107000    -24.558000     -1.744000
C          15.845000    -27.328000     -7.735000
C          12.389000    -24.206000     -3.408000
C          12.554000    -27.843000     -6.398000
C          18.022000    -24.241000     -5.424000
C          14.873000    -26.657000     -1.374000
C          12.810000    -25.605000     -7.474000
C          17.377000    -24.097000     -3.094000
C          13.721000    -28.289000     -7.010000
C          11.588000    -26.317000     -4.267000
C          17.588000    -28.194000     -4.891000
C          17.676000    -27.660000     -6.206000
C          11.924000    -27.696000     -4.025000
C          17.344000    -24.219000     -6.657000
C          15.138000    -25.221000     -8.189000
C          18.512000    -25.559000     -5.255000
C          14.236000    -22.598000     -5.889000
C          12.630000    -26.379000     -2.193000
C          13.961000    -26.099000     -8.058000
C          12.515000    -28.397000     -5.107000
C          17.410000    -23.538000     -4.380000
C          13.841000    -28.380000     -2.626000
C          16.223000    -23.638000     -2.434000
C          16.143000    -28.309000     -2.562000
C          11.975000    -25.570000     -3.176000
C          12.645000    -27.677000     -2.757000
C          13.541000    -22.751000     -4.689000
C          15.633000    -22.670000     -5.787000
C          18.045000    -27.412000     -3.791000
C          13.713000    -25.878000     -1.456000
C          14.422000    -29.092000     -6.142000
C          18.070000    -26.352000     -6.352000
C          16.490000    -29.036000     -4.826000
C          16.265000    -22.805000     -4.565000
C          17.942000    -25.358000     -2.893000
O          27.999000    -30.568000     -7.445000
C          29.022000    -30.992000     -8.352000
H          29.915000    -31.334000     -7.814000
H          29.341000    -30.189000     -9.028000
H          28.615000    -31.669000     -9.113000
O          29.456000    -29.235000     -6.439000
C          28.333000    -29.620000     -6.564000
C          27.187000    -29.212000     -5.662000
H          27.645000    -28.902000     -4.715000
H          26.676000    -30.151000     -5.415000
C          26.175000    -28.224000     -6.217000
H          26.586000    -27.286000     -6.610000
H          25.636000    -28.553000     -7.114000
C          25.161000    -27.804000     -5.117000
H          24.574000    -28.669000     -4.786000
H          25.712000    -27.413000     -4.252000
C          24.130000    -26.789000     -5.571000
C          23.148000    -27.464000     -6.513000
C          21.912000    -27.958000     -6.046000
H          21.714000    -28.010000     -4.980000
C          21.161000    -28.743000     -6.976000
H          20.277000    -29.252000     -6.605000
C          21.385000    -28.683000     -8.331000
H          20.674000    -29.173000     -8.990000
C          22.513000    -27.925000     -8.768000
H          22.658000    -27.848000     -9.841000
C          23.394000    -27.327000     -7.854000
H          24.372000    -27.011000     -8.204000
C          23.194000    -21.851000     -7.556000
C          21.169000    -22.342000     -6.270000
C          22.045000    -19.415000     -2.893000
C          27.317000    -22.452000     -4.829000
C          23.431000    -21.869000     -0.786000
C          22.226000    -22.715000     -7.071000
C          26.684000    -21.791000     -2.217000
C          22.307000    -19.212000     -5.228000
C          22.097000    -24.716000     -3.196000
C          27.088000    -23.471000     -3.912000
C          23.658000    -25.680000     -4.625000
C          23.249000    -25.004000     -2.423000
C          25.836000    -24.029000     -2.083000
C          25.751000    -21.333000     -1.261000
C          21.830000    -24.360000     -5.585000
C          23.978000    -19.697000     -1.594000
C          24.522000    -25.359000     -5.845000
C          25.839000    -24.695000     -5.601000
C          22.962000    -20.607000     -1.130000
C          25.894000    -19.195000     -5.213000
C          24.193000    -18.654000     -3.762000
C          23.623000    -18.818000     -5.051000
C          22.050000    -20.047000     -6.266000
C          26.111000    -23.702000     -6.517000
C          22.337000    -25.120000     -4.541000
C          21.042000    -20.926000     -5.890000
C          26.726000    -23.134000     -2.625000
C          20.968000    -23.313000     -5.302000
C          23.543000    -24.045000     -1.415000
C          26.535000    -21.272000     -6.512000
C          21.467000    -19.532000     -4.187000
C          24.250000    -25.493000     -3.251000
C          24.411000    -20.131000     -6.927000
C          24.842000    -23.564000     -1.247000
C          21.191000    -23.661000     -2.947000
C          26.129000    -19.638000     -2.844000
C          26.954000    -20.740000     -3.101000
C          21.448000    -22.827000     -1.889000
C          26.874000    -22.584000     -6.123000
C          26.354000    -24.591000     -4.256000
C          26.749000    -20.332000     -5.445000
C          23.977000    -24.437000     -6.810000
C          20.491000    -21.625000     -3.577000
C          25.569000    -24.999000     -3.128000
C          22.673000    -22.983000     -1.163000
C          25.307000    -21.130000     -7.214000
C          21.856000    -20.418000     -1.946000
C          23.127000    -20.522000     -7.091000
C          23.365000    -19.050000     -2.705000
C          20.576000    -22.977000     -3.996000
C          21.089000    -21.559000     -2.283000
C          22.644000    -23.990000     -6.646000
C          24.943000    -23.488000     -7.256000
C          25.505000    -18.995000     -3.902000
C          20.717000    -20.601000     -4.559000
C          24.754000    -22.210000     -0.855000
C          27.253000    -21.111000     -4.447000
C          25.410000    -20.033000     -1.661000
C          24.538000    -22.237000     -7.618000
C          24.695000    -19.167000     -5.924000
$end

--------------------------------------------------------------

             Standard Nuclear Orientation (Angstroms)
    I     Atom           X                Y                Z
 ----------------------------------------------------------------
    1      O       8.4172054955     4.5811591407     5.5117525383
    2      C       8.9385370777     5.7977393037     6.1289900036
    3      H      10.0196399595     5.8949968887     5.9683926158
    4      H       8.7672682796     5.8436484526     7.2118271792
    5      H       8.5035851761     6.6834396334     5.6511199698
    6      O      10.2375121298     3.3752055185     6.0931169835
    7      C       9.1929995953     3.4685960051     5.6113807669
    8      C       8.4449094830     2.3020220209     5.0354464624
    9      H       7.4963546321     2.2628014707     5.5852195458
   10      H       9.0319191519     1.3923016801     5.2160885123
   11      C       8.3124569913     2.4213257479     3.5544785498
   12      H       8.1228398665     3.4473019391     3.2177379954
   13      H       9.3152968955     2.2392741643     3.1500835110
   14      C       7.1753702071     1.5221506394     3.0505263997
   15      H       7.4019846420     0.5000642703     3.3787189528
   16      H       6.2500928611     1.8812597383     3.5166116795
   17      C       6.9490217032     1.6409744280     1.4887481626
   18      C       7.5889081872     2.8188898521     0.8158376622
   19      C       8.9579730572     2.7985797035     0.4614524488
   20      H       9.4608540197     1.8425721144     0.3486241400
   21      C       9.5535676632     3.9250740668    -0.0627331240
   22      H      10.5868645232     3.8689369274    -0.3925364301
   23      C       8.7590465741     5.0419396185    -0.3314198901
   24      H       9.3144781848     5.9146590510    -0.6623511789
   25      C       7.4364192939     5.1182932508     0.1501371684
   26      H       6.8841913220     6.0418413990     0.0032593791
   27      C       6.8733901588     4.0264614592     0.7342977046
   28      H       5.8531803089     4.0799951358     1.1048189692
   29      C       3.2610271319     1.3108243108    -2.6431071038
   30      C       5.1737623058     0.3849416507    -3.5960155226
   31      C       3.7919505903    -3.8287831743    -3.7717240368
   32      C       2.1811331544    -1.1477010349     1.6090683538
   33      C       5.5872279046    -4.8304489617    -0.9769034674
   34      C       4.6397147053     1.3077144789    -2.7889148672
   35      C       3.0749512740    -3.7211926563     1.3437948285
   36      C       2.6044587909    -1.7407438177    -4.2990871675
   37      C       7.5699620341    -1.2775589417    -0.9808880607
   38      C       3.3946501154    -1.4840272763     2.1911475962
   39      C       6.8208451843     0.3520433125     0.6473936835
   40      C       7.2814976436    -1.9951208905     0.2114848445
   41      C       5.2070725130    -2.8589460416     1.8808486412
   42      C       3.6620815675    -4.6040188470     0.4616242466
   43      C       6.5489617515     0.6917570101    -1.8615588873
   44      C       3.3630733729    -4.9343345715    -1.8879739364
   45      C       5.5935500396     1.2064268119     0.8694082410
   46      C       4.4484077330     0.5765814284     1.5916622757
   47      C       4.7676869128    -4.9241969492    -2.0879790173
   48      C       0.5678042368    -1.9534521068    -1.3513966459
   49      C       1.5982424324    -3.3760749357    -2.7531638918
   50      C       1.5064339968    -2.1381213523    -3.4523034605
   51      C       3.0401970019    -0.4357834862    -4.2540233827
   52      C       3.2227270557     0.9628430777     0.9284196237
   53      C       7.2639337214     0.0936699527    -0.7696559823
   54      C       4.4537281373    -0.4840784625    -4.3635237238
   55      C       3.8410050985    -2.8351017382     2.0147899275
   56      C       6.4073735694     0.0415419811    -3.0401505057
   57      C       6.8840647576    -3.3594330374     0.1849430487
   58      C       1.1904823763     0.0047212438    -0.1111813163
   59      C       3.7218438792    -2.6256309473    -4.4504454581
   60      C       6.7197932452    -1.0536845999     1.1275431830
   61      C       1.4356721725    -0.0119929527    -2.5205927796
   62      C       5.8529274222    -3.7895023068     1.0138852778
   63      C       7.4230923984    -1.9746190862    -2.1803756451
   64      C       1.6884988768    -3.9639118831    -0.4283321780
   65      C       1.7974887765    -3.3335992337     0.8416883595
   66      C       7.1072534221    -3.3768595868    -2.2644489443
   67      C       2.0613062400     0.1396797730     0.9860465514
   68      C       4.5282943917    -0.6807891550     2.1936326551
   69      C       0.7324906101    -1.3354070442    -0.1019773011
   70      C       4.9324161183     1.7827018293    -0.4047573850
   71      C       6.0563180016    -2.2238141082    -4.0407287270
   72      C       5.7017231519    -1.5332920553     1.9296672220
   73      C       6.7315503513    -4.0092022636    -1.0518501064
   74      C       1.5930736461     0.6425437269    -1.2900756074
   75      C       5.0145470751    -4.2186368416    -3.2703998370
   76      C       2.4455533331     0.4270040604    -3.3954748654
   77      C       2.7325983947    -4.2165314718    -2.9525212637
   78      C       6.8316830920    -1.3242081204    -3.2411581901
   79      C       6.1866342497    -3.4748203810    -3.3917865256
   80      C       5.4253296160     1.5577328193    -1.6903931143
   81      C       3.5417664246     1.6644452137    -0.2658120640
   82      C       1.0252194521    -3.2812438097    -1.4887083878
   83      C       4.8473209213    -1.8108088749    -4.6193579149
   84      C       5.0509763993    -4.6756118322     0.3346809891
   85      C       1.3809333440    -2.0296835326     0.9587414073
   86      C       2.7935302890    -4.7776773160    -0.6167052080
   87      C       2.7226156597     1.4189758671    -1.3519381267
   88      C       0.8962047077    -1.2998335855    -2.5343171671
   89      O      -8.0544429925    -6.4232192272     3.9959874440
   90      C      -8.8958520252    -6.8048226891     5.0893143108
   91      H      -9.8509947037    -7.2115518951     4.7341653045
   92      H      -9.1307726435    -5.9616444885     5.7506832133
   93      H      -8.3420177692    -7.4101364888     5.8172990775
   94      O      -9.7097359082    -5.2118908795     3.1566645041
   95      C      -8.5670032359    -5.5549532186     3.1185952083
   96      C      -7.6029158033    -5.1855073791     2.0107011729
   97      H      -8.2230175676    -4.9616090969     1.1343357462
   98      H      -7.1025141003    -6.1261241231     1.7486147817
   99      C      -6.5535689039    -4.1303209822     2.3169131134
  100      H      -6.9312804853    -3.1767706412     2.7058728908
  101      H      -5.8611382280    -4.3747345758     3.1318810601
  102      C      -5.7527318641    -3.7677064501     1.0355986567
  103      H      -5.1942664433    -4.6388838521     0.6729399908
  104      H      -6.4541882582    -3.4593844575     0.2497211370
  105      C      -4.7024169320    -2.6928035353     1.2374012019
  106      C      -3.5521388343    -3.2663603611     2.0468490789
  107      C      -2.3914184338    -3.7601839478     1.4154320876
  108      H      -2.3702033525    -3.8880117520     0.3377150687
  109      C      -1.4663581830    -4.4506927809     2.2595808209
  110      H      -0.6360715435    -4.9618792059     1.7826211421
  111      C      -1.4658037677    -4.2935206080     3.6252665830
  112      H      -0.6367172921    -4.7118292845     4.1887694375
  113      C      -2.5356201462    -3.5358725328     4.1904031244
  114      H      -2.5044512222    -3.3811242705     5.2643512021
  115      C      -3.5786598330    -3.0341226848     3.3970076986
  116      H      -4.4973173397    -2.7195064185     3.8827288022
  117      C      -3.6500813874     2.4065092585     2.6830027833
  118      C      -1.8471611497     1.8749276115     1.1137986636
  119      C      -3.3851760676     4.5098344145    -2.2671198879
  120      C      -8.1392904202     1.4848371336     0.7350854971
  121      C      -5.0005974751     1.8645068880    -3.9330181301
  122      C      -2.7416184436     1.5351108663     2.1049846850
  123      C      -7.9731886363     1.9615229140    -1.9861889955
  124      C      -3.2660050491     4.8833914470     0.0584620634
  125      C      -3.1740891511    -0.7518949659    -1.5853866256
  126      C      -8.0241981847     0.4054589865    -0.1328935309
  127      C      -4.4378720444    -1.6467122137     0.1496098849
  128      C      -4.4254267804    -1.1299408089    -2.1320240539
  129      C      -7.0700042524    -0.2558203919    -2.1017339315
  130      C      -7.2299226937     2.3707751879    -3.1150190602
  131      C      -2.5308201370    -0.2070629538     0.6938038127
  132      C      -5.4932408186     4.0759270296    -3.2005015820
  133      C      -5.1007556507    -1.2574520503     1.4713507255
  134      C      -6.4654886242    -0.6507836836     1.4051812163
  135      C      -4.5321662983     3.1616158043    -3.7626605894
  136      C      -6.8040232216     4.7998255046     0.6437202495
  137      C      -5.3889659933     5.2752396134    -1.1064447329
  138      C      -4.6078776649     5.2261028547     0.0771107589
  139      C      -2.8079316204     4.1376194002     1.0951446513
  140      C      -6.6220796101     0.4014129631     2.2812237265
  141      C      -3.1723696608    -1.0583942560    -0.1940217459
  142      C      -1.8414541674     3.2607106319     0.6186644891
  143      C      -7.8934322160     0.6529931021    -1.4829339462
  144      C      -1.7700041035     0.8387165025     0.1969675299
  145      C      -4.9199758567    -0.2593110257    -3.1417794658
  146      C      -7.1380647489     2.8112406756     2.1754374675
  147      C      -2.5972609314     4.5081458602    -1.0833142084
  148      C      -5.2555946862    -1.5817583953    -1.1154670624
  149      C      -5.0221221992     4.0390223624     2.1467799041
  150      C      -6.2470941321     0.1712712266    -3.1232860267
  151      C      -2.3646199131     0.3056757941    -2.0567311283
  152      C      -7.4089711121     4.1706967428    -1.6150117069
  153      C      -8.1354146102     3.0691368732    -1.1460514765
  154      C      -2.8259551581     1.0489223574    -3.1130091874
  155      C      -7.4838122244     1.4644586202     1.9425796175
  156      C      -7.1992186050    -0.6642053604     0.1615871612
  157      C      -7.5627562181     3.6606394890     1.0956023820
  158      C      -4.4412890362    -0.2496431795     2.2636632044
  159      C      -1.6523288560     2.4024829177    -1.6986287179
  160      C      -6.5955137064    -1.1353334122    -1.0502922693
  161      C      -4.1467589719     0.8040100088    -3.6105352941
  162      C      -5.8177060748     3.0404479231     2.6498518533
  163      C      -3.3150960179     3.4430020701    -3.1590260127
  164      C      -3.7140508101     3.6974208782     2.1204993583
  165      C      -4.7316451030     4.8226901912    -2.2565652777
  166      C      -1.6127709249     1.0846326007    -1.1767132919
  167      C      -2.4579107046     2.3527862983    -2.8754737082
  168      C      -3.1726428385     0.2202661169     1.8473507277
  169      C      -5.3576239853     0.7035480591     2.7969827368
  170      C      -6.6451250328     4.9097265520    -0.7247515717
  171      C      -1.7539338835     3.4918961955    -0.7675910555
  172      C      -6.2793182507     1.4932618973    -3.6192963824
  173      C      -8.1929940950     2.7939704188     0.2538506720
  174      C      -6.8799076564     3.7064932100    -2.8708309375
  175      C      -4.9488502962     1.9892964511     2.9965451169
  176      C      -5.5061914170     4.9152947996     1.1399111897
 ----------------------------------------------------------------

    9   -5804.2445884403      8.00E-06 Convergence criterion met
 Total energy in the final basis set = -5804.2445884403

                    Orbital Energies (a.u.)
 --------------------------------------------------------------

 Alpha MOs
 -- Occupied --
-19.193 -19.192 -19.139 -19.130 -10.311 -10.308 -10.246 -10.245
-10.243 -10.243 -10.241 -10.235 -10.235 -10.234 -10.229 -10.229
-10.228 -10.228 -10.227 -10.225 -10.225 -10.224 -10.224 -10.223
-10.222 -10.221 -10.220 -10.220 -10.220 -10.220 -10.220 -10.219
-10.219 -10.219 -10.219 -10.219 -10.219 -10.219 -10.218 -10.218
-10.218 -10.217 -10.217 -10.217 -10.217 -10.217 -10.217 -10.216
-10.216 -10.216 -10.216 -10.215 -10.215 -10.215 -10.215 -10.215
-10.215 -10.215 -10.215 -10.214 -10.214 -10.214 -10.214 -10.214
-10.214 -10.213 -10.213 -10.213 -10.213 -10.213 -10.213 -10.213
-10.213 -10.213 -10.213 -10.212 -10.212 -10.212 -10.212 -10.212
-10.212 -10.212 -10.212 -10.212 -10.212 -10.212 -10.211 -10.211
-10.211 -10.211 -10.211 -10.211 -10.211 -10.211 -10.211 -10.211
-10.210 -10.210 -10.210 -10.210 -10.210 -10.210 -10.210 -10.209
-10.209 -10.209 -10.209 -10.209 -10.209 -10.209 -10.209 -10.209
-10.208 -10.208 -10.207 -10.207 -10.207 -10.207 -10.207 -10.206
-10.206 -10.206 -10.206 -10.205 -10.205 -10.205 -10.205 -10.205
-10.204 -10.203 -10.203 -10.203 -10.203 -10.202 -10.202 -10.202
-10.201 -10.201 -10.200 -10.200 -10.199 -10.199 -10.198 -10.198
-10.198 -10.196 -10.193 -10.192  -1.110  -1.110  -1.033  -1.017
 -0.986  -0.983  -0.968  -0.968  -0.966  -0.965  -0.961  -0.959
 -0.936  -0.932  -0.931  -0.928  -0.928  -0.927  -0.924  -0.923
 -0.922  -0.921  -0.900  -0.896  -0.894  -0.890  -0.888  -0.881
 -0.877  -0.874  -0.856  -0.855  -0.844  -0.842  -0.841  -0.840
 -0.839  -0.835  -0.823  -0.823  -0.811  -0.808  -0.802  -0.798
 -0.797  -0.795  -0.795  -0.794  -0.793  -0.791  -0.786  -0.784
 -0.773  -0.772  -0.771  -0.771  -0.767  -0.766  -0.766  -0.763
 -0.761  -0.750  -0.744  -0.741  -0.734  -0.730  -0.719  -0.715
 -0.715  -0.714  -0.714  -0.713  -0.712  -0.711  -0.710  -0.709
 -0.709  -0.709  -0.706  -0.706  -0.704  -0.702  -0.674  -0.672
 -0.662  -0.659  -0.658  -0.658  -0.648  -0.647  -0.634  -0.628
 -0.628  -0.626  -0.626  -0.625  -0.624  -0.620  -0.620  -0.617
 -0.616  -0.616  -0.615  -0.614  -0.613  -0.612  -0.611  -0.610
 -0.607  -0.604  -0.604  -0.603  -0.571  -0.569  -0.566  -0.565
 -0.562  -0.560  -0.560  -0.559  -0.558  -0.556  -0.556  -0.552
 -0.537  -0.536  -0.532  -0.531  -0.528  -0.527  -0.526  -0.525
 -0.524  -0.523  -0.519  -0.519  -0.518  -0.517  -0.516  -0.515
 -0.509  -0.508  -0.503  -0.499  -0.493  -0.493  -0.488  -0.487
 -0.485  -0.484  -0.483  -0.482  -0.481  -0.479  -0.479  -0.477
 -0.476  -0.474  -0.472  -0.470  -0.469  -0.469  -0.467  -0.467
 -0.466  -0.466  -0.465  -0.464  -0.464  -0.460  -0.460  -0.459
 -0.458  -0.455  -0.453  -0.452  -0.449  -0.447  -0.444  -0.443
 -0.443  -0.442  -0.441  -0.441  -0.438  -0.437  -0.436  -0.434
 -0.433  -0.432  -0.430  -0.429  -0.428  -0.427  -0.427  -0.425
 -0.424  -0.423  -0.421  -0.421  -0.420  -0.420  -0.420  -0.419
 -0.419  -0.418  -0.416  -0.416  -0.415  -0.414  -0.413  -0.413
 -0.412  -0.412  -0.410  -0.410  -0.403  -0.400  -0.399  -0.396
 -0.395  -0.393  -0.392  -0.391  -0.389  -0.388  -0.387  -0.387
 -0.384  -0.381  -0.376  -0.372  -0.370  -0.369  -0.369  -0.367
 -0.366  -0.365  -0.365  -0.364  -0.361  -0.360  -0.359  -0.358
 -0.357  -0.356  -0.356  -0.356  -0.355  -0.354  -0.353  -0.352
 -0.350  -0.350  -0.347  -0.347  -0.346  -0.346  -0.345  -0.342
 -0.342  -0.341  -0.340  -0.340  -0.339  -0.338  -0.336  -0.336
 -0.333  -0.333  -0.330  -0.330  -0.330  -0.328  -0.326  -0.323
 -0.311  -0.309  -0.305  -0.301  -0.286  -0.285  -0.272  -0.271
 -0.271  -0.269  -0.268  -0.267  -0.267  -0.266  -0.266  -0.266
 -0.265  -0.263  -0.261  -0.260  -0.257  -0.257  -0.256  -0.253
 -0.250  -0.249  -0.246  -0.244  -0.220  -0.217  -0.213  -0.211
 -0.210  -0.208  -0.208  -0.205  -0.200  -0.199

          Ground-State Mulliken Net Atomic Charges

     Atom                 Charge (a.u.)
  ----------------------------------------
      1 O                    -0.470954
      2 C                    -0.098579
      3 H                     0.134348
      4 H                     0.126082
      5 H                     0.123268
      6 O                    -0.426480
      7 C                     0.577731
      8 C                    -0.240477
      9 H                     0.119307
     10 H                     0.124070
     11 C                    -0.201693
     12 H                     0.130260
     13 H                     0.113435
     14 C                    -0.178148
     15 H                     0.116333
     16 H                     0.120594
     17 C                     0.006536
     18 C                     0.062080
     19 C                    -0.099580
     20 H                     0.095699
     21 C                    -0.090192
     22 H                     0.094350
     23 C                    -0.086813
     24 H                     0.088347
     25 C                    -0.089307
     26 H                     0.094467
     27 C                    -0.088703
     28 H                     0.093770
     29 C                    -0.041881
     30 C                     0.038995
     31 C                     0.013911
     32 C                     0.014990
     33 C                    -0.008873
     34 C                     0.008438
     35 C                    -0.006576
     36 C                    -0.001082
     37 C                     0.010862
     38 C                     0.008875
     39 C                    -0.071121
     40 C                    -0.007339
     41 C                     0.004553
     42 C                     0.019422
     43 C                     0.002691
     44 C                    -0.037875
     45 C                    -0.090805
     46 C                     0.040641
     47 C                     0.007411
     48 C                    -0.002786
     49 C                    -0.002708
     50 C                    -0.015272
     51 C                    -0.004285
     52 C                    -0.003754
     53 C                     0.003246
     54 C                     0.013750
     55 C                     0.002947
     56 C                    -0.020939
     57 C                     0.008070
     58 C                    -0.017373
     59 C                    -0.003188
     60 C                     0.045751
     61 C                    -0.005937
     62 C                    -0.010910
     63 C                     0.012865
     64 C                     0.005759
     65 C                    -0.042860
     66 C                    -0.034253
     67 C                    -0.036801
     68 C                    -0.030663
     69 C                    -0.001246
     70 C                     0.029206
     71 C                     0.001453
     72 C                    -0.031620
     73 C                     0.007783
     74 C                     0.033469
     75 C                     0.029863
     76 C                     0.001143
     77 C                     0.001985
     78 C                    -0.012258
     79 C                    -0.019521
     80 C                     0.003014
     81 C                    -0.004541
     82 C                    -0.011541
     83 C                    -0.018115
     84 C                    -0.006279
     85 C                     0.041122
     86 C                     0.003866
     87 C                     0.018757
     88 C                     0.016625
     89 O                    -0.446053
     90 C                    -0.088615
     91 H                     0.136150
     92 H                     0.119891
     93 H                     0.119052
     94 O                    -0.461306
     95 C                     0.572635
     96 C                    -0.242802
     97 H                     0.132804
     98 H                     0.127133
     99 C                    -0.192908
    100 H                     0.110487
    101 H                     0.118454
    102 C                    -0.174379
    103 H                     0.110898
    104 H                     0.107367
    105 C                     0.005030
    106 C                     0.073901
    107 C                    -0.105572
    108 H                     0.096653
    109 C                    -0.098990
    110 H                     0.088319
    111 C                    -0.069175
    112 H                     0.096995
    113 C                    -0.108611
    114 H                     0.087526
    115 C                    -0.086994
    116 H                     0.094166
    117 C                    -0.028298
    118 C                    -0.019250
    119 C                     0.019285
    120 C                     0.018729
    121 C                     0.023918
    122 C                     0.005711
    123 C                     0.014503
    124 C                     0.019464
    125 C                     0.004514
    126 C                    -0.012798
    127 C                    -0.105974
    128 C                    -0.007395
    129 C                    -0.017659
    130 C                    -0.011458
    131 C                     0.004010
    132 C                    -0.020525
    133 C                    -0.062811
    134 C                     0.032300
    135 C                    -0.028993
    136 C                    -0.028320
    137 C                    -0.016062
    138 C                    -0.006215
    139 C                     0.003436
    140 C                     0.015851
    141 C                     0.031829
    142 C                    -0.035206
    143 C                     0.027758
    144 C                     0.020558
    145 C                    -0.016334
    146 C                    -0.038271
    147 C                    -0.008147
    148 C                     0.037229
    149 C                     0.009077
    150 C                    -0.000360
    151 C                     0.009974
    152 C                    -0.002293
    153 C                    -0.027496
    154 C                    -0.010057
    155 C                    -0.004146
    156 C                    -0.012685
    157 C                     0.004394
    158 C                     0.027343
    159 C                    -0.024795
    160 C                    -0.018988
    161 C                    -0.004928
    162 C                     0.005399
    163 C                     0.009875
    164 C                     0.011449
    165 C                     0.012357
    166 C                     0.003192
    167 C                     0.003972
    168 C                     0.006539
    169 C                    -0.004400
    170 C                     0.046334
    171 C                     0.012268
    172 C                     0.025387
    173 C                     0.011551
    174 C                    -0.027059
    175 C                     0.006986
    176 C                    -0.005140
  ----------------------------------------
  Sum of atomic charges =     0.000000

                    Cartesian Multipole Moments
 -----------------------------------------------------------------
    Charge (ESU x 10^10)
                 0.0000
    Dipole Moment (Debye)
         X       2.2593      Y       0.5402      Z       2.2802
       Tot       3.2551
    Quadrupole Moments (Debye-Ang)
        XX    -839.9068     XY      31.9202     YY    -779.4368
        XZ      -9.5688     YZ      -5.6152     ZZ    -798.3840

 Total job time:  858.94s(wall), 7288.33s(cpu)
        *  Thank you very much for using Q-Chem.  Have a nice day.  *
