 Q-Chem 4.4, Q-Chem, Inc., Pleasanton, CA (2016)
 Q-Chem 4.4.2 for Intel X86 Linux

User input:
--------------------------------------------------------------
$comment
SP
$end

$rem
MEM_STATIC 5000
MEM_TOTAL 20000
JOBTYPE SP
EXCHANGE B3LYP
BASIS 6-31g(d,p)
$end

$molecule
0 1
C          25.495000     -9.059000     -1.841000
C          24.974000     -7.779000     -2.202000
N          25.087000     -9.671000     -0.747000
C          24.078000     -7.074000     -1.368000
C          24.238000     -8.954000      0.065000
C          23.664000     -7.715000     -0.224000
C          22.789000     -7.080000      0.820000
C          23.270000     -6.668000      2.079000
C          21.415000     -6.815000      0.575000
N          22.448000     -6.214000      3.048000
N          20.782000     -7.306000     -0.535000
C          20.638000     -6.209000      1.517000
C          21.185000     -5.868000      2.813000
S          19.300000     -6.790000     -0.290000
N          19.315000     -6.212000      1.216000
C          20.331000     -5.662000      3.956000
S          18.555000     -5.768000      3.977000
C          20.745000     -5.213000      5.224000
C          18.489000     -5.626000      5.753000
S          22.318000     -4.540000      5.770000
C          19.735000     -5.209000      6.146000
C          17.363000     -5.792000      6.663000
C          21.570000     -4.410000      7.399000
C          20.214000     -4.753000      7.425000
N          16.236000     -6.038000      6.052000
S          17.474000     -6.133000      8.369000
C          15.215000     -6.332000      6.932000
C          15.726000     -6.367000      8.230000
C          26.530000     -9.823000     -2.627000
H          25.363000     -7.364000     -3.127000
H          23.566000     -6.159000     -1.648000
H          23.945000     -9.516000      0.951000
H          24.297000     -6.936000      2.322000
H          22.116000     -3.878000      8.167000
H          19.613000     -4.603000      8.315000
H          14.209000     -6.524000      6.583000
H          15.298000     -6.565000      9.204000
H          26.684000    -10.834000     -2.230000
C          27.869000     -9.039000     -2.712000
H          26.200000     -9.896000     -3.671000
H          28.202000     -8.832000     -1.687000
H          27.688000     -8.002000     -3.021000
C          29.000000     -9.671000     -3.441000
H          29.164000    -10.706000     -3.113000
C          30.249000     -8.753000     -3.275000
H          28.785000     -9.719000     -4.515000
H          30.467000     -8.730000     -2.200000
H          30.070000     -7.722000     -3.602000
C          31.627000     -9.241000     -3.954000
H          31.899000    -10.278000     -3.721000
C          32.786000     -8.324000     -3.647000
H          31.500000     -9.175000     -5.042000
H          32.903000     -8.251000     -2.559000
H          32.674000     -7.296000     -4.013000
H          33.617000     -8.747000     -4.225000
C          20.290000     -7.530000     12.739000
C          20.762000     -6.371000     12.092000
N          20.978000     -8.661000     12.693000
C          21.895000     -6.482000     11.297000
C          22.067000     -8.785000     11.865000
C          22.576000     -7.713000     11.112000
C          23.698000     -7.901000     10.148000
C          23.796000     -6.941000      9.067000
C          24.745000     -8.863000     10.230000
N          24.741000     -7.011000      8.102000
N          24.833000     -9.725000     11.200000
C          25.745000     -8.798000      9.265000
C          25.706000     -7.904000      8.159000
S          26.260000    -10.487000     10.869000
N          26.696000     -9.724000      9.469000
C          26.876000     -7.662000      7.269000
S          28.533000     -8.439000      7.385000
C          26.905000     -6.590000      6.382000
C          29.072000     -7.360000      6.100000
S          25.669000     -5.444000      5.806000
C          28.113000     -6.469000      5.726000
C          30.444000     -7.309000      5.602000
C          26.837000     -4.792000      4.746000
C          28.049000     -5.432000      4.768000
N          31.301000     -7.921000      6.371000
S          31.068000     -6.534000      4.136000
C          32.515000     -7.857000      5.800000
C          32.602000     -7.325000      4.561000
C          19.160000     -7.476000     13.741000
H          20.223000     -5.433000     12.189000
H          22.385000     -5.597000     10.901000
H          22.465000     -9.792000     11.752000
H          22.988000     -6.226000      8.918000
H          26.545000     -3.982000      4.090000
H          28.886000     -5.126000      4.151000
H          33.306000     -8.390000      6.310000
H          33.507000     -7.012000      4.057000
H          18.313000     -6.930000     13.307000
C          19.594000     -6.832000     15.040000
H          18.769000     -8.491000     13.881000
H          20.239000     -5.954000     14.909000
H          20.227000     -7.548000     15.578000
C          18.361000     -6.386000     15.844000
H          17.694000     -5.823000     15.180000
C          18.633000     -5.641000     17.149000
H          17.746000     -7.267000     16.063000
H          19.209000     -6.342000     17.766000
H          17.739000     -5.538000     17.776000
C          19.368000     -4.308000     17.041000
H          20.239000     -4.409000     16.382000
C          19.764000     -4.051000     18.527000
H          18.725000     -3.491000     16.692000
H          20.248000     -3.077000     18.675000
H          20.556000     -4.745000     18.835000
H          18.934000     -4.206000     19.227000
$end

--------------------------------------------------------------

             Standard Nuclear Orientation (Angstroms)
    I     Atom           X                Y                Z
 ----------------------------------------------------------------
    1      C      -7.6610851374     2.3765385526     1.5055448233
    2      C      -7.5482280573     3.1813711109     0.3309513478
    3      N      -6.5922567213     2.0406107295     2.2002406665
    4      C      -6.2948476248     3.5735220856    -0.1892910038
    5      C      -5.3808948345     2.4072503087     1.6594895238
    6      C      -5.1839634528     3.2115934040     0.5359379158
    7      C      -3.7726201867     3.4633445397     0.0848087205
    8      C      -2.9211468837     2.4419140300    -0.3819448849
    9      C      -3.2238536444     4.7734772891     0.0617119482
   10      N      -1.6209626479     2.6650072960    -0.6656901010
   11      N      -3.8783408321     5.8298567219     0.6358016758
   12      C      -1.9533534045     4.9948185023    -0.3800642481
   13      C      -1.1134440653     3.8887728820    -0.7878894409
   14      S      -2.8322343750     7.0002169840     0.3938861180
   15      N      -1.5083179807     6.2556509965    -0.1494479149
   16      C       0.3226966151     4.0102370041    -0.8186695166
   17      S       1.2666926378     5.4594087061    -0.4007868931
   18      C       1.2212280323     3.0447319751    -1.3098541371
   19      C       2.8124705353     4.5760864759    -0.4957001654
   20      S       0.9245327379     1.5369618200    -2.2393567255
   21      C       2.5313585703     3.3869681502    -1.1184582813
   22      C       4.1549603842     4.9975877329    -0.1167678551
   23      C       2.7054410420     1.2977409009    -2.2049479469
   24      C       3.4055937268     2.3625102249    -1.6277880863
   25      N       4.2086027971     6.2291299603     0.3126413133
   26      S       5.4948856327     3.9380619085     0.2311450014
   27      C       5.4562169690     6.5618566577     0.7984692900
   28      C       6.2752289921     5.4325278959     0.7670709792
   29      C      -8.9539980799     1.8348674959     2.0602389637
   30      H      -8.4865338759     3.4146359563    -0.1633569595
   31      H      -6.1589290702     4.2766120347    -1.0047415971
   32      H      -4.5423900725     2.0949072774     2.2808111754
   33      H      -3.2886516374     1.4206704561    -0.2947450063
   34      H       3.1224865047     0.5037530368    -2.8104397750
   35      H       4.4889105529     2.4025125338    -1.6527974757
   36      H       5.6725008136     7.5590765816     1.1582952506
   37      H       7.2993925829     5.2353033270     1.0556111126
   38      H      -8.8129473865     1.3527370306     3.0354829928
   39      C      -9.6460574874     0.8771531112     1.0509625229
   40      H      -9.6667159353     2.6619007324     2.1707572172
   41      H      -8.9360962851     0.0764450060     0.8076836265
   42      H      -9.6958841688     1.3378538951     0.0565365128
   43      C     -10.9270846274     0.2432941709     1.4598858781
   44      H     -10.8520616372    -0.2132558219     2.4556964298
   45      C     -11.3454679949    -0.7564619532     0.3392949403
   46      H     -11.7230341080     0.9944497097     1.5249610733
   47      H     -10.5530268060    -1.5141132342     0.2983132551
   48      H     -11.4121689364    -0.2885462540    -0.6499152916
   49      C     -12.6989298422    -1.6024947119     0.5638803342
   50      H     -12.7611514596    -2.0977943375     1.5408392644
   51      C     -12.9511804020    -2.6036766245    -0.5372206753
   52      H     -13.5405340716    -0.9010852421     0.5009829833
   53      H     -12.0889173464    -3.2775169184    -0.6093572218
   54      H     -13.0864350770    -2.1707951803    -1.5360218708
   55      H     -13.9235070454    -3.0408213095    -0.2782623333
   56      C       7.5320843067    -0.9513760328     1.1911362415
   57      C       6.8662931475    -0.8338770304    -0.0448209248
   58      N       7.0048528397    -1.6547730321     2.1820351474
   59      C       5.5862807432    -1.3616010893    -0.1502275777
   60      C       5.7188594823    -2.1299538655     2.0965643328
   61      C       4.9346601879    -1.9980772804     0.9377226555
   62      C       3.5096588951    -2.4361912178     0.9068763697
   63      C       2.6540080001    -1.8015546008    -0.0753979862
   64      C       2.9192705153    -3.4833937993     1.6705420782
   65      N       1.3347060637    -2.0757561814    -0.1911818099
   66      N       3.5940712627    -4.1990814088     2.5214963643
   67      C       1.5858533869    -3.7845710495     1.4121992330
   68      C       0.7742139945    -3.0318026144     0.5185694552
   69      S       2.4773973271    -5.3114676159     3.0136043280
   70      N       1.1528640053    -4.8128411632     2.1596440595
   71      C      -0.5662701072    -3.4901053259     0.0574566731
   72      S      -1.4297561657    -5.0366870903     0.5321256870
   73      C      -1.2097585957    -2.8872614386    -1.0192493279
   74      C      -2.6769156541    -4.6418439623    -0.6488396448
   75      S      -0.9150866756    -1.3911506755    -1.9399061826
   76      C      -2.3866952852    -3.5200958254    -1.3636062183
   77      C      -3.8151974884    -5.5058129842    -0.9502712206
   78      C      -2.3522801515    -1.6992899707    -2.8073467207
   79      C      -3.0447099166    -2.8065630402    -2.3907949591
   80      N      -3.6881296948    -6.7172021923    -0.4847135309
   81      S      -5.2932658033    -5.1260859903    -1.8504259110
   82      C      -4.8029798911    -7.4087612203    -0.7724428318
   83      C      -5.8331886358    -6.7390893329    -1.3345135621
   84      C       8.9784791833    -0.5456810803     1.3559800049
   85      H       7.3364121010    -0.3084943200    -0.8710988303
   86      H       5.0919869666    -1.4323927326    -1.1150090067
   87      H       5.3021099349    -2.5391518394     3.0153128473
   88      H       3.0344302461    -0.9509667747    -0.6393742842
   89      H      -2.6607296395    -0.9907061494    -3.5652833154
   90      H      -3.9723930415    -3.1266316983    -2.8510710436
   91      H      -4.8503642826    -8.4146989018    -0.3778365719
   92      H      -6.7008790471    -7.1756128081    -1.8115571718
   93      H       9.1208638160     0.4675851967     0.9598751346
   94      C       9.9141179959    -1.5174937641     0.6699383735
   95      H       9.1905763454    -0.4370724070     2.4264588463
   96      H       9.5602851163    -1.8609203681    -0.3103322324
   97      H       9.9535140972    -2.4326543231     1.2730288298
   98      C      11.2915849952    -0.8651361230     0.4634555074
   99      H      11.1471420567     0.1250161261     0.0145805122
  100      C      12.3290131402    -1.6916268989    -0.2933072304
  101      H      11.7033276283    -0.5945036172     1.4430335038
  102      H      12.4666846039    -2.5999690171     0.3065487226
  103      H      13.3404674867    -1.2729256840    -0.2253116594
  104      C      11.9973429171    -2.0591588732    -1.7368075286
  105      H      10.9713171894    -2.4412205318    -1.8033138829
  106      C      13.0676748446    -3.1538909886    -2.0317857659
  107      H      12.1335203972    -1.2236256546    -2.4340011419
  108      H      13.0443879007    -3.5007520024    -3.0729299227
  109      H      12.8318882258    -4.0740295741    -1.4826831765
  110      H      14.0782427605    -2.8634738437    -1.7197995975
 ----------------------------------------------------------------

    9   -5663.5088619579      9.38E-06 Convergence criterion met
 Total energy in the final basis set = -5663.5088619579

                    Orbital Energies (a.u.)
 --------------------------------------------------------------

 Alpha MOs
 -- Occupied --
-88.986 -88.983 -88.932 -88.927 -88.925 -88.922 -88.912 -88.909
-14.390 -14.387 -14.384 -14.382 -14.346 -14.345 -14.341 -14.336
-14.326 -14.323 -10.268 -10.267 -10.261 -10.259 -10.252 -10.251
-10.251 -10.250 -10.242 -10.239 -10.239 -10.238 -10.237 -10.237
-10.236 -10.234 -10.232 -10.230 -10.227 -10.226 -10.224 -10.224
-10.224 -10.222 -10.221 -10.221 -10.220 -10.220 -10.213 -10.212
-10.211 -10.209 -10.209 -10.204 -10.202 -10.200 -10.199 -10.197
-10.184 -10.183 -10.183 -10.183 -10.182 -10.180 -10.180 -10.179
-10.177 -10.176 -10.174 -10.172  -8.043  -8.038  -7.993  -7.988
 -7.982  -7.980  -7.971  -7.968  -6.008  -6.004  -6.002  -6.001
 -5.998  -5.996  -5.957  -5.954  -5.952  -5.950  -5.949  -5.947
 -5.944  -5.944  -5.943  -5.941  -5.939  -5.937  -5.936  -5.933
 -5.932  -5.929  -5.927  -5.924  -1.053  -1.043  -0.979  -0.973
 -0.960  -0.958  -0.938  -0.934  -0.915  -0.914  -0.910  -0.908
 -0.845  -0.838  -0.836  -0.830  -0.811  -0.808  -0.808  -0.804
 -0.804  -0.802  -0.798  -0.792  -0.786  -0.778  -0.768  -0.765
 -0.752  -0.750  -0.741  -0.740  -0.725  -0.721  -0.713  -0.709
 -0.693  -0.692  -0.672  -0.668  -0.653  -0.650  -0.644  -0.643
 -0.635  -0.634  -0.632  -0.622  -0.613  -0.609  -0.605  -0.602
 -0.599  -0.593  -0.587  -0.582  -0.577  -0.575  -0.573  -0.570
 -0.547  -0.541  -0.539  -0.538  -0.526  -0.523  -0.521  -0.516
 -0.506  -0.504  -0.496  -0.496  -0.493  -0.484  -0.477  -0.476
 -0.474  -0.470  -0.470  -0.466  -0.463  -0.463  -0.450  -0.449
 -0.447  -0.442  -0.439  -0.436  -0.435  -0.435  -0.433  -0.432
 -0.430  -0.428  -0.424  -0.423  -0.416  -0.416  -0.414  -0.413
 -0.411  -0.410  -0.406  -0.403  -0.399  -0.398  -0.396  -0.395
 -0.394  -0.392  -0.390  -0.389  -0.386  -0.383  -0.382  -0.381
 -0.380  -0.378  -0.376  -0.373  -0.365  -0.365  -0.362  -0.361
 -0.356  -0.353  -0.352  -0.350  -0.348  -0.347  -0.346  -0.344
 -0.341  -0.339  -0.335  -0.333  -0.332  -0.326  -0.319  -0.318
 -0.318  -0.317  -0.317  -0.311  -0.305  -0.304  -0.302  -0.301
 -0.295  -0.294  -0.293  -0.290  -0.288  -0.285  -0.284  -0.281
 -0.270  -0.268  -0.267  -0.261  -0.254  -0.252  -0.251  -0.248
 -0.245  -0.242  -0.237  -0.229  -0.194  -0.190

          Ground-State Mulliken Net Atomic Charges

     Atom                 Charge (a.u.)
  ----------------------------------------
      1 C                     0.289228
      2 C                    -0.125152
      3 N                    -0.476583
      4 C                    -0.054901
      5 C                     0.051910
      6 C                     0.052879
      7 C                    -0.026300
      8 C                     0.066358
      9 C                     0.198341
     10 N                    -0.480866
     11 N                    -0.505183
     12 C                     0.171729
     13 C                     0.276574
     14 S                     0.605518
     15 N                    -0.532346
     16 C                    -0.230313
     17 S                     0.360570
     18 C                    -0.121007
     19 C                    -0.206378
     20 S                     0.297071
     21 C                     0.145713
     22 C                     0.065554
     23 C                    -0.315866
     24 C                    -0.087904
     25 N                    -0.431306
     26 S                     0.278132
     27 C                     0.133076
     28 C                    -0.318746
     29 C                    -0.227902
     30 H                     0.085349
     31 H                     0.105719
     32 H                     0.104230
     33 H                     0.121056
     34 H                     0.128643
     35 H                     0.111703
     36 H                     0.127575
     37 H                     0.130034
     38 H                     0.121045
     39 C                    -0.184645
     40 H                     0.102681
     41 H                     0.100199
     42 H                     0.089640
     43 C                    -0.169633
     44 H                     0.097151
     45 C                    -0.178467
     46 H                     0.090852
     47 H                     0.092548
     48 H                     0.092251
     49 C                    -0.186385
     50 H                     0.095410
     51 C                    -0.310379
     52 H                     0.090409
     53 H                     0.101694
     54 H                     0.099802
     55 H                     0.100960
     56 C                     0.258559
     57 C                    -0.113751
     58 N                    -0.483817
     59 C                    -0.091595
     60 C                     0.066136
     61 C                     0.054391
     62 C                     0.019479
     63 C                     0.054296
     64 C                     0.263697
     65 N                    -0.527253
     66 N                    -0.563867
     67 C                     0.192801
     68 C                     0.326722
     69 S                     0.584590
     70 N                    -0.549964
     71 C                    -0.244314
     72 S                     0.359551
     73 C                    -0.134701
     74 C                    -0.236763
     75 S                     0.340124
     76 C                     0.173120
     77 C                     0.065514
     78 C                    -0.324542
     79 C                    -0.081099
     80 N                    -0.415769
     81 S                     0.259505
     82 C                     0.124786
     83 C                    -0.308460
     84 C                    -0.217348
     85 H                     0.088410
     86 H                     0.093725
     87 H                     0.122725
     88 H                     0.115830
     89 H                     0.131204
     90 H                     0.101900
     91 H                     0.109419
     92 H                     0.130253
     93 H                     0.089100
     94 C                    -0.169970
     95 H                     0.119134
     96 H                     0.094970
     97 H                     0.111143
     98 C                    -0.186780
     99 H                     0.083286
    100 C                    -0.175734
    101 H                     0.089090
    102 H                     0.094116
    103 H                     0.089852
    104 C                    -0.169736
    105 H                     0.098782
    106 C                    -0.322463
    107 H                     0.097901
    108 H                     0.090595
    109 H                     0.106160
    110 H                     0.105714
  ----------------------------------------
  Sum of atomic charges =     0.000000

                    Cartesian Multipole Moments
 -----------------------------------------------------------------
    Charge (ESU x 10^10)
                 0.0000
    Dipole Moment (Debye)
         X      -0.2936      Y       0.7678      Z      -3.8662
       Tot       3.9526
    Quadrupole Moments (Debye-Ang)
        XX    -386.0923     XY      16.3089     YY    -437.0622
        XZ      11.2043     YZ       2.7815     ZZ    -447.5197

 Total job time:  87.13s(wall), 928.77s(cpu)
        *  Thank you very much for using Q-Chem.  Have a nice day.  *
