 Q-Chem 4.4, Q-Chem, Inc., Pleasanton, CA (2016)
 Q-Chem 4.4.2 for Intel X86 Linux

User input:
--------------------------------------------------------------
$comment
SP
$end

$rem
MEM_STATIC 5000
MEM_TOTAL 20000
JOBTYPE SP
EXCHANGE B3LYP
BASIS 6-31g(d,p)
$end

$molecule
0 1
C           4.009000    -27.750000     -3.696000
C           5.390000    -27.771000     -3.938000
N           3.445000    -26.963000     -2.768000
C           6.201000    -26.745000     -3.391000
C           4.223000    -26.022000     -2.170000
C           5.591000    -25.814000     -2.405000
C           6.480000    -24.762000     -1.684000
C           7.884000    -24.944000     -1.534000
C           5.997000    -23.572000     -1.059000
N           8.663000    -24.052000     -0.882000
N           4.685000    -23.205000     -1.143000
C           6.784000    -22.663000     -0.437000
C           8.197000    -22.898000     -0.378000
S           4.555000    -21.747000     -0.474000
N           6.158000    -21.517000     -0.098000
C           9.192000    -21.939000      0.193000
S           8.887000    -20.297000      0.746000
C          10.531000    -22.185000      0.478000
C          10.552000    -19.924000      1.122000
S          11.412000    -23.614000      0.278000
C          11.195000    -21.110000      0.961000
C          11.078000    -18.753000      1.660000
C          12.855000    -22.820000      0.968000
C          12.524000    -21.437000      1.194000
N          10.437000    -17.613000      1.389000
S          12.415000    -18.565000      2.743000
C          11.028000    -16.555000      2.073000
C          12.120000    -16.849000      2.761000
C           3.103000    -28.896000     -4.091000
H           5.816000    -28.588000     -4.512000
H           7.265000    -26.787000     -3.604000
H           3.722000    -25.514000     -1.348000
H           8.438000    -25.857000     -1.746000
H          13.740000    -23.429000      1.102000
H          13.301000    -20.793000      1.589000
H          10.587000    -15.571000      1.987000
H          12.829000    -16.196000      3.253000
H           3.814000    -29.644000     -4.464000
C           1.962000    -28.590000     -5.148000
H           2.690000    -29.324000     -3.169000
H           2.456000    -28.302000     -6.084000
H           1.477000    -27.673000     -4.792000
C           0.987000    -29.754000     -5.433000
H           1.559000    -30.689000     -5.398000
C           0.264000    -29.674000     -6.831000
H           0.276000    -29.669000     -4.602000
H          -0.225000    -28.694000     -6.897000
H          -0.472000    -30.487000     -6.848000
C           1.214000    -29.958000     -7.989000
H           2.082000    -29.292000     -8.062000
C           0.316000    -29.964000     -9.278000
H           1.606000    -30.963000     -7.791000
H           0.908000    -30.027000    -10.199000
H          -0.161000    -28.990000     -9.443000
H          -0.508000    -30.687000     -9.240000
C           2.799000    -18.965000     -1.098000
C           2.026000    -19.090000      0.086000
N           2.448000    -19.596000     -2.199000
C           0.967000    -20.060000      0.041000
C           1.345000    -20.377000     -2.226000
C           0.539000    -20.688000     -1.127000
C          -0.636000    -21.593000     -1.281000
C          -1.330000    -21.766000     -2.495000
C          -1.248000    -22.318000     -0.193000
N          -2.401000    -22.397000     -2.681000
N          -0.774000    -22.225000      1.071000
C          -2.317000    -23.118000     -0.350000
C          -2.962000    -23.128000     -1.639000
S          -1.701000    -23.238000      1.994000
N          -2.730000    -23.806000      0.780000
C          -4.199000    -23.892000     -1.897000
S          -5.416000    -24.337000     -0.701000
C          -4.573000    -24.191000     -3.168000
C          -6.387000    -25.050000     -1.998000
S          -3.796000    -24.075000     -4.723000
C          -5.753000    -24.928000     -3.190000
C          -7.680000    -25.556000     -1.848000
C          -5.113000    -25.016000     -5.445000
C          -6.081000    -25.435000     -4.526000
N          -7.945000    -26.098000     -0.649000
S          -8.953000    -25.346000     -2.926000
C          -9.276000    -26.415000     -0.538000
C          -9.955000    -26.034000     -1.667000
C           4.148000    -18.245000     -1.020000
H           2.224000    -18.547000      1.005000
H           0.409000    -20.142000      0.970000
H           1.179000    -20.846000     -3.195000
H          -0.973000    -21.385000     -3.451000
H          -5.122000    -25.258000     -6.500000
H          -6.941000    -26.079000     -4.673000
H          -9.644000    -26.942000      0.332000
H         -11.036000    -26.005000     -1.717000
H           4.684000    -18.588000     -0.126000
C           3.738000    -16.774000     -0.935000
H           4.743000    -18.414000     -1.926000
H           3.121000    -16.598000     -0.046000
H           3.083000    -16.500000     -1.771000
C           4.958000    -15.800000     -1.071000
H           5.249000    -15.739000     -2.127000
C           6.208000    -16.212000     -0.195000
H           4.561000    -14.795000     -0.885000
H           6.527000    -17.242000     -0.397000
H           5.908000    -16.231000      0.860000
C           7.391000    -15.270000     -0.429000
H           8.295000    -15.673000      0.045000
C           7.088000    -13.829000      0.128000
H           7.701000    -15.216000     -1.480000
H           6.260000    -13.471000     -0.497000
H           8.030000    -13.269000      0.077000
H           6.757000    -13.945000      1.168000
$end

--------------------------------------------------------------

             Standard Nuclear Orientation (Angstroms)
    I     Atom           X                Y                Z
 ----------------------------------------------------------------
    1      C       1.0470167866    -5.5295582143    -0.1499679719
    2      C      -0.1438392565    -6.2237203681     0.1072610873
    3      N       1.0700006474    -4.2776632862    -0.6304675360
    4      C      -1.3676819577    -5.5085798620     0.1269866874
    5      C      -0.1050791409    -3.5970719220    -0.6964363647
    6      C      -1.3672819862    -4.0969095447    -0.3401789741
    7      C      -2.7101880760    -3.3228384028    -0.4596909037
    8      C      -3.9525386336    -3.9985824571    -0.6233217839
    9      C      -2.8362166758    -1.9003021804    -0.4825270158
   10      N      -5.1231916885    -3.3363341786    -0.7597316179
   11      N      -1.7580235239    -1.0860941426    -0.2884811493
   12      C      -4.0134483724    -1.2397549366    -0.5841974205
   13      C      -5.2246607556    -1.9992065342    -0.6913087351
   14      S      -2.3095783051     0.4239855803    -0.2131714290
   15      N      -3.9299064973     0.0910936539    -0.3793174941
   16      C      -6.5969241595    -1.4059186356    -0.7167963749
   17      S      -7.0292479424     0.2800070552    -0.4603812583
   18      C      -7.7878184738    -2.0516939058    -1.0320851827
   19      C      -8.7567490179     0.0372911044    -0.5581514030
   20      S      -8.0330553230    -3.6630371331    -1.4811218091
   21      C      -8.8814128367    -1.2610471665    -0.9386020128
   22      C      -9.7717073470     0.9860770350    -0.4743310702
   23      C      -9.7796179413    -3.3434088666    -1.6712317555
   24      C     -10.0227145074    -1.9895058799    -1.2455831185
   25      N      -9.5355167357     2.0711407092     0.2678096293
   26      S     -11.2944736269     1.0171032510    -1.2965367811
   27      C     -10.6019520596     2.9600390146     0.1725389479
   28      C     -11.6421530408     2.5421464555    -0.5314438131
   29      C       2.3656587620    -6.2407560015    -0.3634112856
   30      H      -0.1104133696    -7.2986686794     0.2549426303
   31      H      -2.2700287161    -6.0751367302     0.3367785903
   32      H      -0.0160728367    -2.6412045497    -1.2094124307
   33      H      -4.0822678180    -5.0584896674    -0.8359153969
   34      H     -10.3955203802    -4.1549181083    -2.0375361870
   35      H     -11.0455383593    -1.6320396677    -1.2688054142
   36      H     -10.5331283160     3.9094834430     0.6863011201
   37      H     -12.6282727946     2.9747443766    -0.6390582619
   38      H       2.0708839685    -7.2976912991    -0.3511802677
   39      C       3.5288481143    -5.9421054605     0.6712695275
   40      H       2.6857941741    -6.0416573496    -1.3938044361
   41      H       3.1882495764    -6.2945741096     1.6525108268
   42      H       3.5622466964    -4.8495239803     0.7607136088
   43      C       4.8918007172    -6.5944185663     0.3494095981
   44      H       4.6981450533    -7.5796497870    -0.0915563026
   45      C       5.8328706053    -6.7928178507     1.5978318783
   46      H       5.3199380436    -5.8904947362    -0.3748118260
   47      H       5.9421692633    -5.8183923873     2.0901994438
   48      H       6.7938644868    -7.1515856450     1.2095917083
   49      C       5.3322182706    -7.8911315528     2.5290537914
   50      H       4.3240516529    -7.7436026830     2.9342010531
   51      C       6.4381924756    -8.0418496552     3.6345247821
   52      H       5.2901836597    -8.7917036750     1.9044771794
   53      H       6.1303582732    -8.7144781243     4.4441438570
   54      H       6.5609626795    -7.1174492669     4.2123148817
   55      H       7.4346065464    -8.2683168411     3.2357508948
   56      C      -1.5676544905     3.1674431908     1.5575418150
   57      C      -1.0877053029     3.8698126946     0.4211722195
   58      N      -0.7774170259     2.3558192038     2.2286262009
   59      C       0.2284749006     3.5075819733    -0.0270069596
   60      C       0.5073140380     2.1728729852     1.8500819175
   61      C       1.1025245753     2.7035286360     0.7019151192
   62      C       2.5252348259     2.3985684851     0.3759383575
   63      C       3.4888199284     2.0570406935     1.3455895926
   64      C       3.0944072677     2.5070960580    -0.9462482773
   65      N       4.7267818256     1.9181016625     1.1784241456
   66      N       2.3476487269     2.8961376952    -2.0055023952
   67      C       4.3842425382     2.2417768212    -1.2170631176
   68      C       5.2621553998     1.9817300671    -0.1038287788
   69      S       3.3421595879     2.8359064314    -3.3263912407
   70      N       4.7503047728     2.3139454020    -2.5518301895
   71      C       6.7142218496     1.7751668996    -0.2748950915
   72      S       7.7081931435     2.4085973577    -1.5865036159
   73      C       7.4452206269     1.1740078892     0.6992540921
   74      C       9.1340045808     1.7108859888    -0.8031265732
   75      S       7.0481145093     0.3123036016     2.1604120069
   76      C       8.7830007461     1.0611179620     0.3336679638
   77      C      10.4533996176     1.9027394019    -1.2187874983
   78      C       8.7399294863    -0.1925436309     2.3157997649
   79      C       9.5609506271     0.2453539395     1.2711390525
   80      N      10.6177272099     2.0594245701    -2.5416768363
   81      S      11.7752282453     2.1702360439    -0.2148315104
   82      C      11.9130235768     2.4049477732    -2.8369598160
   83      C      12.6465964533     2.5416401578    -1.6862952138
   84      C      -3.0652408595     3.2183571019     1.8720697808
   85      H      -1.6669706317     4.6003423276    -0.1350580692
   86      H       0.5553211509     4.0514002976    -0.9093686535
   87      H       1.0424171690     1.4687807446     2.4860038906
   88      H       3.2438516029     1.8294613584     2.3822882787
   89      H       9.0710705548    -0.8129024089     3.1387035134
   90      H      10.6034004116     0.0231893041     1.0714234508
   91      H      12.2392747707     2.4836793051    -3.8652664358
   92      H      13.6280202538     2.9981842018    -1.6696561119
   93      H      -3.6298970624     3.0772605218     0.9417815848
   94      C      -3.2363790208     4.6197342037     2.4603043839
   95      H      -3.3414066256     2.4644362169     2.6195707966
   96      H      -2.9389358671     5.3816769054     1.7302654195
   97      H      -2.5522228613     4.7781750940     3.3028148192
   98      C      -4.6593977572     4.8443601372     3.0768535434
   99      H      -4.7080757582     4.3439645266     4.0519292764
  100      C      -5.8430776287     4.3405448240     2.1577822231
  101      H      -4.6990111083     5.9026430198     3.3609276938
  102      H      -5.7202178998     3.2881725099     1.8733828568
  103      H      -5.8009716384     4.8784290963     1.2026416077
  104      C      -7.1991423872     4.5149737742     2.8450026478
  105      H      -7.9819622130     4.0006338020     2.2732085298
  106      C      -7.5625838249     6.0383916658     3.0051502323
  107      H      -7.2636833698     4.0029512539     3.8131371427
  108      H      -6.7987822107     6.4231163754     3.6928761894
  109      H      -8.6050542939     6.0776956071     3.3446727226
  110      H      -7.4544420121     6.5043933429     2.0173421612
 ----------------------------------------------------------------

   10   -5663.4913694121      4.04E-06 Convergence criterion met
 Total energy in the final basis set = -5663.4913694121

                    Orbital Energies (a.u.)
 --------------------------------------------------------------

 Alpha MOs
 -- Occupied --
-88.988 -88.984 -88.937 -88.925 -88.925 -88.919 -88.914 -88.904
-14.390 -14.380 -14.377 -14.374 -14.346 -14.343 -14.339 -14.338
-14.324 -14.323 -10.264 -10.263 -10.263 -10.260 -10.251 -10.249
-10.249 -10.246 -10.240 -10.240 -10.236 -10.233 -10.232 -10.232
-10.231 -10.231 -10.230 -10.229 -10.229 -10.227 -10.225 -10.225
-10.224 -10.223 -10.223 -10.222 -10.222 -10.220 -10.220 -10.219
-10.214 -10.210 -10.205 -10.205 -10.201 -10.200 -10.199 -10.197
-10.181 -10.181 -10.181 -10.179 -10.177 -10.176 -10.175 -10.175
-10.173 -10.171 -10.167 -10.167  -8.042  -8.039  -7.999  -7.986
 -7.984  -7.978  -7.974  -7.965  -6.007  -6.004  -6.002  -6.000
 -5.998  -5.997  -5.962  -5.959  -5.956  -5.951  -5.948  -5.947
 -5.944  -5.943  -5.943  -5.940  -5.939  -5.938  -5.935  -5.935
 -5.930  -5.929  -5.926  -5.922  -1.032  -1.023  -0.973  -0.967
 -0.966  -0.953  -0.940  -0.931  -0.923  -0.917  -0.891  -0.889
 -0.845  -0.844  -0.829  -0.822  -0.818  -0.811  -0.807  -0.804
 -0.802  -0.799  -0.795  -0.793  -0.780  -0.776  -0.766  -0.764
 -0.750  -0.748  -0.739  -0.736  -0.728  -0.719  -0.706  -0.704
 -0.691  -0.688  -0.678  -0.674  -0.653  -0.651  -0.644  -0.639
 -0.634  -0.633  -0.619  -0.619  -0.609  -0.609  -0.601  -0.598
 -0.596  -0.595  -0.586  -0.585  -0.580  -0.579  -0.560  -0.553
 -0.547  -0.545  -0.539  -0.538  -0.522  -0.522  -0.517  -0.516
 -0.507  -0.501  -0.497  -0.493  -0.484  -0.479  -0.473  -0.470
 -0.468  -0.466  -0.464  -0.464  -0.461  -0.451  -0.448  -0.447
 -0.446  -0.443  -0.441  -0.440  -0.438  -0.434  -0.433  -0.432
 -0.428  -0.427  -0.421  -0.419  -0.418  -0.414  -0.413  -0.411
 -0.410  -0.408  -0.400  -0.399  -0.399  -0.397  -0.396  -0.395
 -0.394  -0.392  -0.392  -0.389  -0.388  -0.387  -0.382  -0.381
 -0.379  -0.378  -0.374  -0.370  -0.357  -0.357  -0.356  -0.356
 -0.354  -0.348  -0.347  -0.346  -0.344  -0.341  -0.340  -0.339
 -0.336  -0.331  -0.330  -0.329  -0.323  -0.321  -0.320  -0.318
 -0.309  -0.306  -0.304  -0.302  -0.301  -0.299  -0.299  -0.299
 -0.296  -0.295  -0.294  -0.284  -0.282  -0.280  -0.278  -0.277
 -0.270  -0.269  -0.265  -0.262  -0.257  -0.255  -0.248  -0.248
 -0.243  -0.241  -0.229  -0.229  -0.193  -0.192

          Ground-State Mulliken Net Atomic Charges

     Atom                 Charge (a.u.)
  ----------------------------------------
      1 C                     0.263923
      2 C                    -0.119691
      3 N                    -0.470073
      4 C                    -0.090071
      5 C                     0.079635
      6 C                     0.035136
      7 C                     0.050342
      8 C                     0.042437
      9 C                     0.208575
     10 N                    -0.531057
     11 N                    -0.545120
     12 C                     0.219749
     13 C                     0.313619
     14 S                     0.639102
     15 N                    -0.588321
     16 C                    -0.225054
     17 S                     0.347574
     18 C                    -0.114463
     19 C                    -0.186263
     20 S                     0.277044
     21 C                     0.178545
     22 C                     0.034856
     23 C                    -0.314287
     24 C                    -0.124566
     25 N                    -0.440525
     26 S                     0.268764
     27 C                     0.128850
     28 C                    -0.301412
     29 C                    -0.220977
     30 H                     0.095441
     31 H                     0.101619
     32 H                     0.117007
     33 H                     0.118254
     34 H                     0.135752
     35 H                     0.107753
     36 H                     0.114785
     37 H                     0.136241
     38 H                     0.080275
     39 C                    -0.183376
     40 H                     0.121116
     41 H                     0.087475
     42 H                     0.115209
     43 C                    -0.184532
     44 H                     0.088340
     45 C                    -0.168371
     46 H                     0.096655
     47 H                     0.094365
     48 H                     0.093037
     49 C                    -0.171803
     50 H                     0.099085
     51 C                    -0.323603
     52 H                     0.095082
     53 H                     0.094916
     54 H                     0.102570
     55 H                     0.105575
     56 C                     0.245824
     57 C                    -0.113910
     58 N                    -0.480991
     59 C                    -0.101803
     60 C                     0.041772
     61 C                     0.082606
     62 C                     0.053529
     63 C                     0.065273
     64 C                     0.233570
     65 N                    -0.494627
     66 N                    -0.570053
     67 C                     0.226340
     68 C                     0.246286
     69 S                     0.600991
     70 N                    -0.574435
     71 C                    -0.218383
     72 S                     0.360473
     73 C                    -0.093191
     74 C                    -0.186321
     75 S                     0.293865
     76 C                     0.117851
     77 C                     0.018266
     78 C                    -0.321569
     79 C                    -0.057823
     80 N                    -0.428602
     81 S                     0.298231
     82 C                     0.132772
     83 C                    -0.313168
     84 C                    -0.209516
     85 H                     0.095947
     86 H                     0.113723
     87 H                     0.102982
     88 H                     0.104085
     89 H                     0.132540
     90 H                     0.111288
     91 H                     0.124074
     92 H                     0.124160
     93 H                     0.120521
     94 C                    -0.200257
     95 H                     0.119940
     96 H                     0.095032
     97 H                     0.106719
     98 C                    -0.188090
     99 H                     0.095494
    100 C                    -0.172749
    101 H                     0.090202
    102 H                     0.111162
    103 H                     0.086858
    104 C                    -0.198127
    105 H                     0.104004
    106 C                    -0.313049
    107 H                     0.090283
    108 H                     0.107925
    109 H                     0.096494
    110 H                     0.100446
  ----------------------------------------
  Sum of atomic charges =     0.000000

                    Cartesian Multipole Moments
 -----------------------------------------------------------------
    Charge (ESU x 10^10)
                 0.0000
    Dipole Moment (Debye)
         X       1.2501      Y       0.1413      Z      -1.1970
       Tot       1.7365
    Quadrupole Moments (Debye-Ang)
        XX    -341.8876     XY       2.2582     YY    -416.6667
        XZ      14.1191     YZ     -10.0668     ZZ    -447.1754

 Total job time:  95.24s(wall), 1022.57s(cpu)
        *  Thank you very much for using Q-Chem.  Have a nice day.  *
