 Q-Chem 4.4, Q-Chem, Inc., Pleasanton, CA (2016)
 Q-Chem 4.4.2 for Intel X86 Linux

User input:
--------------------------------------------------------------
$comment
SP
$end

$rem
MEM_STATIC 5000
MEM_TOTAL 20000
JOBTYPE SP
EXCHANGE B3LYP
BASIS 6-31g(d,p)
$end

$molecule
0 1
C          -2.394000    -30.328000      9.490000
C          -3.770000    -30.361000      9.985000
N          -1.533000    -29.367000      9.770000
C          -4.166000    -29.265000     10.804000
C          -1.940000    -28.338000     10.525000
C          -3.306000    -28.188000     11.055000
C          -3.697000    -26.971000     11.853000
C          -2.637000    -26.246000     12.478000
C          -4.962000    -26.408000     11.997000
N          -2.843000    -25.054000     13.049000
N          -6.116000    -26.926000     11.460000
C          -5.172000    -25.251000     12.818000
C          -4.063000    -24.528000     13.247000
S          -7.314000    -25.975000     12.035000
N          -6.464000    -24.909000     12.962000
C          -4.073000    -23.168000     13.882000
S          -5.576000    -22.159000     13.960000
C          -3.018000    -22.485000     14.539000
C          -4.712000    -21.016000     14.990000
S          -1.292000    -22.914000     14.749000
C          -3.404000    -21.301000     15.146000
C          -5.350000    -19.781000     15.490000
C          -1.100000    -21.371000     15.691000
C          -2.326000    -20.692000     15.832000
N          -4.703000    -18.721000     15.840000
S          -7.064000    -19.558000     15.378000
C          -5.545000    -17.658000     16.160000
C          -6.901000    -17.936000     15.974000
C          -1.896000    -31.465000      8.609000
H          -4.485000    -31.061000      9.563000
H          -5.110000    -29.325000     11.337000
H          -1.177000    -27.582000     10.703000
H          -1.610000    -26.607000     12.447000
H          -0.128000    -21.092000     16.075000
H          -2.352000    -19.783000     16.423000
H          -5.135000    -16.768000     16.617000
H          -7.730000    -17.285000     16.220000
H          -2.775000    -32.085000      8.395000
C          -0.875000    -32.381000      9.275000
H          -1.443000    -31.110000      7.675000
H          -1.140000    -32.765000     10.268000
H          -0.029000    -31.706000      9.448000
C          -0.371000    -33.552000      8.414000
H           0.398000    -34.075000      8.996000
C          -0.012000    -33.240000      6.928000
H          -1.221000    -34.236000      8.306000
H           0.518000    -32.289000      6.791000
H          -0.939000    -33.192000      6.343000
C           0.812000    -34.368000      6.231000
H           1.356000    -33.932000      5.384000
C          -0.044000    -35.714000      5.901000
H           1.578000    -34.716000      6.935000
H           0.632000    -36.485000      5.510000
H          -0.783000    -35.458000      5.132000
H          -0.616000    -36.052000      6.774000
C          11.626000    -11.012000     10.067000
C          11.311000    -10.923000     11.446000
N          11.266000    -12.032000      9.293000
C          10.471000    -11.933000     12.000000
C          10.528000    -12.925000      9.861000
C          10.047000    -13.018000     11.180000
C           9.047000    -14.052000     11.717000
C           8.043000    -13.646000     12.633000
C           8.992000    -15.448000     11.446000
N           7.058000    -14.397000     13.102000
N           9.933000    -16.050000     10.761000
C           7.994000    -16.243000     11.972000
C           6.947000    -15.678000     12.807000
S           9.472000    -17.625000     10.735000
N           8.203000    -17.537000     11.718000
C           5.840000    -16.463000     13.300000
S           5.635000    -18.240000     13.022000
C           4.853000    -16.068000     14.185000
C           4.238000    -18.269000     14.094000
S           4.540000    -14.449000     14.798000
C           3.953000    -17.006000     14.597000
C           3.490000    -19.466000     14.394000
C           3.184000    -15.118000     15.663000
C           2.972000    -16.515000     15.609000
N           2.997000    -19.527000     15.613000
S           3.418000    -20.833000     13.299000
C           2.431000    -20.802000     15.776000
C           2.559000    -21.586000     14.625000
C          12.422000     -9.980000      9.334000
H          11.614000    -10.021000     11.969000
H          10.171000    -11.914000     13.044000
H          10.303000    -13.784000      9.230000
H           7.820000    -12.635000     12.970000
H           2.577000    -14.408000     16.209000
H           2.116000    -17.059000     15.992000
H           2.087000    -21.054000     16.770000
H           2.198000    -22.597000     14.491000
H          12.856000     -9.294000     10.071000
C          11.663000     -9.199000      8.185000
H          13.180000    -10.560000      8.793000
H          11.176000     -9.966000      7.571000
H          12.419000     -8.596000      7.667000
C          10.596000     -8.306000      8.862000
H           9.816000     -8.885000      9.371000
C           9.842000     -7.239000      7.918000
H          11.072000     -7.804000      9.713000
H           8.952000     -6.758000      8.343000
H           9.511000     -7.843000      7.065000
C          10.874000     -6.176000      7.625000
H          11.093000     -5.579000      8.518000
C          10.306000     -5.274000      6.494000
H          11.776000     -6.634000      7.201000
H           9.336000     -4.850000      6.782000
H          10.146000     -5.782000      5.535000
H          10.990000     -4.436000      6.312000
$end

--------------------------------------------------------------

             Standard Nuclear Orientation (Angstroms)
    I     Atom           X                Y                Z
 ----------------------------------------------------------------
    1      C      10.4808200822    -4.2737757597     0.7992365365
    2      C      11.3938551405    -3.1491592761     1.0019549303
    3      N       9.2028308652    -4.1399415118     0.4957996315
    4      C      10.8252266042    -1.8502658900     0.8665645348
    5      C       8.6907122721    -2.9061169528     0.3961677881
    6      C       9.4570244693    -1.6694707804     0.6260109098
    7      C       8.7908089499    -0.3202115697     0.5458207356
    8      C       7.5821906748    -0.2455886434    -0.2114924651
    9      C       9.1596503938     0.8595309882     1.1862061558
   10      N       6.8102197981     0.8467293345    -0.1958911612
   11      N      10.2706066524     1.0049592696     1.9818416291
   12      C       8.4263200644     2.0754981042     0.9851076703
   13      C       7.1812118387     2.0084613442     0.3671573655
   14      S      10.3122896229     2.5932566598     2.3636844372
   15      N       8.9833077680     3.1530037712     1.5645127406
   16      C       6.1576239708     3.1040076832     0.2966513676
   17      S       6.3292398377     4.6370193516     1.2472286756
   18      C       4.9858333794     3.1770402644    -0.4987957094
   19      C       4.9355175788     5.2871854537     0.3819730459
   20      S       4.2346760484     1.9779773066    -1.5966243332
   21      C       4.3351142658     4.3983837356    -0.4340982547
   22      C       4.4007224076     6.6345642279     0.6662854863
   23      C       2.9528328341     3.2171644659    -1.9521101388
   24      C       3.2071192088     4.4332784807    -1.2884813702
   25      N       3.1838677654     6.9955629794     0.4346528435
   26      S       5.3073011359     7.7698451383     1.6093238014
   27      C       2.9046577172     8.2776193305     0.9033811886
   28      C       3.9701488377     8.8761020872     1.5795195341
   29      C      11.0144872971    -5.6936439137     0.9261527643
   30      H      12.3724026301    -3.3135312979     1.4432435537
   31      H      11.4875095270    -0.9905611999     0.8331852618
   32      H       7.6296759517    -2.8783716837     0.1536371161
   33      H       7.2114677715    -1.1034326126    -0.7706697657
   34      H       2.1363981944     2.9715605850    -2.6178384715
   35      H       2.5411878005     5.2709603840    -1.4647266211
   36      H       1.9730487146     8.7558601141     0.6342354676
   37      H       3.9989940749     9.8862956544     1.9671210165
   38      H      12.0422557266    -5.5952514013     1.2960824453
   39      C      11.1023397002    -6.4567389582    -0.3910491597
   40      H      10.4196840701    -6.3100728170     1.6115829418
   41      H      11.6029047531    -5.9411192402    -1.2200853074
   42      H      10.0513713045    -6.5276757363    -0.6938748601
   43      C      11.6592567007    -7.8875191911    -0.2946677318
   44      H      11.5991110085    -8.3272130506    -1.2979950989
   45      C      11.1372371374    -8.7771900189     0.8759741408
   46      H      12.7220649481    -7.7825185301    -0.0468099292
   47      H      10.0611393088    -8.6741700789     1.0643098923
   48      H      11.6648414290    -8.4960590018     1.7960051526
   49      C      11.4645422524   -10.2941325329     0.7058983613
   50      H      10.7526608944   -10.8753610482     1.3049303680
   51      C      13.0356070458   -10.6667934696     0.9209128753
   52      H      11.2752210206   -10.5692132104    -0.3390724957
   53      H      13.1911227780   -11.7267245586     0.6828814831
   54      H      13.2767393138   -10.4947207140     1.9769735725
   55      H      13.6902577826   -10.0005338813     0.3455107778
   56      C     -13.3120691644    -2.3463987029     0.3693249446
   57      C     -13.1321426090    -1.3280089651    -0.5998477834
   58      N     -12.3228585044    -3.1037416099     0.8351253217
   59      C     -11.7994088588    -1.0343925387    -1.0124324961
   60      C     -11.1446567707    -2.8033059569     0.4035050104
   61      C     -10.7210911692    -1.8123195059    -0.5010993424
   62      C      -9.2692714580    -1.4405668566    -0.8350821176
   63      C      -8.9159963474    -0.0772605991    -1.0039037521
   64      C      -8.1636046272    -2.3108020067    -1.0483276165
   65      N      -7.6951877247     0.3996349531    -1.1946494965
   66      N      -8.3170019462    -3.6108506746    -1.1070874965
   67      C      -6.8984622518    -1.8175440783    -1.2949374013
   68      C      -6.6440192802    -0.3867960416    -1.3245655923
   69      S      -6.8073362200    -4.1851484825    -1.3984865752
   70      N      -6.0379914286    -2.7892322711    -1.6080588129
   71      C      -5.3189204842     0.1619104289    -1.4911710846
   72      S      -3.8237633604    -0.8234516711    -1.7568865470
   73      C      -4.9689922220     1.4912321108    -1.6456802343
   74      C      -2.8797390868     0.6396791667    -2.0208947332
   75      S      -6.0023765417     2.9046870391    -1.4749142729
   76      C      -3.6591978906     1.7818857153    -1.8897033715
   77      C      -1.4695498740     0.6323211698    -2.3268771575
   78      C      -4.5962894851     3.8808722841    -1.7981843718
   79      C      -3.3827967192     3.2303470541    -2.1202421804
   80      N      -1.0667795809     1.5921089753    -3.1326776659
   81      S      -0.4053123010    -0.6730677515    -1.8408152763
   82      C       0.2838255551     1.3515114028    -3.4335573343
   83      C       0.7683264312     0.2034918889    -2.7986155284
   84      C     -14.6404826315    -2.7007318087     0.9572830305
   85      H     -14.0030362916    -0.7390527605    -0.8711719118
   86      H     -11.5868575869    -0.2508132108    -1.7343205717
   87      H     -10.3602424497    -3.4785969911     0.7431271418
   88      H      -9.5455469986     0.7970567624    -0.8468874186
   89      H      -4.7426002713     4.9513216957    -1.7399073505
   90      H      -2.4068628626     3.6896279529    -2.2296732712
   91      H       0.7321698743     1.9885687162    -4.1839048210
   92      H       1.7742882063    -0.1899314125    -2.8590887691
   93      H     -15.4192373451    -2.1908092443     0.3779376461
   94      C     -14.8068349012    -2.4457049538     2.5108374150
   95      H     -14.6900602113    -3.7931997386     0.8695283409
   96      H     -13.9274429053    -2.8971094245     2.9855559857
   97      H     -15.7701119786    -2.8858899867     2.7968503674
   98      C     -14.7993652470    -0.9139377773     2.7296992919
   99      H     -13.8398238684    -0.4507564436     2.4699582770
  100      C     -15.1828832462    -0.3929666709     4.2060610534
  101      H     -15.4581122410    -0.4658320810     1.9760185353
  102      H     -14.9774273001     0.6641291637     4.4168269205
  103      H     -14.5368874750    -0.9883860898     4.8619201688
  104      C     -16.6685750492    -0.6325428672     4.3332031491
  105      H     -17.2369249482     0.0519252256     3.6926558657
  106      C     -17.0486596259    -0.4222595240     5.8254181571
  107      H     -16.8993838711    -1.6842170471     4.1237927698
  108      H     -16.7534602384     0.5776629106     6.1669330856
  109      H     -16.5888759157    -1.1327797073     6.5233472430
  110      H     -18.1362323871    -0.5022283835     5.9438008872
 ----------------------------------------------------------------

   10   -5663.5294029752      4.36E-06 Convergence criterion met
 Total energy in the final basis set = -5663.5294029752

                    Orbital Energies (a.u.)
 --------------------------------------------------------------

 Alpha MOs
 -- Occupied --
-88.992 -88.983 -88.937 -88.929 -88.926 -88.923 -88.913 -88.910
-14.391 -14.388 -14.383 -14.375 -14.350 -14.349 -14.342 -14.341
-14.332 -14.323 -10.271 -10.268 -10.265 -10.262 -10.260 -10.259
-10.251 -10.251 -10.248 -10.244 -10.243 -10.241 -10.241 -10.240
-10.239 -10.238 -10.236 -10.235 -10.235 -10.234 -10.234 -10.230
-10.229 -10.228 -10.227 -10.225 -10.225 -10.224 -10.217 -10.216
-10.214 -10.213 -10.210 -10.208 -10.207 -10.207 -10.202 -10.201
-10.184 -10.183 -10.183 -10.181 -10.180 -10.179 -10.179 -10.177
-10.175 -10.175 -10.174 -10.166  -8.047  -8.039  -7.998  -7.988
 -7.985  -7.984  -7.971  -7.970  -6.012  -6.006  -6.005  -6.004
 -5.999  -5.997  -5.962  -5.959  -5.955  -5.952  -5.949  -5.949
 -5.949  -5.946  -5.945  -5.944  -5.942  -5.941  -5.936  -5.935
 -5.932  -5.931  -5.927  -5.927  -1.048  -1.035  -0.974  -0.972
 -0.965  -0.960  -0.954  -0.944  -0.914  -0.912  -0.908  -0.906
 -0.842  -0.837  -0.832  -0.827  -0.815  -0.807  -0.807  -0.806
 -0.803  -0.802  -0.795  -0.793  -0.782  -0.777  -0.765  -0.765
 -0.747  -0.745  -0.738  -0.736  -0.726  -0.725  -0.706  -0.705
 -0.689  -0.688  -0.676  -0.674  -0.657  -0.652  -0.651  -0.640
 -0.636  -0.635  -0.629  -0.625  -0.610  -0.609  -0.600  -0.597
 -0.596  -0.594  -0.586  -0.583  -0.581  -0.580  -0.562  -0.554
 -0.554  -0.553  -0.545  -0.537  -0.527  -0.523  -0.514  -0.511
 -0.505  -0.504  -0.498  -0.495  -0.487  -0.484  -0.478  -0.476
 -0.475  -0.474  -0.471  -0.464  -0.460  -0.458  -0.454  -0.445
 -0.442  -0.440  -0.439  -0.438  -0.438  -0.432  -0.431  -0.429
 -0.427  -0.425  -0.423  -0.420  -0.417  -0.415  -0.414  -0.413
 -0.412  -0.409  -0.405  -0.401  -0.401  -0.399  -0.399  -0.396
 -0.395  -0.395  -0.394  -0.394  -0.390  -0.390  -0.387  -0.385
 -0.385  -0.378  -0.375  -0.373  -0.370  -0.359  -0.358  -0.356
 -0.355  -0.353  -0.350  -0.350  -0.348  -0.345  -0.344  -0.344
 -0.341  -0.335  -0.334  -0.334  -0.332  -0.328  -0.321  -0.320
 -0.316  -0.314  -0.310  -0.308  -0.305  -0.303  -0.301  -0.299
 -0.298  -0.296  -0.292  -0.290  -0.287  -0.285  -0.281  -0.279
 -0.270  -0.269  -0.268  -0.266  -0.257  -0.253  -0.253  -0.251
 -0.249  -0.247  -0.232  -0.232  -0.196  -0.193

          Ground-State Mulliken Net Atomic Charges

     Atom                 Charge (a.u.)
  ----------------------------------------
      1 C                     0.268588
      2 C                    -0.130638
      3 N                    -0.471484
      4 C                    -0.080493
      5 C                     0.070875
      6 C                     0.042240
      7 C                     0.034969
      8 C                     0.064451
      9 C                     0.214305
     10 N                    -0.527504
     11 N                    -0.551255
     12 C                     0.203389
     13 C                     0.325017
     14 S                     0.606736
     15 N                    -0.568815
     16 C                    -0.229137
     17 S                     0.328045
     18 C                    -0.119086
     19 C                    -0.252640
     20 S                     0.255485
     21 C                     0.204962
     22 C                     0.078519
     23 C                    -0.301445
     24 C                    -0.060596
     25 N                    -0.434566
     26 S                     0.256092
     27 C                     0.107324
     28 C                    -0.307549
     29 C                    -0.213863
     30 H                     0.103286
     31 H                     0.112988
     32 H                     0.100719
     33 H                     0.119407
     34 H                     0.118858
     35 H                     0.126257
     36 H                     0.117320
     37 H                     0.139390
     38 H                     0.084110
     39 C                    -0.182977
     40 H                     0.120384
     41 H                     0.089057
     42 H                     0.112078
     43 C                    -0.173300
     44 H                     0.092950
     45 C                    -0.182120
     46 H                     0.091386
     47 H                     0.093433
     48 H                     0.096512
     49 C                    -0.187781
     50 H                     0.092262
     51 C                    -0.328309
     52 H                     0.094939
     53 H                     0.106285
     54 H                     0.103102
     55 H                     0.110266
     56 C                     0.272904
     57 C                    -0.119565
     58 N                    -0.459873
     59 C                    -0.091965
     60 C                     0.079696
     61 C                     0.058794
     62 C                     0.032718
     63 C                     0.040611
     64 C                     0.231170
     65 N                    -0.535215
     66 N                    -0.554786
     67 C                     0.187359
     68 C                     0.349768
     69 S                     0.585621
     70 N                    -0.552680
     71 C                    -0.220813
     72 S                     0.325835
     73 C                    -0.114314
     74 C                    -0.247132
     75 S                     0.294963
     76 C                     0.161404
     77 C                     0.052327
     78 C                    -0.307232
     79 C                    -0.047171
     80 N                    -0.418510
     81 S                     0.299441
     82 C                     0.103512
     83 C                    -0.306481
     84 C                    -0.234905
     85 H                     0.093074
     86 H                     0.100436
     87 H                     0.095712
     88 H                     0.111184
     89 H                     0.123911
     90 H                     0.122708
     91 H                     0.126199
     92 H                     0.137705
     93 H                     0.086708
     94 C                    -0.173461
     95 H                     0.117604
     96 H                     0.121954
     97 H                     0.099008
     98 C                    -0.190315
     99 H                     0.089103
    100 C                    -0.170860
    101 H                     0.078880
    102 H                     0.089483
    103 H                     0.094966
    104 C                    -0.164032
    105 H                     0.097309
    106 C                    -0.322297
    107 H                     0.097586
    108 H                     0.096148
    109 H                     0.102752
    110 H                     0.090631
  ----------------------------------------
  Sum of atomic charges =     0.000000

                    Cartesian Multipole Moments
 -----------------------------------------------------------------
    Charge (ESU x 10^10)
                 0.0000
    Dipole Moment (Debye)
         X       3.1740      Y       2.9282      Z      -0.0890
       Tot       4.3193
    Quadrupole Moments (Debye-Ang)
        XX    -410.8542     XY     -12.5281     YY    -414.5268
        XZ      12.4833     YZ       7.6159     ZZ    -449.7164

 Total job time:  90.31s(wall), 970.17s(cpu)
        *  Thank you very much for using Q-Chem.  Have a nice day.  *
