 Q-Chem 4.4, Q-Chem, Inc., Pleasanton, CA (2016)
 Q-Chem 4.4.2 for Intel X86 Linux

User input:
--------------------------------------------------------------
$comment
SP
$end

$rem
MEM_STATIC 5000
MEM_TOTAL 20000
JOBTYPE SP
EXCHANGE B3LYP
BASIS 6-31g(d,p)
$end

$molecule
0 1
C          -1.098000    -17.778000     12.009000
C          -0.302000    -17.043000     12.912000
N          -0.579000    -18.160000     10.807000
C           0.959000    -16.510000     12.578000
C           0.768000    -17.867000     10.569000
C           1.568000    -16.988000     11.395000
C           2.921000    -16.471000     11.001000
C           3.290000    -15.128000     11.238000
C           3.866000    -17.246000     10.298000
N           4.348000    -14.503000     10.679000
N           3.863000    -18.598000     10.136000
C           5.076000    -16.671000      9.928000
C           5.220000    -15.265000     10.013000
S           5.348000    -19.034000      9.531000
N           6.006000    -17.547000      9.376000
C           6.302000    -14.594000      9.279000
S           7.311000    -15.320000      7.921000
C           6.582000    -13.217000      9.320000
C           7.979000    -13.762000      7.590000
S           5.794000    -12.035000     10.343000
C           7.496000    -12.813000      8.373000
C           8.733000    -13.511000      6.451000
C           6.843000    -10.834000      9.508000
C           7.670000    -11.390000      8.461000
N           9.029000    -14.588000      5.776000
S           8.569000    -12.028000      5.485000
C           9.122000    -14.284000      4.453000
C           9.032000    -12.980000      4.103000
C          -2.340000    -18.440000     12.424000
H          -0.788000    -16.670000     13.808000
H           1.503000    -15.911000     13.302000
H           1.149000    -18.269000      9.631000
H           2.584000    -14.430000     11.686000
H           6.904000     -9.816000      9.869000
H           8.412000    -10.817000      7.916000
H           9.208000    -15.096000      3.744000
H           8.969000    -12.601000      3.091000
H          -2.099000    -19.392000     12.912000
C          -3.464000    -18.602000     11.314000
H          -2.667000    -17.845000     13.286000
H          -3.015000    -19.102000     10.447000
H          -3.854000    -17.610000     11.052000
C          -4.565000    -19.550000     11.770000
H          -4.158000    -20.447000     12.252000
C          -5.618000    -19.934000     10.650000
H          -5.212000    -19.244000     12.601000
H          -6.442000    -20.510000     11.090000
H          -5.136000    -20.717000     10.051000
C          -6.240000    -18.853000      9.800000
H          -5.468000    -18.255000      9.299000
C          -7.144000    -17.983000     10.580000
H          -6.687000    -19.338000      8.924000
H          -7.556000    -17.182000      9.953000
H          -6.559000    -17.540000     11.395000
H          -8.029000    -18.535000     10.917000
C          11.626000    -11.012000     10.067000
C          11.311000    -10.923000     11.446000
N          11.266000    -12.032000      9.293000
C          10.471000    -11.933000     12.000000
C          10.528000    -12.925000      9.861000
C          10.047000    -13.018000     11.180000
C           9.047000    -14.052000     11.717000
C           8.043000    -13.646000     12.633000
C           8.992000    -15.448000     11.446000
N           7.058000    -14.397000     13.102000
N           9.933000    -16.050000     10.761000
C           7.994000    -16.243000     11.972000
C           6.947000    -15.678000     12.807000
S           9.472000    -17.625000     10.735000
N           8.203000    -17.537000     11.718000
C           5.840000    -16.463000     13.300000
S           5.635000    -18.240000     13.022000
C           4.853000    -16.068000     14.185000
C           4.238000    -18.269000     14.094000
S           4.540000    -14.449000     14.798000
C           3.953000    -17.006000     14.597000
C           3.490000    -19.466000     14.394000
C           3.184000    -15.118000     15.663000
C           2.972000    -16.515000     15.609000
N           2.997000    -19.527000     15.613000
S           3.418000    -20.833000     13.299000
C           2.431000    -20.802000     15.776000
C           2.559000    -21.586000     14.625000
C          12.422000     -9.980000      9.334000
H          11.614000    -10.021000     11.969000
H          10.171000    -11.914000     13.044000
H          10.303000    -13.784000      9.230000
H           7.820000    -12.635000     12.970000
H           2.577000    -14.408000     16.209000
H           2.116000    -17.059000     15.992000
H           2.087000    -21.054000     16.770000
H           2.198000    -22.597000     14.491000
H          12.856000     -9.294000     10.071000
C          11.663000     -9.199000      8.185000
H          13.180000    -10.560000      8.793000
H          11.176000     -9.966000      7.571000
H          12.419000     -8.596000      7.667000
C          10.596000     -8.306000      8.862000
H           9.816000     -8.885000      9.371000
C           9.842000     -7.239000      7.918000
H          11.072000     -7.804000      9.713000
H           8.952000     -6.758000      8.343000
H           9.511000     -7.843000      7.065000
C          10.874000     -6.176000      7.625000
H          11.093000     -5.579000      8.518000
C          10.306000     -5.274000      6.494000
H          11.776000     -6.634000      7.201000
H           9.336000     -4.850000      6.782000
H          10.146000     -5.782000      5.535000
H          10.990000     -4.436000      6.312000
$end

--------------------------------------------------------------

             Standard Nuclear Orientation (Angstroms)
    I     Atom           X                Y                Z
 ----------------------------------------------------------------
    1      C      -6.8424672772    -1.8280089913    -0.8215687046
    2      C      -6.0710650526    -1.0727785268    -1.7292115602
    3      N      -6.3152142501    -2.1757568491     0.3872177417
    4      C      -4.7010797935    -0.8001573499    -1.5432435953
    5      C      -5.0437864863    -1.6815280372     0.6972360038
    6      C      -4.1649145412    -1.0400470902    -0.2572289241
    7      C      -2.7160460198    -0.7475799694     0.0042610206
    8      C      -1.7339290801    -0.9639385728    -0.9880162952
    9      C      -2.2294172926    -0.3331066251     1.2609484633
   10      N      -0.4026612320    -1.0037399117    -0.7675355248
   11      N      -2.9568985192     0.1518744623     2.3048456852
   12      C      -0.8642910774    -0.1333267940     1.4287085169
   13      C       0.0246057095    -0.6123789930     0.4361519729
   14      S      -1.8898169831     0.7984567629     3.4023949205
   15      N      -0.4903615851     0.4199233578     2.6498027001
   16      C       1.4510077598    -0.7777721190     0.7487912294
   17      S       2.2035350235    -0.7940376082     2.4288981162
   18      C       2.4405836571    -1.1946611515    -0.1584866101
   19      C       3.7019218514    -1.3180540771     1.7481686145
   20      S       2.2148124071    -1.4791956504    -1.8709890076
   21      C       3.6467675054    -1.4853163557     0.4382219254
   22      C       4.7530694470    -1.7653420563     2.5380168252
   23      C       3.9475190230    -1.9667697978    -1.8658670719
   24      C       4.5675693311    -1.9523299564    -0.5602625735
   25      N       4.5602650384    -1.5770325430     3.8149412502
   26      S       5.7519509612    -3.1744351590     2.1184535422
   27      C       5.1865039989    -2.5587756449     4.5187872888
   28      C       5.9626026246    -3.4257826441     3.8281457128
   29      C      -8.2948287760    -1.9773610039    -0.9677639621
   30      H      -6.4899196686    -0.9103665190    -2.7173027252
   31      H      -4.1494843719    -0.2538815516    -2.3023471739
   32      H      -4.7101112921    -1.9210160645     1.7061539140
   33      H      -2.0073005395    -1.3787702207    -1.9573081754
   34      H       4.4715752487    -2.1347583911    -2.7972697264
   35      H       5.6221741284    -2.1439802309    -0.3959552581
   36      H       4.9933338389    -2.6332008344     5.5801859795
   37      H       6.4221185073    -4.3196923815     4.2300468634
   38      H      -8.7936434967    -1.0836709967    -0.5740241427
   39      C      -8.9316346240    -3.3181187109    -0.4033464897
   40      H      -8.4549081809    -1.8434124761    -2.0449967020
   41      H      -8.6220851663    -3.4262581643     0.6434462270
   42      H      -8.5896521651    -4.1623670911    -1.0158011169
   43      C     -10.4506836705    -3.2309451855    -0.3422582677
   44      H     -10.7887485678    -2.2687904657     0.0609196340
   45      C     -11.1567618675    -4.4390441301     0.4011228725
   46      H     -11.0128380400    -3.1771729003    -1.2824162365
   47      H     -12.2458684628    -4.3654745499     0.2880461688
   48      H     -11.0606224279    -4.2202728876     1.4721552491
   49      C     -10.7729159630    -5.8587225684     0.0618288210
   50      H      -9.6936520359    -6.0139228719     0.1870935068
   51      C     -11.1959740842    -6.2387536508    -1.3016645609
   52      H     -11.1410602779    -6.5023587531     0.8696730047
   53      H     -10.8747812516    -7.2602535701    -1.5421787583
   54      H     -10.7281365856    -5.5376325377    -2.0032743240
   55      H     -12.2885996144    -6.2815752270    -1.3780436379
   56      C       7.3620382966     1.2833127269    -0.8662292814
   57      C       6.7733514105     2.0001277415    -1.9378686727
   58      N       6.7259623472     0.9962517891     0.2660601712
   59      C       5.3913291169     2.3337506938    -1.8314444940
   60      C       5.4851193351     1.3472487011     0.3088011025
   61      C       4.6821950515     2.0067076893    -0.6399862486
   62      C       3.1683603815     2.2459980700    -0.5474135448
   63      C       2.3643412538     2.1052588080    -1.7074366922
   64      C       2.4071873169     2.6457832666     0.5866364375
   65      N       1.0431945472     2.1819583231    -1.7610609761
   66      N       2.9843195314     2.9937812829     1.7104361472
   67      C       1.0345036697     2.7731822837     0.5217203750
   68      C       0.3115363020     2.4819216535    -0.7051229037
   69      S       1.7382305331     3.4027484541     2.6972644308
   70      N       0.5296286795     3.2935241163     1.6428709543
   71      C      -1.1297301769     2.5188198208    -0.7833051400
   72      S      -2.2217185243     2.9946010633     0.5798645701
   73      C      -1.9180276151     2.3717280269    -1.9104121238
   74      C      -3.6211653661     2.9230368103    -0.4869348931
   75      S      -1.4110038215     1.8918535921    -3.5252020171
   76      C      -3.2641602221     2.5417611100    -1.7740165407
   77      C      -4.9660315377     3.2198059133    -0.0561494707
   78      C      -3.0846611802     1.9857954227    -3.9990880560
   79      C      -4.0296305619     2.4423294840    -3.0514180087
   80      N      -5.7311004607     3.7899722687    -0.9629630515
   81      S      -5.4863043627     3.0352423696     1.6076265015
   82      C      -6.9411008140     4.1339967138    -0.3383861337
   83      C      -6.9586453399     3.7704494255     1.0119347758
   84      C       8.7743669740     0.7922998835    -0.8790001351
   85      H       7.3705587893     2.1349754353    -2.8345857106
   86      H       4.8707330878     2.8619049098    -2.6253776767
   87      H       5.0035447131     1.1653043860     1.2688267009
   88      H       2.6729752306     1.7583149564    -2.6922179026
   89      H      -3.3033062102     1.6902163224    -5.0166794997
   90      H      -5.1086472412     2.4442461363    -3.1566811660
   91      H      -7.6358308351     4.7220962511    -0.9226507416
   92      H      -7.7747512364     3.9150413214     1.7072493444
   93      H       9.2873160267     1.2448349798    -1.7358643344
   94      C       8.9677667553    -0.7785954113    -0.8454219075
   95      H       9.1818775440     1.1219641196     0.0847952928
   96      H       8.3323892107    -1.1424411509    -0.0291096795
   97      H      10.0424823656    -0.9569255591    -0.7163726327
   98      C       8.4622005752    -1.3340840200    -2.1982346230
   99      H       7.3853282252    -1.1864902359    -2.3441250505
  100      C       8.7636551606    -2.8886579344    -2.4991766068
  101      H       8.8695485878    -0.6980768954    -2.9934349336
  102      H       8.2315658679    -3.3306698653    -3.3509937453
  103      H       8.4101289373    -3.3963823916    -1.5940682790
  104      C      10.2483454048    -2.9557821843    -2.7675629216
  105      H      10.5002441188    -2.4830449486    -3.7240594160
  106      C      10.6524793033    -4.4564202184    -2.7798218967
  107      H      10.8025028466    -2.5162462977    -1.9291944261
  108      H      10.0658174224    -5.0133060275    -3.5209872177
  109      H      10.5157660292    -4.9790296812    -1.8250790883
  110      H      11.7091917562    -4.5515391912    -3.0582732804
 ----------------------------------------------------------------

   10   -5663.4866070394      8.39E-06 Convergence criterion met
 Total energy in the final basis set = -5663.4866070394

                    Orbital Energies (a.u.)
 --------------------------------------------------------------

 Alpha MOs
 -- Occupied --
-88.988 -88.976 -88.932 -88.925 -88.923 -88.920 -88.913 -88.911
-14.387 -14.377 -14.377 -14.368 -14.348 -14.347 -14.339 -14.336
-14.329 -14.321 -10.267 -10.258 -10.257 -10.256 -10.251 -10.250
-10.245 -10.242 -10.239 -10.238 -10.237 -10.237 -10.235 -10.234
-10.233 -10.230 -10.229 -10.228 -10.227 -10.226 -10.225 -10.225
-10.224 -10.223 -10.223 -10.223 -10.222 -10.218 -10.214 -10.213
-10.212 -10.210 -10.210 -10.208 -10.207 -10.199 -10.198 -10.194
-10.186 -10.186 -10.182 -10.181 -10.179 -10.178 -10.178 -10.175
-10.171 -10.169 -10.169 -10.167  -8.043  -8.032  -7.993  -7.984
 -7.983  -7.977  -7.972  -7.971  -6.008  -6.002  -6.001  -5.998
 -5.992  -5.990  -5.957  -5.954  -5.950  -5.948  -5.947  -5.945
 -5.944  -5.942  -5.941  -5.940  -5.938  -5.936  -5.935  -5.934
 -5.933  -5.932  -5.928  -5.927  -1.041  -1.023  -0.980  -0.968
 -0.961  -0.958  -0.952  -0.920  -0.912  -0.911  -0.903  -0.890
 -0.842  -0.838  -0.827  -0.823  -0.811  -0.808  -0.807  -0.804
 -0.802  -0.802  -0.793  -0.792  -0.782  -0.782  -0.765  -0.761
 -0.748  -0.744  -0.740  -0.736  -0.725  -0.718  -0.706  -0.705
 -0.690  -0.689  -0.673  -0.670  -0.657  -0.650  -0.641  -0.636
 -0.635  -0.632  -0.622  -0.621  -0.610  -0.610  -0.603  -0.597
 -0.593  -0.591  -0.584  -0.583  -0.580  -0.572  -0.565  -0.551
 -0.549  -0.541  -0.539  -0.537  -0.519  -0.519  -0.516  -0.511
 -0.503  -0.501  -0.493  -0.492  -0.481  -0.479  -0.476  -0.473
 -0.471  -0.468  -0.466  -0.462  -0.460  -0.457  -0.450  -0.446
 -0.444  -0.441  -0.437  -0.435  -0.435  -0.433  -0.432  -0.428
 -0.424  -0.424  -0.418  -0.416  -0.414  -0.413  -0.411  -0.409
 -0.408  -0.405  -0.399  -0.398  -0.397  -0.396  -0.396  -0.394
 -0.393  -0.392  -0.390  -0.389  -0.387  -0.384  -0.382  -0.382
 -0.380  -0.374  -0.373  -0.369  -0.364  -0.360  -0.359  -0.358
 -0.352  -0.349  -0.348  -0.346  -0.345  -0.343  -0.342  -0.339
 -0.337  -0.336  -0.334  -0.333  -0.330  -0.326  -0.324  -0.317
 -0.315  -0.308  -0.306  -0.304  -0.299  -0.296  -0.294  -0.293
 -0.292  -0.291  -0.291  -0.287  -0.286  -0.284  -0.281  -0.281
 -0.276  -0.265  -0.263  -0.262  -0.253  -0.252  -0.250  -0.248
 -0.246  -0.241  -0.232  -0.223  -0.191  -0.190

          Ground-State Mulliken Net Atomic Charges

     Atom                 Charge (a.u.)
  ----------------------------------------
      1 C                     0.275714
      2 C                    -0.131299
      3 N                    -0.484386
      4 C                    -0.085010
      5 C                     0.075650
      6 C                     0.037647
      7 C                     0.026321
      8 C                     0.071760
      9 C                     0.246890
     10 N                    -0.529475
     11 N                    -0.564693
     12 C                     0.185568
     13 C                     0.306754
     14 S                     0.619923
     15 N                    -0.561200
     16 C                    -0.244326
     17 S                     0.347239
     18 C                    -0.127040
     19 C                    -0.229694
     20 S                     0.308174
     21 C                     0.193601
     22 C                     0.064922
     23 C                    -0.312355
     24 C                    -0.103747
     25 N                    -0.421342
     26 S                     0.272509
     27 C                     0.111707
     28 C                    -0.306014
     29 C                    -0.234408
     30 H                     0.078197
     31 H                     0.115142
     32 H                     0.114438
     33 H                     0.114748
     34 H                     0.126488
     35 H                     0.127291
     36 H                     0.111819
     37 H                     0.137586
     38 H                     0.123995
     39 C                    -0.162710
     40 H                     0.092087
     41 H                     0.131137
     42 H                     0.100999
     43 C                    -0.190846
     44 H                     0.086999
     45 C                    -0.183832
     46 H                     0.087469
     47 H                     0.081731
     48 H                     0.085119
     49 C                    -0.173752
     50 H                     0.094965
     51 C                    -0.306214
     52 H                     0.089406
     53 H                     0.096364
     54 H                     0.108311
     55 H                     0.100691
     56 C                     0.271482
     57 C                    -0.121411
     58 N                    -0.468909
     59 C                    -0.091340
     60 C                     0.077017
     61 C                     0.061721
     62 C                     0.035375
     63 C                     0.045776
     64 C                     0.244353
     65 N                    -0.534383
     66 N                    -0.563008
     67 C                     0.200719
     68 C                     0.348643
     69 S                     0.593089
     70 N                    -0.564453
     71 C                    -0.229391
     72 S                     0.324158
     73 C                    -0.110571
     74 C                    -0.241746
     75 S                     0.291999
     76 C                     0.155925
     77 C                     0.052052
     78 C                    -0.312923
     79 C                    -0.052638
     80 N                    -0.422820
     81 S                     0.302336
     82 C                     0.113630
     83 C                    -0.309346
     84 C                    -0.234155
     85 H                     0.090458
     86 H                     0.099149
     87 H                     0.110808
     88 H                     0.111838
     89 H                     0.123317
     90 H                     0.124006
     91 H                     0.120628
     92 H                     0.127939
     93 H                     0.086594
     94 C                    -0.177352
     95 H                     0.118519
     96 H                     0.122191
     97 H                     0.099844
     98 C                    -0.194807
     99 H                     0.087699
    100 C                    -0.173412
    101 H                     0.080897
    102 H                     0.088267
    103 H                     0.093773
    104 C                    -0.163648
    105 H                     0.098439
    106 C                    -0.322759
    107 H                     0.098712
    108 H                     0.096412
    109 H                     0.102371
    110 H                     0.091916
  ----------------------------------------
  Sum of atomic charges =     0.000000

                    Cartesian Multipole Moments
 -----------------------------------------------------------------
    Charge (ESU x 10^10)
                 0.0000
    Dipole Moment (Debye)
         X      -0.6637      Y      -0.4323      Z      -1.1926
       Tot       1.4317
    Quadrupole Moments (Debye-Ang)
        XX    -411.8816     XY     -25.2923     YY    -446.1731
        XZ      -4.2186     YZ      -1.2280     ZZ    -421.5378

 Total job time:  131.93s(wall), 1400.69s(cpu)
        *  Thank you very much for using Q-Chem.  Have a nice day.  *
