 Q-Chem 4.4, Q-Chem, Inc., Pleasanton, CA (2016)
 Q-Chem 4.4.2 for Intel X86 Linux

User input:
--------------------------------------------------------------
$comment
SP
$end

$rem
MEM_STATIC 5000
MEM_TOTAL 20000
JOBTYPE SP
EXCHANGE B3LYP
BASIS 6-31g(d,p)
$end

$molecule
0 1
C         -12.028000    -20.527000     10.409000
C         -12.957000    -20.288000      9.353000
N         -10.745000    -20.847000     10.165000
C         -12.511000    -20.273000      8.029000
C         -10.402000    -20.856000      8.846000
C         -11.221000    -20.640000      7.702000
C         -10.709000    -20.498000      6.280000
C          -9.360000    -20.157000      5.987000
C         -11.483000    -20.833000      5.131000
N          -8.839000    -20.113000      4.756000
N         -12.751000    -21.347000      5.209000
C         -10.964000    -20.750000      3.849000
C          -9.583000    -20.370000      3.695000
S         -13.229000    -21.524000      3.628000
N         -11.832000    -21.144000      2.890000
C          -8.942000    -20.150000      2.325000
S          -9.490000    -20.512000      0.619000
C          -7.947000    -19.222000      2.131000
C          -7.976000    -19.917000     -0.027000
S          -7.226000    -18.135000      3.415000
C          -7.433000    -19.092000      0.872000
C          -7.524000    -20.152000     -1.388000
C          -6.052000    -17.650000      2.096000
C          -6.339000    -18.210000      0.849000
N          -8.390000    -20.883000     -2.073000
S          -5.975000    -19.928000     -2.019000
C          -7.759000    -21.390000     -3.195000
C          -6.394000    -21.157000     -3.250000
C         -12.439000    -20.300000     11.878000
H         -13.977000    -20.058000      9.648000
H         -13.174000    -20.093000      7.187000
H          -9.363000    -21.130000      8.669000
H          -8.598000    -20.106000      6.763000
H          -5.405000    -16.800000      2.269000
H          -5.819000    -17.947000     -0.065000
H          -8.282000    -21.936000     -3.969000
H          -5.707000    -21.560000     -3.982000
H         -11.672000    -20.597000     12.604000
C         -13.732000    -21.117000     12.312000
H         -12.549000    -19.226000     12.073000
H         -13.482000    -22.185000     12.300000
H         -14.621000    -20.968000     11.686000
C         -14.074000    -20.678000     13.761000
H         -13.238000    -21.043000     14.371000
C         -15.366000    -21.219000     14.259000
H         -14.028000    -19.582000     13.764000
H         -15.437000    -22.304000     14.115000
H         -16.060000    -20.695000     13.590000
C         -15.644000    -20.761000     15.727000
H         -14.731000    -20.932000     16.312000
C         -16.949000    -21.532000     16.205000
H         -15.940000    -19.708000     15.647000
H         -16.656000    -22.578000     16.352000
H         -17.776000    -21.555000     15.484000
H         -17.190000    -21.170000     17.212000
C           2.799000    -18.965000     -1.098000
C           2.026000    -19.090000      0.086000
N           2.448000    -19.596000     -2.199000
C           0.967000    -20.060000      0.041000
C           1.345000    -20.377000     -2.226000
C           0.539000    -20.688000     -1.127000
C          -0.636000    -21.593000     -1.281000
C          -1.330000    -21.766000     -2.495000
C          -1.248000    -22.318000     -0.193000
N          -2.401000    -22.397000     -2.681000
N          -0.774000    -22.225000      1.071000
C          -2.317000    -23.118000     -0.350000
C          -2.962000    -23.128000     -1.639000
S          -1.701000    -23.238000      1.994000
N          -2.730000    -23.806000      0.780000
C          -4.199000    -23.892000     -1.897000
S          -5.416000    -24.337000     -0.701000
C          -4.573000    -24.191000     -3.168000
C          -6.387000    -25.050000     -1.998000
S          -3.796000    -24.075000     -4.723000
C          -5.753000    -24.928000     -3.190000
C          -7.680000    -25.556000     -1.848000
C          -5.113000    -25.016000     -5.445000
C          -6.081000    -25.435000     -4.526000
N          -7.945000    -26.098000     -0.649000
S          -8.953000    -25.346000     -2.926000
C          -9.276000    -26.415000     -0.538000
C          -9.955000    -26.034000     -1.667000
C           4.148000    -18.245000     -1.020000
H           2.224000    -18.547000      1.005000
H           0.409000    -20.142000      0.970000
H           1.179000    -20.846000     -3.195000
H          -0.973000    -21.385000     -3.451000
H          -5.122000    -25.258000     -6.500000
H          -6.941000    -26.079000     -4.673000
H          -9.644000    -26.942000      0.332000
H         -11.036000    -26.005000     -1.717000
H           4.684000    -18.588000     -0.126000
C           3.738000    -16.774000     -0.935000
H           4.743000    -18.414000     -1.926000
H           3.121000    -16.598000     -0.046000
H           3.083000    -16.500000     -1.771000
C           4.958000    -15.800000     -1.071000
H           5.249000    -15.739000     -2.127000
C           6.208000    -16.212000     -0.195000
H           4.561000    -14.795000     -0.885000
H           6.527000    -17.242000     -0.397000
H           5.908000    -16.231000      0.860000
C           7.391000    -15.270000     -0.429000
H           8.295000    -15.673000      0.045000
C           7.088000    -13.829000      0.128000
H           7.701000    -15.216000     -1.480000
H           6.260000    -13.471000     -0.497000
H           8.030000    -13.269000      0.077000
H           6.757000    -13.945000      1.168000
$end

--------------------------------------------------------------

             Standard Nuclear Orientation (Angstroms)
    I     Atom           X                Y                Z
 ----------------------------------------------------------------
    1      C      -9.9478761063     3.0385750925     0.6875494572
    2      C      -9.9818839177     2.0295804620    -0.3204541660
    3      N      -8.8209234738     3.3297493126     1.3607658695
    4      C      -8.7975325163     1.3969282858    -0.7066924110
    5      C      -7.7204983007     2.6356005606     0.9549174392
    6      C      -7.6151100721     1.6104622912    -0.0269877751
    7      C      -6.3107992857     1.0198144920    -0.5312699877
    8      C      -5.0658985856     1.6925129657    -0.3911628487
    9      C      -6.1975127985    -0.3037480292    -1.0478456592
   10      N      -3.8810858193     1.1741831588    -0.7321773939
   11      N      -7.2530222837    -1.1760054795    -1.1041543343
   12      C      -4.9797829265    -0.8337960650    -1.4427596224
   13      C      -3.7962123485    -0.0323326577    -1.2636113771
   14      S      -6.6288975704    -2.5433925094    -1.8113283248
   15      N      -5.0626880567    -2.1141497576    -1.8695642163
   16      C      -2.4211235796    -0.4804189192    -1.7581117104
   17      S      -1.7818020773    -2.0703533973    -2.3946338013
   18      C      -1.4801144697     0.4198523114    -2.1972683642
   19      C      -0.1719787103    -1.3995231596    -2.5429325513
   20      S      -1.6789616388     2.2382935521    -2.2588902565
   21      C      -0.2782674597    -0.0706212631    -2.6229166194
   22      C       1.0268574526    -2.1973118127    -2.7383170941
   23      C       0.0893436752     2.2395900953    -2.7346597754
   24      C       0.6281769083     0.9634035912    -2.9135025937
   25      N       0.7534215168    -3.4924654134    -2.7750858244
   26      S       2.6339789641    -1.7131379112    -2.5637488248
   27      C       1.9239867794    -4.2028784384    -2.5771355787
   28      C       3.0244434906    -3.4295690401    -2.2431795915
   29      C     -11.1840015322     3.9223246191     0.9509725117
   30      H     -10.9432043887     1.8497881713    -0.7935954601
   31      H      -8.7652606968     0.6247555544    -1.4706562862
   32      H      -6.8217366538     2.8762467979     1.5208175103
   33      H      -4.9673871952     2.6037470955     0.1965180737
   34      H       0.5249717996     3.1617530330    -3.0964354707
   35      H       1.6231350523     0.7770787343    -3.3011962089
   36      H       1.9816259346    -5.2798026227    -2.6645027865
   37      H       3.9965765570    -3.7985276402    -1.9448025605
   38      H     -11.0688665884     4.6030104455     1.8036065191
   39      C     -12.5010121356     3.0948791583     1.2803827119
   40      H     -11.3340519137     4.6135728857     0.1123655019
   41      H     -12.3586800260     2.5954226787     2.2465880708
   42      H     -12.7817133989     2.3337056257     0.5413159665
   43      C     -13.6596962462     4.1218538664     1.3902011114
   44      H     -13.4214856915     4.7219758735     2.2775174632
   45      C     -15.0014971931     3.4955584007     1.5216286902
   46      H     -13.5664760542     4.7779306693     0.5160076405
   47      H     -15.0239988150     2.7416796513     2.3179719003
   48      H     -15.0841125818     3.0188366578     0.5369033085
   49      C     -16.1218278174     4.5774887518     1.6495271171
   50      H     -15.7978142170     5.3111673599     2.3990375486
   51      C     -17.4734906877     3.7992498422     1.9549803616
   52      H     -16.2421241515     4.9856770372     0.6387174834
   53      H     -17.3976102434     3.4372218005     2.9868485001
   54      H     -17.6554905921     2.9078086155     1.3413782314
   55      H     -18.2781984683     4.5441008532     1.9835523619
   56      C       8.8702991803     3.7791544504     0.5510097173
   57      C       7.5164977754     4.0956353658     0.8374911069
   58      N       9.2633276536     2.5254564145     0.4653776326
   59      C       6.6753791340     2.9839585374     1.1854854462
   60      C       8.3871406051     1.5126200946     0.6491107145
   61      C       7.0516590034     1.6503074236     1.0385835515
   62      C       6.1937135442     0.4477737125     1.2415817355
   63      C       6.4187386621    -0.7852198175     0.5978025411
   64      C       4.9923219830     0.4357225177     2.0418479945
   65      N       5.6762146925    -1.7993177684     0.6056447772
   66      N       4.5615412600     1.5464029360     2.6835940323
   67      C       4.2237563809    -0.6558672742     2.2004312269
   68      C       4.5430031477    -1.8195518575     1.4120368508
   69      S       3.2061217107     1.1052990103     3.5236488948
   70      N       3.1512475241    -0.5208757942     3.0677921970
   71      C       3.7108494747    -3.0392073402     1.4317793972
   72      S       1.9895430774    -3.1187827711     1.8063485329
   73      C       4.2119948142    -4.2236740477     0.9951903828
   74      C       2.0241452020    -4.8538379435     1.4573424561
   75      S       5.8036320843    -4.7848495487     0.5627752377
   76      C       3.2756371375    -5.2459787628     1.1142717441
   77      C       0.9041340104    -5.6869817654     1.4145487330
   78      C       5.1943468652    -6.4480465152     0.5011199689
   79      C       3.8421610126    -6.5698353729     0.8386209234
   80      N      -0.0900199704    -5.3497960397     2.2509419712
   81      S       0.6171504764    -6.8970831676     0.2831743266
   82      C      -1.2043293983    -6.1182346963     2.0224960694
   83      C      -0.9914834453    -6.9693377457     0.9683788086
   84      C       9.9005833650     4.9116738004     0.5368880881
   85      H       7.1160637358     5.1045267226     0.8576109983
   86      H       5.6514476157     3.2655290751     1.4165942478
   87      H       8.8479884175     0.5296344083     0.5605870782
   88      H       7.3210174747    -1.0114962404     0.0310239910
   89      H       5.8431804087    -7.2786169450     0.2544667831
   90      H       3.2369574577    -7.4617142038     0.9578929152
   91      H      -2.0685078178    -6.0374824347     2.6680405927
   92      H      -1.7920400372    -7.5196451172     0.4907042960
   93      H       9.7285075819     5.5610018905     1.4046115212
   94      C       9.6104764423     5.6116986497    -0.7916333396
   95      H      10.9248130987     4.5187723249     0.5349175272
   96      H       8.5804369402     5.9866899563    -0.8112838897
   97      H       9.6502298071     4.9015380070    -1.6265516180
   98      C      10.6907681841     6.6874667317    -1.1539381647
   99      H      11.5881312954     6.1791228493    -1.5279220463
  100      C      11.0771007021     7.6383450538     0.0486413970
  101      H      10.3212899389     7.1912089074    -2.0550261996
  102      H      11.3951977391     7.0712216195     0.9321855585
  103      H      10.1757149095     8.1657834931     0.3843471396
  104      C      12.1892497944     8.6135959486    -0.3433013142
  105      H      12.5640784927     9.1369238383     0.5454800801
  106      C      11.6807644135     9.6564708969    -1.4074410886
  107      H      13.0977174462     8.1138680562    -0.7018756567
  108      H      11.4578548706     9.0465080609    -2.2921046825
  109      H      12.4701943654    10.4116215214    -1.5080039318
  110      H      10.7596992247    10.1029391644    -1.0113072678
 ----------------------------------------------------------------

    9   -5663.4737025636      7.37E-06 Convergence criterion met
 Total energy in the final basis set = -5663.4737025636

                    Orbital Energies (a.u.)
 --------------------------------------------------------------

 Alpha MOs
 -- Occupied --
-88.991 -88.988 -88.936 -88.929 -88.926 -88.919 -88.915 -88.907
-14.390 -14.389 -14.383 -14.380 -14.349 -14.346 -14.339 -14.338
-14.332 -14.321 -10.271 -10.265 -10.263 -10.259 -10.257 -10.256
-10.252 -10.250 -10.241 -10.239 -10.238 -10.235 -10.233 -10.233
-10.232 -10.231 -10.230 -10.230 -10.230 -10.229 -10.228 -10.228
-10.227 -10.227 -10.226 -10.224 -10.223 -10.221 -10.215 -10.213
-10.212 -10.206 -10.204 -10.203 -10.203 -10.198 -10.197 -10.197
-10.190 -10.185 -10.185 -10.183 -10.182 -10.180 -10.180 -10.177
-10.176 -10.174 -10.174 -10.173  -8.046  -8.043  -7.998  -7.990
 -7.984  -7.978  -7.973  -7.965  -6.011  -6.008  -6.005  -6.004
 -6.002  -6.001  -5.961  -5.958  -5.955  -5.954  -5.951  -5.949
 -5.947  -5.945  -5.942  -5.941  -5.939  -5.938  -5.934  -5.934
 -5.929  -5.929  -5.926  -5.921  -1.034  -1.024  -0.972  -0.969
 -0.968  -0.965  -0.937  -0.935  -0.918  -0.913  -0.899  -0.890
 -0.847  -0.832  -0.830  -0.829  -0.818  -0.811  -0.809  -0.806
 -0.805  -0.804  -0.796  -0.795  -0.779  -0.779  -0.766  -0.765
 -0.749  -0.746  -0.738  -0.738  -0.730  -0.715  -0.708  -0.706
 -0.692  -0.690  -0.679  -0.675  -0.656  -0.652  -0.646  -0.644
 -0.634  -0.632  -0.624  -0.619  -0.609  -0.605  -0.601  -0.598
 -0.596  -0.592  -0.587  -0.583  -0.582  -0.577  -0.572  -0.559
 -0.546  -0.544  -0.539  -0.537  -0.522  -0.521  -0.517  -0.512
 -0.507  -0.507  -0.494  -0.492  -0.486  -0.484  -0.479  -0.474
 -0.471  -0.470  -0.469  -0.464  -0.463  -0.452  -0.451  -0.447
 -0.445  -0.444  -0.444  -0.440  -0.438  -0.436  -0.432  -0.431
 -0.429  -0.424  -0.423  -0.422  -0.419  -0.415  -0.413  -0.412
 -0.408  -0.405  -0.402  -0.402  -0.401  -0.399  -0.398  -0.397
 -0.396  -0.394  -0.390  -0.389  -0.387  -0.386  -0.386  -0.383
 -0.381  -0.380  -0.375  -0.373  -0.361  -0.361  -0.360  -0.359
 -0.354  -0.352  -0.349  -0.348  -0.348  -0.345  -0.342  -0.342
 -0.339  -0.338  -0.334  -0.333  -0.325  -0.325  -0.324  -0.318
 -0.318  -0.311  -0.309  -0.306  -0.305  -0.302  -0.301  -0.300
 -0.298  -0.295  -0.294  -0.287  -0.285  -0.283  -0.282  -0.279
 -0.273  -0.272  -0.264  -0.261  -0.257  -0.256  -0.251  -0.248
 -0.241  -0.239  -0.230  -0.229  -0.193  -0.193

          Ground-State Mulliken Net Atomic Charges

     Atom                 Charge (a.u.)
  ----------------------------------------
      1 C                     0.261765
      2 C                    -0.104958
      3 N                    -0.476739
      4 C                    -0.077749
      5 C                     0.048574
      6 C                     0.074002
      7 C                     0.031760
      8 C                     0.044556
      9 C                     0.219674
     10 N                    -0.507336
     11 N                    -0.564704
     12 C                     0.225922
     13 C                     0.283794
     14 S                     0.604946
     15 N                    -0.553527
     16 C                    -0.206376
     17 S                     0.325243
     18 C                    -0.137547
     19 C                    -0.228908
     20 S                     0.259695
     21 C                     0.202901
     22 C                     0.068478
     23 C                    -0.301269
     24 C                    -0.086644
     25 N                    -0.431846
     26 S                     0.280323
     27 C                     0.120041
     28 C                    -0.314714
     29 C                    -0.238208
     30 H                     0.089017
     31 H                     0.115329
     32 H                     0.090544
     33 H                     0.117320
     34 H                     0.125207
     35 H                     0.107337
     36 H                     0.117556
     37 H                     0.151988
     38 H                     0.120957
     39 C                    -0.192493
     40 H                     0.113516
     41 H                     0.107025
     42 H                     0.090740
     43 C                    -0.175380
     44 H                     0.087447
     45 C                    -0.170065
     46 H                     0.089828
     47 H                     0.091429
     48 H                     0.089846
     49 C                    -0.177592
     50 H                     0.098828
     51 C                    -0.324278
     52 H                     0.099552
     53 H                     0.103017
     54 H                     0.109024
     55 H                     0.099112
     56 C                     0.263058
     57 C                    -0.116787
     58 N                    -0.488451
     59 C                    -0.093564
     60 C                     0.048023
     61 C                     0.078228
     62 C                     0.052643
     63 C                     0.060597
     64 C                     0.232370
     65 N                    -0.502568
     66 N                    -0.565762
     67 C                     0.225937
     68 C                     0.247405
     69 S                     0.604896
     70 N                    -0.575619
     71 C                    -0.217164
     72 S                     0.371815
     73 C                    -0.106289
     74 C                    -0.180698
     75 S                     0.282043
     76 C                     0.119304
     77 C                     0.020609
     78 C                    -0.326127
     79 C                    -0.058296
     80 N                    -0.428805
     81 S                     0.296711
     82 C                     0.135259
     83 C                    -0.310000
     84 C                    -0.206007
     85 H                     0.092297
     86 H                     0.112081
     87 H                     0.096981
     88 H                     0.102138
     89 H                     0.132611
     90 H                     0.113268
     91 H                     0.124417
     92 H                     0.125567
     93 H                     0.112198
     94 C                    -0.197181
     95 H                     0.115952
     96 H                     0.095896
     97 H                     0.107329
     98 C                    -0.187512
     99 H                     0.096056
    100 C                    -0.169639
    101 H                     0.092078
    102 H                     0.095390
    103 H                     0.089259
    104 C                    -0.187772
    105 H                     0.084605
    106 C                    -0.311375
    107 H                     0.092446
    108 H                     0.109800
    109 H                     0.101521
    110 H                     0.102877
  ----------------------------------------
  Sum of atomic charges =     0.000000

                    Cartesian Multipole Moments
 -----------------------------------------------------------------
    Charge (ESU x 10^10)
                 0.0000
    Dipole Moment (Debye)
         X      -1.6282      Y      -1.9714      Z      -1.8243
       Tot       3.1410
    Quadrupole Moments (Debye-Ang)
        XX    -426.3191     XY       6.1648     YY    -402.1697
        XZ       2.9041     YZ       3.1495     ZZ    -452.1944

 Total job time:  87.52s(wall), 950.55s(cpu)
        *  Thank you very much for using Q-Chem.  Have a nice day.  *
