 Q-Chem 4.4, Q-Chem, Inc., Pleasanton, CA (2016)
 Q-Chem 4.4.2 for Intel X86 Linux

User input:
--------------------------------------------------------------
$comment
SP
$end

$rem
MEM_STATIC 5000
MEM_TOTAL 20000
JOBTYPE SP
EXCHANGE B3LYP
BASIS 6-31g(d,p)
$end

$molecule
0 1
C           5.474000    -21.715000     -4.396000
C           6.478000    -22.584000     -4.493000
N           5.679000    -20.484000     -3.906000
C           7.760000    -22.259000     -4.036000
C           6.910000    -20.085000     -3.587000
C           8.036000    -20.907000     -3.694000
C           9.502000    -20.417000     -3.419000
C          10.524000    -21.222000     -2.795000
C           9.971000    -19.125000     -3.669000
N          11.799000    -20.900000     -2.602000
N           9.130000    -18.068000     -3.886000
C          11.312000    -18.724000     -3.560000
C          12.208000    -19.703000     -3.062000
S          10.107000    -16.786000     -4.047000
N          11.579000    -17.467000     -3.750000
C          13.633000    -19.528000     -2.671000
S          14.462000    -20.393000     -1.335000
C          14.556000    -18.856000     -3.437000
C          16.031000    -19.810000     -1.872000
S          14.251000    -18.224000     -4.941000
C          15.895000    -19.003000     -2.943000
C          17.276000    -20.011000     -1.119000
C          15.977000    -17.846000     -4.932000
C          16.719000    -18.335000     -3.867000
N          18.329000    -19.259000     -1.286000
S          17.442000    -21.242000      0.069000
C          19.314000    -19.495000     -0.385000
C          18.935000    -20.439000      0.524000
C           4.073000    -22.137000     -4.784000
H           6.299000    -23.543000     -4.971000
H           8.494000    -23.057000     -4.095000
H           7.085000    -19.067000     -3.241000
H          10.194000    -22.219000     -2.508000
H          16.401000    -17.290000     -5.758000
H          17.802000    -18.351000     -3.813000
H          20.111000    -18.763000     -0.401000
H          19.428000    -20.686000      1.455000
H           4.106000    -22.968000     -5.499000
C           3.163000    -21.018000     -5.480000
H           3.598000    -22.657000     -3.943000
H           3.832000    -20.521000     -6.194000
H           2.818000    -20.337000     -4.692000
C           1.893000    -21.654000     -5.979000
H           2.141000    -22.416000     -6.729000
C           0.925000    -20.679000     -6.713000
H           1.323000    -22.089000     -5.148000
H           1.539000    -20.031000     -7.350000
H           0.544000    -20.015000     -5.927000
C          -0.190000    -21.429000     -7.607000
H          -0.931000    -20.687000     -7.929000
C          -0.996000    -22.491000     -6.792000
H           0.309000    -21.865000     -8.481000
H          -1.891000    -22.894000     -7.281000
H          -1.335000    -22.021000     -5.860000
H          -0.367000    -23.328000     -6.465000
C           2.799000    -18.965000     -1.098000
C           2.026000    -19.090000      0.086000
N           2.448000    -19.596000     -2.199000
C           0.967000    -20.060000      0.041000
C           1.345000    -20.377000     -2.226000
C           0.539000    -20.688000     -1.127000
C          -0.636000    -21.593000     -1.281000
C          -1.330000    -21.766000     -2.495000
C          -1.248000    -22.318000     -0.193000
N          -2.401000    -22.397000     -2.681000
N          -0.774000    -22.225000      1.071000
C          -2.317000    -23.118000     -0.350000
C          -2.962000    -23.128000     -1.639000
S          -1.701000    -23.238000      1.994000
N          -2.730000    -23.806000      0.780000
C          -4.199000    -23.892000     -1.897000
S          -5.416000    -24.337000     -0.701000
C          -4.573000    -24.191000     -3.168000
C          -6.387000    -25.050000     -1.998000
S          -3.796000    -24.075000     -4.723000
C          -5.753000    -24.928000     -3.190000
C          -7.680000    -25.556000     -1.848000
C          -5.113000    -25.016000     -5.445000
C          -6.081000    -25.435000     -4.526000
N          -7.945000    -26.098000     -0.649000
S          -8.953000    -25.346000     -2.926000
C          -9.276000    -26.415000     -0.538000
C          -9.955000    -26.034000     -1.667000
C           4.148000    -18.245000     -1.020000
H           2.224000    -18.547000      1.005000
H           0.409000    -20.142000      0.970000
H           1.179000    -20.846000     -3.195000
H          -0.973000    -21.385000     -3.451000
H          -5.122000    -25.258000     -6.500000
H          -6.941000    -26.079000     -4.673000
H          -9.644000    -26.942000      0.332000
H         -11.036000    -26.005000     -1.717000
H           4.684000    -18.588000     -0.126000
C           3.738000    -16.774000     -0.935000
H           4.743000    -18.414000     -1.926000
H           3.121000    -16.598000     -0.046000
H           3.083000    -16.500000     -1.771000
C           4.958000    -15.800000     -1.071000
H           5.249000    -15.739000     -2.127000
C           6.208000    -16.212000     -0.195000
H           4.561000    -14.795000     -0.885000
H           6.527000    -17.242000     -0.397000
H           5.908000    -16.231000      0.860000
C           7.391000    -15.270000     -0.429000
H           8.295000    -15.673000      0.045000
C           7.088000    -13.829000      0.128000
H           7.701000    -15.216000     -1.480000
H           6.260000    -13.471000     -0.497000
H           8.030000    -13.269000      0.077000
H           6.757000    -13.945000      1.168000
$end

--------------------------------------------------------------

             Standard Nuclear Orientation (Angstroms)
    I     Atom           X                Y                Z
 ----------------------------------------------------------------
    1      C      -0.8660545946     2.1272951000     0.3602145835
    2      C      -1.6204213335     2.5279282308     1.3814931536
    3      N      -1.3710414869     1.3309945709    -0.5928749747
    4      C      -2.9408695841     2.0860349795     1.5198577881
    5      C      -2.6613079412     0.9975178683    -0.5747430776
    6      C      -3.5456075010     1.4029353827     0.4295775523
    7      C      -5.0863838358     1.1022608886     0.4075744907
    8      C      -5.8709559423     0.7952012153     1.5789181494
    9      C      -5.8655868759     1.0162445064    -0.7487856626
   10      N      -7.1850735780     0.6067589378     1.6432792220
   11      N      -5.3175877552     0.8756076846    -1.9943928431
   12      C      -7.2637903348     0.8909228531    -0.7656548870
   13      C      -7.8833198704     0.7442999513     0.5008149623
   14      S      -6.5856336978     0.7411389952    -2.9933681476
   15      N      -7.8384018247     0.7434996902    -1.9213045080
   16      C      -9.3048709248     0.4167477737     0.7941290786
   17      S      -9.8843343127    -0.5692627042     2.1770128480
   18      C     -10.3703856684     1.0272899164     0.1759174456
   19      C     -11.5518284416    -0.1102835842     1.8626555712
   20      S     -10.2404857215     2.2739515279    -0.9119363268
   21      C     -11.6274536806     0.6842368738     0.7764677122
   22      C     -12.7031825191    -0.6930173947     2.5642538140
   23      C     -12.0060623506     2.2767041035    -0.8428523912
   24      C     -12.5968479656     1.4407097066     0.0930940418
   25      N     -13.9118878957    -0.6701128981     2.0736330880
   26      S     -12.5497170387    -1.4804743851     4.0843264552
   27      C     -14.8021058257    -1.4025113121     2.7869539137
   28      C     -14.1943214722    -2.0384275683     3.8296747271
   29      C       0.5942314178     2.5218657616     0.3027014974
   30      H      -1.2087730502     3.2392756775     2.0919412523
   31      H      -3.4515066193     2.4124832263     2.4208141468
   32      H      -3.0844818408     0.3961370953    -1.3784407922
   33      H      -5.3001335003     0.7735256625     2.5057244454
   34      H     -12.5597107911     2.9433338028    -1.4911318435
   35      H     -13.6409572301     1.4660738376     0.3850760696
   36      H     -15.7572959083    -1.5360256655     2.2959602034
   37      H     -14.6053775010    -2.8295769707     4.4428097565
   38      H       0.7674779612     3.4392678842     0.8782308022
   39      C       1.1912991963     2.8186643839    -1.1533540118
   40      H       1.1882873216     1.8274796465     0.9095223163
   41      H       0.4157923799     3.4106810955    -1.6558193251
   42      H       1.3580305020     1.8517993256    -1.6443760384
   43      C       2.5779472821     3.3876039037    -1.0122444480
   44      H       2.5256033787     4.3339192744    -0.4587145618
   45      C       3.2671067315     3.7567472606    -2.3595370797
   46      H       3.2425997135     2.6729282731    -0.5100872133
   47      H       2.5073158998     4.2295090448    -2.9934796539
   48      H       3.4729417744     2.7940822767    -2.8440585589
   49      C       4.5305130611     4.7462870890    -2.1875592487
   50      H       5.0602435180     4.8001072715    -3.1466306907
   51      C       5.5808135152     4.2044403014    -1.1653185652
   52      H       4.1528639345     5.7382074574    -1.9110667172
   53      H       6.5460565264     4.7245565676    -1.1468795075
   54      H       5.7953143047     3.1582591305    -1.4181809170
   55      H       5.1833525900     4.1645701248    -0.1437637787
   56      C       1.0485998289    -1.9742629162    -1.8994865644
   57      C       1.8336066942    -3.1266811378    -1.6335796933
   58      N       1.5416499976    -0.7678809955    -1.7121174296
   59      C       3.1018380899    -2.8864820760    -1.0024699266
   60      C       2.8051500373    -0.6001413292    -1.2618618868
   61      C       3.6683694133    -1.6218674995    -0.8555541934
   62      C       5.0320930450    -1.3029294853    -0.3437901859
   63      C       5.7417838586    -0.1378590284    -0.6963675244
   64      C       5.8113079924    -2.1866351089     0.4903569454
   65      N       6.9359618679     0.1429916400    -0.4227623630
   66      N       5.3348748821    -3.3922937503     0.8781967729
   67      C       7.0460710450    -1.8867317879     0.9294790264
   68      C       7.6671039152    -0.6915319899     0.4161939038
   69      S       6.4905056173    -4.0593476790     1.8564521895
   70      N       7.6235597254    -2.8075703277     1.7893489047
   71      C       9.0550065721    -0.3160332369     0.7525804396
   72      S      10.3501336516    -1.4213004634     1.2114488371
   73      C       9.4862757707     0.9599986597     0.5780310855
   74      C      11.4630355302    -0.0459733935     1.2692749511
   75      S       8.6979706753     2.4708438529     0.2159097262
   76      C      10.8132998562     1.1056115411     0.9702771377
   77      C      12.8422859337    -0.1367000497     1.4688294502
   78      C      10.2056055603     3.3347309642     0.5651805560
   79      C      11.2519167666     2.5045476353     0.9813229595
   80      N      13.2402000137    -1.1541129584     2.2486533779
   81      S      14.0170123641     0.7532369429     0.6596675609
   82      C      14.6086522691    -1.2622514128     2.2525903183
   83      C      15.1652512281    -0.3308151976     1.4138608173
   84      C      -0.4375017713    -2.1575160377    -2.2191822436
   85      H       1.5099105773    -4.1445276276    -1.8280619472
   86      H       3.6667776235    -3.7918896879    -0.7970207122
   87      H       3.0790814858     0.4473302411    -1.1425183870
   88      H       5.2962973814     0.6972797123    -1.2354696318
   89      H      10.2702299793     4.4124353622     0.4874186435
   90      H      12.2452799027     2.7657695917     1.3290840404
   91      H      15.1010172268    -1.9753204152     2.9000178016
   92      H      16.2041818712    -0.3634736292     1.1114396776
   93      H      -0.8662714021    -2.8837681375    -1.5171170819
   94      C      -0.4091912573    -2.6731885655    -3.6587816180
   95      H      -0.9751965691    -1.2022849609    -2.1762882545
   96      H       0.1479670960    -3.6155342503    -3.7183230299
   97      H       0.1523431079    -1.9914541818    -4.3091002990
   98      C      -1.8350988159    -2.7301632052    -4.3061713960
   99      H      -2.1368855356    -1.7151233957    -4.5928017523
  100      C      -2.9378106845    -3.3721479805    -3.3726286369
  101      H      -1.7020296327    -3.2129638014    -5.2815821694
  102      H      -2.9891761464    -2.8723339490    -2.3974299273
  103      H      -2.6378509726    -4.3984442587    -3.1274223552
  104      C      -4.3203197449    -3.3288096249    -4.0271509701
  105      H      -5.0921777754    -3.6111224901    -3.2999401156
  106      C      -4.3859208911    -4.2815020295    -5.2787949578
  107      H      -4.6387204100    -2.3153524564    -4.3012724469
  108      H      -3.6770305968    -3.8368857510    -5.9888399674
  109      H      -5.4384909871    -4.3241782149    -5.5851280056
  110      H      -4.0316905145    -5.2686836778    -4.9553599048
 ----------------------------------------------------------------

   10   -5663.4735996465      5.63E-06 Convergence criterion met
 Total energy in the final basis set = -5663.4735996465

                    Orbital Energies (a.u.)
 --------------------------------------------------------------

 Alpha MOs
 -- Occupied --
-88.988 -88.988 -88.937 -88.925 -88.921 -88.919 -88.914 -88.910
-14.389 -14.387 -14.384 -14.380 -14.350 -14.344 -14.339 -14.331
-14.320 -14.318 -10.263 -10.262 -10.261 -10.260 -10.257 -10.256
-10.251 -10.249 -10.239 -10.236 -10.233 -10.233 -10.232 -10.232
-10.231 -10.231 -10.230 -10.228 -10.225 -10.224 -10.224 -10.223
-10.222 -10.221 -10.221 -10.220 -10.219 -10.219 -10.217 -10.212
-10.210 -10.209 -10.205 -10.201 -10.201 -10.194 -10.194 -10.186
-10.183 -10.179 -10.177 -10.177 -10.177 -10.176 -10.175 -10.174
-10.171 -10.170 -10.169 -10.169  -8.044  -8.042  -7.999  -7.984
 -7.983  -7.978  -7.973  -7.972  -6.009  -6.007  -6.004  -6.002
 -6.002  -6.000  -5.962  -5.959  -5.956  -5.948  -5.947  -5.944
 -5.943  -5.942  -5.940  -5.940  -5.938  -5.938  -5.936  -5.934
 -5.934  -5.933  -5.930  -5.928  -1.047  -1.023  -0.973  -0.973
 -0.966  -0.964  -0.940  -0.934  -0.918  -0.917  -0.912  -0.889
 -0.847  -0.844  -0.828  -0.827  -0.818  -0.810  -0.806  -0.801
 -0.801  -0.797  -0.796  -0.794  -0.780  -0.776  -0.763  -0.761
 -0.753  -0.747  -0.741  -0.735  -0.728  -0.717  -0.706  -0.704
 -0.690  -0.688  -0.678  -0.674  -0.654  -0.653  -0.644  -0.642
 -0.635  -0.632  -0.624  -0.617  -0.607  -0.607  -0.600  -0.596
 -0.596  -0.589  -0.585  -0.582  -0.580  -0.578  -0.555  -0.555
 -0.552  -0.545  -0.541  -0.538  -0.521  -0.520  -0.516  -0.510
 -0.507  -0.505  -0.502  -0.493  -0.483  -0.482  -0.478  -0.472
 -0.470  -0.469  -0.465  -0.463  -0.457  -0.449  -0.446  -0.443
 -0.442  -0.440  -0.436  -0.435  -0.434  -0.433  -0.431  -0.430
 -0.428  -0.424  -0.421  -0.420  -0.417  -0.415  -0.413  -0.409
 -0.406  -0.404  -0.402  -0.401  -0.400  -0.399  -0.397  -0.395
 -0.395  -0.393  -0.389  -0.389  -0.384  -0.383  -0.382  -0.380
 -0.380  -0.377  -0.375  -0.372  -0.364  -0.358  -0.357  -0.355
 -0.353  -0.352  -0.348  -0.346  -0.345  -0.344  -0.341  -0.340
 -0.339  -0.336  -0.333  -0.332  -0.325  -0.321  -0.320  -0.318
 -0.315  -0.307  -0.306  -0.305  -0.304  -0.303  -0.299  -0.297
 -0.297  -0.295  -0.293  -0.286  -0.281  -0.280  -0.279  -0.279
 -0.271  -0.270  -0.265  -0.258  -0.255  -0.253  -0.248  -0.243
 -0.240  -0.235  -0.230  -0.227  -0.192  -0.191

          Ground-State Mulliken Net Atomic Charges

     Atom                 Charge (a.u.)
  ----------------------------------------
      1 C                     0.299246
      2 C                    -0.118083
      3 N                    -0.493895
      4 C                    -0.083760
      5 C                     0.093863
      6 C                     0.027623
      7 C                     0.030860
      8 C                     0.061429
      9 C                     0.192830
     10 N                    -0.488567
     11 N                    -0.529545
     12 C                     0.254641
     13 C                     0.227853
     14 S                     0.599732
     15 N                    -0.550675
     16 C                    -0.204824
     17 S                     0.307176
     18 C                    -0.111633
     19 C                    -0.247367
     20 S                     0.280925
     21 C                     0.190007
     22 C                     0.082061
     23 C                    -0.297694
     24 C                    -0.070300
     25 N                    -0.434296
     26 S                     0.253252
     27 C                     0.128686
     28 C                    -0.317893
     29 C                    -0.239653
     30 H                     0.086012
     31 H                     0.099124
     32 H                     0.122240
     33 H                     0.102996
     34 H                     0.117385
     35 H                     0.122055
     36 H                     0.118187
     37 H                     0.127843
     38 H                     0.091702
     39 C                    -0.184051
     40 H                     0.118090
     41 H                     0.094618
     42 H                     0.147836
     43 C                    -0.177423
     44 H                     0.081223
     45 C                    -0.191222
     46 H                     0.093278
     47 H                     0.091281
     48 H                     0.090379
     49 C                    -0.183107
     50 H                     0.096590
     51 C                    -0.327914
     52 H                     0.096002
     53 H                     0.097830
     54 H                     0.120314
     55 H                     0.106856
     56 C                     0.270870
     57 C                    -0.119670
     58 N                    -0.485485
     59 C                    -0.094515
     60 C                     0.054186
     61 C                     0.081853
     62 C                     0.050845
     63 C                     0.063531
     64 C                     0.231176
     65 N                    -0.498790
     66 N                    -0.566535
     67 C                     0.225251
     68 C                     0.244016
     69 S                     0.599268
     70 N                    -0.576160
     71 C                    -0.220086
     72 S                     0.359255
     73 C                    -0.100443
     74 C                    -0.187333
     75 S                     0.304319
     76 C                     0.117501
     77 C                     0.018235
     78 C                    -0.327178
     79 C                    -0.057130
     80 N                    -0.429385
     81 S                     0.297609
     82 C                     0.132294
     83 C                    -0.312377
     84 C                    -0.218923
     85 H                     0.092250
     86 H                     0.110275
     87 H                     0.090701
     88 H                     0.101876
     89 H                     0.131876
     90 H                     0.111187
     91 H                     0.123856
     92 H                     0.123925
     93 H                     0.107928
     94 C                    -0.197736
     95 H                     0.142280
     96 H                     0.093571
     97 H                     0.107336
     98 C                    -0.187819
     99 H                     0.097376
    100 C                    -0.169280
    101 H                     0.090609
    102 H                     0.096677
    103 H                     0.088877
    104 C                    -0.189366
    105 H                     0.084401
    106 C                    -0.311455
    107 H                     0.089963
    108 H                     0.110168
    109 H                     0.100793
    110 H                     0.103410
  ----------------------------------------
  Sum of atomic charges =     0.000000

                    Cartesian Multipole Moments
 -----------------------------------------------------------------
    Charge (ESU x 10^10)
                 0.0000
    Dipole Moment (Debye)
         X       2.2792      Y       0.3147      Z       0.6472
       Tot       2.3901
    Quadrupole Moments (Debye-Ang)
        XX    -355.7522     XY      11.2473     YY    -421.9640
        XZ      -1.4270     YZ      -2.9023     ZZ    -444.0816

 Total job time:  97.85s(wall), 1069.24s(cpu)
        *  Thank you very much for using Q-Chem.  Have a nice day.  *
