 Q-Chem 4.4, Q-Chem, Inc., Pleasanton, CA (2016)
 Q-Chem 4.4.2 for Intel X86 Linux

User input:
--------------------------------------------------------------
$comment
SP
$end

$rem
MEM_STATIC 5000
MEM_TOTAL 20000
JOBTYPE SP
EXCHANGE B3LYP
BASIS 6-31g(d,p)
$end

$molecule
0 1
C          -3.082000    -19.429000      2.031000
C          -2.945000    -19.654000      0.586000
N          -2.855000    -18.261000      2.564000
C          -2.403000    -18.632000     -0.224000
C          -2.622000    -17.234000      1.789000
C          -2.374000    -17.362000      0.381000
C          -1.903000    -16.192000     -0.343000
C          -0.806000    -16.340000     -1.207000
C          -2.473000    -14.936000     -0.346000
N          -0.173000    -15.239000     -1.722000
N          -3.574000    -14.635000      0.425000
C          -1.879000    -13.808000     -0.831000
C          -0.678000    -13.961000     -1.587000
S          -3.848000    -13.033000      0.217000
N          -2.521000    -12.647000     -0.614000
C           0.141000    -12.787000     -1.899000
S          -0.164000    -11.054000     -1.468000
C           1.370000    -12.841000     -2.571000
C           1.516000    -10.648000     -1.932000
S           2.121000    -14.156000     -3.340000
C           2.181000    -11.768000     -2.389000
C           2.062000     -9.378000     -1.584000
C           3.625000    -13.302000     -3.366000
C           3.474000    -12.002000     -2.941000
N           3.271000     -9.058000     -1.921000
S           1.219000     -8.168000     -0.603000
C           3.527000     -7.785000     -1.407000
C           2.593000     -7.212000     -0.655000
C          -3.701000    -20.529000      2.906000
H          -3.215000    -20.619000      0.169000
H          -2.141000    -18.846000     -1.255000
H          -2.412000    -16.289000      2.287000
H          -0.257000    -17.257000     -1.416000
H           4.527000    -13.729000     -3.786000
H           4.227000    -11.232000     -3.067000
H           4.468000     -7.312000     -1.654000
H           2.508000     -6.223000     -0.224000
H          -2.914000    -21.147000      3.357000
C          -4.913000    -21.289000      2.326000
H          -4.069000    -20.063000      3.829000
H          -4.522000    -21.906000      1.508000
H          -5.589000    -20.610000      1.792000
C          -5.820000    -22.070000      3.344000
H          -5.117000    -22.725000      3.872000
C          -6.871000    -22.909000      2.554000
H          -6.288000    -21.437000      4.108000
H          -6.409000    -23.715000      1.970000
H          -7.435000    -22.250000      1.883000
C          -7.777000    -23.646000      3.546000
H          -7.215000    -24.294000      4.229000
C          -8.841000    -24.450000      2.740000
H          -8.416000    -22.942000      4.094000
H          -8.287000    -25.146000      2.098000
H          -9.422000    -23.705000      2.184000
H          -9.544000    -24.975000      3.399000
C           2.799000    -18.965000     -1.098000
C           2.026000    -19.090000      0.086000
N           2.448000    -19.596000     -2.199000
C           0.967000    -20.060000      0.041000
C           1.345000    -20.377000     -2.226000
C           0.539000    -20.688000     -1.127000
C          -0.636000    -21.593000     -1.281000
C          -1.330000    -21.766000     -2.495000
C          -1.248000    -22.318000     -0.193000
N          -2.401000    -22.397000     -2.681000
N          -0.774000    -22.225000      1.071000
C          -2.317000    -23.118000     -0.350000
C          -2.962000    -23.128000     -1.639000
S          -1.701000    -23.238000      1.994000
N          -2.730000    -23.806000      0.780000
C          -4.199000    -23.892000     -1.897000
S          -5.416000    -24.337000     -0.701000
C          -4.573000    -24.191000     -3.168000
C          -6.387000    -25.050000     -1.998000
S          -3.796000    -24.075000     -4.723000
C          -5.753000    -24.928000     -3.190000
C          -7.680000    -25.556000     -1.848000
C          -5.113000    -25.016000     -5.445000
C          -6.081000    -25.435000     -4.526000
N          -7.945000    -26.098000     -0.649000
S          -8.953000    -25.346000     -2.926000
C          -9.276000    -26.415000     -0.538000
C          -9.955000    -26.034000     -1.667000
C           4.148000    -18.245000     -1.020000
H           2.224000    -18.547000      1.005000
H           0.409000    -20.142000      0.970000
H           1.179000    -20.846000     -3.195000
H          -0.973000    -21.385000     -3.451000
H          -5.122000    -25.258000     -6.500000
H          -6.941000    -26.079000     -4.673000
H          -9.644000    -26.942000      0.332000
H         -11.036000    -26.005000     -1.717000
H           4.684000    -18.588000     -0.126000
C           3.738000    -16.774000     -0.935000
H           4.743000    -18.414000     -1.926000
H           3.121000    -16.598000     -0.046000
H           3.083000    -16.500000     -1.771000
C           4.958000    -15.800000     -1.071000
H           5.249000    -15.739000     -2.127000
C           6.208000    -16.212000     -0.195000
H           4.561000    -14.795000     -0.885000
H           6.527000    -17.242000     -0.397000
H           5.908000    -16.231000      0.860000
C           7.391000    -15.270000     -0.429000
H           8.295000    -15.673000      0.045000
C           7.088000    -13.829000      0.128000
H           7.701000    -15.216000     -1.480000
H           6.260000    -13.471000     -0.497000
H           8.030000    -13.269000      0.077000
H           6.757000    -13.945000      1.168000
$end

--------------------------------------------------------------

             Standard Nuclear Orientation (Angstroms)
    I     Atom           X                Y                Z
 ----------------------------------------------------------------
    1      C       1.6889629419    -1.3504548244     2.5621565898
    2      C       1.7550902835    -0.7641496917     1.2170571637
    3      N       0.6120267820    -1.9441336729     2.9952800506
    4      C       0.5818727674    -0.6980892464     0.4337662360
    5      C      -0.3904242139    -2.1357785140     2.1779629422
    6      C      -0.4657973260    -1.5235235708     0.8818862552
    7      C      -1.7187971003    -1.6167506384     0.1496176710
    8      C      -2.2392852381    -0.4493191847    -0.4317642167
    9      C      -2.4358192691    -2.7636180491    -0.1206032601
   10      N      -3.5202599901    -0.4263339374    -0.9182725550
   11      N      -2.0422288829    -3.9959539679     0.3523426048
   12      C      -3.7162703541    -2.7939573074    -0.5896123735
   13      C      -4.2879555606    -1.5672126639    -1.0430653526
   14      S      -3.2177043051    -5.0476512636    -0.0914302315
   15      N      -4.3077987980    -3.9995446545    -0.6514771334
   16      C      -5.7279007320    -1.4857696517    -1.3005647489
   17      S      -6.9752895567    -2.7905327335    -1.1466510700
   18      C      -6.3946494791    -0.3118419956    -1.6777662420
   19      C      -8.2696901946    -1.5616080065    -1.2762774713
   20      S      -5.7535247264     1.2004531166    -2.1096337506
   21      C      -7.7320630101    -0.3016911771    -1.4466904795
   22      C      -9.6158480152    -1.9120181805    -0.9645214254
   23      C      -7.3060797614     1.9348519144    -1.9041118077
   24      C      -8.2825703677     0.9932902585    -1.6731275144
   25      N     -10.5704331288    -1.0422319087    -1.0639653905
   26      S     -10.1122004103    -3.4915094188    -0.3352744723
   27      C     -11.7509941618    -1.6660862497    -0.6548903256
   28      C     -11.6766447169    -2.9107086394    -0.1949161231
   29      C       2.9718654906    -1.4507485044     3.4005408861
   30      H       2.6919368562    -0.3451074696     0.8638771595
   31      H       0.5808051327    -0.1192866849    -0.4840504423
   32      H      -1.2745956691    -2.6114108690     2.5988473691
   33      H      -1.7967749093     0.5455129477    -0.4102087714
   34      H      -7.4732384102     2.9923103763    -2.0658912487
   35      H      -9.3461193984     1.1996119680    -1.7187324649
   36      H     -12.6785290453    -1.1164124069    -0.7429624922
   37      H     -12.4331592844    -3.6294926042     0.0916886939
   38      H       3.0529311396    -0.5923134686     4.0796665371
   39      C       4.2645674105    -1.8561761646     2.6606124040
   40      H       2.8211947768    -2.2267571965     4.1618672588
   41      H       4.5301472891    -1.0041466014     2.0232687356
   42      H       4.0681991975    -2.6394893087     1.9182964045
   43      C       5.4501966220    -2.3970753843     3.5384765203
   44      H       5.6113679076    -1.6040104868     4.2781317677
   45      C       6.7113741774    -2.5792405320     2.6391050548
   46      H       5.2131288030    -3.3061461815     4.1048669641
   47      H       7.1000587673    -1.6234504483     2.2655737904
   48      H       6.4644647506    -3.2287493764     1.7906994938
   49      C       7.8593220064    -3.1372723751     3.4869760615
   50      H       8.0986234148    -2.4983589762     4.3453241871
   51      C       9.0984262244    -3.3452097299     2.5652761139
   52      H       7.6534341235    -4.1691262070     3.7986310779
   53      H       9.3427554950    -2.3625929423     2.1430635415
   54      H       8.7934287248    -4.0838161540     1.8148368588
   55      H       9.9471737255    -3.7770265364     3.1105071888
   56      C      -2.0958144560     3.8472210988     0.7589031285
   57      C      -1.5226391641     3.0106430632     1.7521892278
   58      N      -1.4095277767     4.1844160456    -0.3129518811
   59      C      -0.1267329018     2.7124401634     1.5880955436
   60      C      -0.1444763085     3.7424383730    -0.4907144188
   61      C       0.5984219695     3.0029423615     0.4341670858
   62      C       2.0026783453     2.6029927675     0.1317264254
   63      C       2.5002424795     2.4415437692    -1.1766027202
   64      C       2.9781235755     2.2493310597     1.1353912098
   65      N       3.6186696338     1.9811424067    -1.5185812078
   66      N       2.6719150164     2.2672847610     2.4533195018
   67      C       4.2359023186     1.8766986548     0.8412012642
   68      C       4.5690174128     1.6826935436    -0.5476984265
   69      S       4.0576604628     1.8616595292     3.2611590460
   70      N       5.0700495807     1.6510462143     1.9247566718
   71      C       5.8885996870     1.1808981701    -0.9805182790
   72      S       6.9763231364     0.1639218320    -0.0359830360
   73      C       6.3085232711     1.3580683585    -2.2599685156
   74      C       8.0734192902     0.0998416418    -1.4236763590
   75      S       5.7295766100     2.2934091000    -3.6109564729
   76      C       7.5806967540     0.8291894915    -2.4546856783
   77      C       9.2234111477    -0.6886195524    -1.5026236388
   78      C       7.2266993787     1.9388118855    -4.4908077279
   79      C       8.1446588097     1.1736922194    -3.7634231119
   80      N       9.8557026394    -0.8936722038    -0.3365400742
   81      S       9.7343569109    -1.5563257461    -2.8490015161
   82      C      10.8697804233    -1.8072030215    -0.4830961841
   83      C      10.9037238238    -2.2831550070    -1.7688490970
   84      C      -3.4473800256     4.5065659064     1.0466876590
   85      H      -2.0555108821     2.6444532748     2.6242940214
   86      H       0.2824140283     2.0858532507     2.3762050731
   87      H       0.3077779316     4.1055220442    -1.4127308774
   88      H       1.9563731081     2.7494536564    -2.0687594375
   89      H       7.4005377961     2.3228296149    -5.4877934791
   90      H       9.1562552571     0.8791923780    -4.0201086610
   91      H      11.5379183285    -2.0223163043     0.3399293412
   92      H      11.4865303555    -3.1489421934    -2.0563401308
   93      H      -3.4391960481     4.9049123306     2.0691524011
   94      C      -4.4294536829     3.3471517311     0.8721708927
   95      H      -3.6693009911     5.2955450913     0.3175203731
   96      H      -4.2014392019     2.5409187093     1.5792661558
   97      H      -4.3119627984     2.8778242592    -0.1121687927
   98      C      -5.9245989224     3.8157340889     0.8954794012
   99      H      -6.1699152870     4.2720180676    -0.0715587635
  100      C      -6.2616850107     4.8258994915     2.0640506779
  101      H      -6.5260154666     2.8991651189     0.8747559005
  102      H      -5.5961991192     5.6979737313     2.0551036930
  103      H      -6.0460327747     4.3395068832     3.0233745771
  104      C      -7.7124686673     5.3065697496     1.9879462465
  105      H      -7.8741794162     6.1340440679     2.6903968756
  106      C      -8.7160240696     4.1337591463     2.2976732931
  107      H      -7.9625449260     5.7806460242     1.0306946856
  108      H      -8.5643580850     3.4285969972     1.4705597746
  109      H      -9.7102091292     4.5883548328     2.3898895017
  110      H      -8.4032349489     3.6798362884     3.2467433669
 ----------------------------------------------------------------

   10   -5663.4855677090      4.04E-06 Convergence criterion met
 Total energy in the final basis set = -5663.4855677090

                    Orbital Energies (a.u.)
 --------------------------------------------------------------

 Alpha MOs
 -- Occupied --
-88.992 -88.986 -88.940 -88.929 -88.924 -88.917 -88.917 -88.905
-14.393 -14.383 -14.380 -14.375 -14.348 -14.343 -14.343 -14.341
-14.323 -14.321 -10.267 -10.263 -10.263 -10.258 -10.254 -10.252
-10.246 -10.245 -10.243 -10.240 -10.238 -10.236 -10.236 -10.235
-10.233 -10.233 -10.232 -10.232 -10.228 -10.226 -10.225 -10.223
-10.223 -10.222 -10.222 -10.220 -10.220 -10.214 -10.213 -10.213
-10.212 -10.211 -10.208 -10.204 -10.203 -10.202 -10.197 -10.194
-10.184 -10.182 -10.182 -10.180 -10.176 -10.175 -10.175 -10.174
-10.173 -10.173 -10.169 -10.167  -8.046  -8.041  -8.001  -7.987
 -7.983  -7.980  -7.977  -7.967  -6.011  -6.006  -6.006  -6.004
 -6.001  -5.999  -5.965  -5.962  -5.958  -5.952  -5.948  -5.947
 -5.944  -5.944  -5.943  -5.941  -5.940  -5.939  -5.938  -5.937
 -5.933  -5.931  -5.927  -5.923  -1.037  -1.027  -0.976  -0.976
 -0.971  -0.952  -0.940  -0.938  -0.920  -0.917  -0.897  -0.893
 -0.848  -0.847  -0.832  -0.831  -0.822  -0.820  -0.813  -0.807
 -0.803  -0.801  -0.796  -0.792  -0.780  -0.777  -0.767  -0.763
 -0.750  -0.748  -0.738  -0.737  -0.732  -0.726  -0.709  -0.708
 -0.691  -0.689  -0.681  -0.671  -0.655  -0.651  -0.646  -0.641
 -0.636  -0.632  -0.623  -0.621  -0.611  -0.609  -0.603  -0.598
 -0.593  -0.589  -0.587  -0.584  -0.581  -0.579  -0.570  -0.554
 -0.550  -0.549  -0.542  -0.537  -0.525  -0.523  -0.519  -0.516
 -0.508  -0.508  -0.496  -0.493  -0.485  -0.482  -0.480  -0.473
 -0.472  -0.469  -0.468  -0.466  -0.462  -0.452  -0.449  -0.447
 -0.446  -0.443  -0.442  -0.437  -0.436  -0.434  -0.433  -0.431
 -0.431  -0.424  -0.423  -0.422  -0.421  -0.419  -0.416  -0.414
 -0.412  -0.407  -0.404  -0.402  -0.401  -0.399  -0.398  -0.398
 -0.397  -0.396  -0.393  -0.392  -0.390  -0.386  -0.383  -0.382
 -0.379  -0.378  -0.374  -0.370  -0.365  -0.362  -0.358  -0.357
 -0.355  -0.354  -0.351  -0.350  -0.348  -0.345  -0.343  -0.338
 -0.338  -0.336  -0.334  -0.334  -0.325  -0.322  -0.320  -0.318
 -0.315  -0.309  -0.307  -0.305  -0.304  -0.302  -0.301  -0.298
 -0.296  -0.296  -0.293  -0.290  -0.288  -0.284  -0.283  -0.282
 -0.274  -0.268  -0.261  -0.258  -0.258  -0.251  -0.251  -0.245
 -0.244  -0.242  -0.231  -0.226  -0.195  -0.187

          Ground-State Mulliken Net Atomic Charges

     Atom                 Charge (a.u.)
  ----------------------------------------
      1 C                     0.268423
      2 C                    -0.122750
      3 N                    -0.453214
      4 C                    -0.066433
      5 C                     0.099434
      6 C                     0.020595
      7 C                    -0.001875
      8 C                     0.052732
      9 C                     0.216694
     10 N                    -0.517390
     11 N                    -0.538773
     12 C                     0.200204
     13 C                     0.288119
     14 S                     0.605122
     15 N                    -0.556748
     16 C                    -0.201875
     17 S                     0.320842
     18 C                    -0.140245
     19 C                    -0.244442
     20 S                     0.300820
     21 C                     0.170734
     22 C                     0.078161
     23 C                    -0.308007
     24 C                    -0.062332
     25 N                    -0.441901
     26 S                     0.259924
     27 C                     0.107744
     28 C                    -0.290118
     29 C                    -0.245816
     30 H                     0.082374
     31 H                     0.112720
     32 H                     0.106433
     33 H                     0.130972
     34 H                     0.133454
     35 H                     0.126479
     36 H                     0.104955
     37 H                     0.142652
     38 H                     0.103629
     39 C                    -0.194684
     40 H                     0.116247
     41 H                     0.103382
     42 H                     0.100892
     43 C                    -0.180876
     44 H                     0.089981
     45 C                    -0.174583
     46 H                     0.099721
     47 H                     0.120712
     48 H                     0.092048
     49 C                    -0.185039
     50 H                     0.094467
     51 C                    -0.329134
     52 H                     0.089687
     53 H                     0.118506
     54 H                     0.099199
     55 H                     0.089433
     56 C                     0.266308
     57 C                    -0.119370
     58 N                    -0.487165
     59 C                    -0.097218
     60 C                     0.045012
     61 C                     0.069507
     62 C                     0.058250
     63 C                     0.050750
     64 C                     0.224205
     65 N                    -0.490679
     66 N                    -0.564116
     67 C                     0.222360
     68 C                     0.236998
     69 S                     0.612047
     70 N                    -0.579430
     71 C                    -0.229034
     72 S                     0.380876
     73 C                    -0.095260
     74 C                    -0.202707
     75 S                     0.293388
     76 C                     0.123299
     77 C                     0.019336
     78 C                    -0.321027
     79 C                    -0.057208
     80 N                    -0.433756
     81 S                     0.299934
     82 C                     0.139008
     83 C                    -0.313964
     84 C                    -0.206059
     85 H                     0.097381
     86 H                     0.121752
     87 H                     0.098208
     88 H                     0.105477
     89 H                     0.133719
     90 H                     0.112200
     91 H                     0.127140
     92 H                     0.125672
     93 H                     0.110547
     94 C                    -0.209486
     95 H                     0.113274
     96 H                     0.096675
     97 H                     0.131241
     98 C                    -0.190457
     99 H                     0.084679
    100 C                    -0.170752
    101 H                     0.106672
    102 H                     0.092908
    103 H                     0.089381
    104 C                    -0.186851
    105 H                     0.082958
    106 C                    -0.312743
    107 H                     0.088426
    108 H                     0.114448
    109 H                     0.099138
    110 H                     0.102851
  ----------------------------------------
  Sum of atomic charges =     0.000000

                    Cartesian Multipole Moments
 -----------------------------------------------------------------
    Charge (ESU x 10^10)
                 0.0000
    Dipole Moment (Debye)
         X       2.2172      Y      -1.9802      Z      -0.7171
       Tot       3.0580
    Quadrupole Moments (Debye-Ang)
        XX    -371.4788     XY      -6.2018     YY    -437.9955
        XZ     -23.8091     YZ       3.3383     ZZ    -437.8608

 Total job time:  106.62s(wall), 1195.66s(cpu)
        *  Thank you very much for using Q-Chem.  Have a nice day.  *
