 Q-Chem 4.4, Q-Chem, Inc., Pleasanton, CA (2016)
 Q-Chem 4.4.2 for Intel X86 Linux

User input:
--------------------------------------------------------------
$comment
SP
$end

$rem
MEM_STATIC 5000
MEM_TOTAL 20000
JOBTYPE SP
EXCHANGE B3LYP
BASIS 6-31g(d,p)
$end

$molecule
0 1
C         -12.812000    -25.938000      4.066000
C         -12.214000    -26.816000      3.159000
N         -13.654000    -24.975000      3.625000
C         -12.420000    -26.747000      1.794000
C         -13.869000    -24.796000      2.338000
C         -13.228000    -25.636000      1.356000
C         -13.353000    -25.219000     -0.033000
C         -13.731000    -26.071000     -1.048000
C         -13.070000    -23.881000     -0.493000
N         -13.800000    -25.734000     -2.391000
N         -12.737000    -22.836000      0.309000
C         -13.170000    -23.555000     -1.828000
C         -13.602000    -24.507000     -2.763000
S         -12.440000    -21.575000     -0.701000
N         -13.000000    -22.258000     -2.107000
C         -13.705000    -24.380000     -4.246000
S         -14.868000    -25.058000     -5.320000
C         -12.714000    -23.751000     -4.961000
C         -14.150000    -24.196000     -6.719000
S         -11.179000    -23.268000     -4.405000
C         -12.978000    -23.637000     -6.287000
C         -14.550000    -24.395000     -8.053000
C         -10.798000    -23.028000     -6.080000
C         -11.785000    -23.221000     -6.993000
N         -15.350000    -25.432000     -8.260000
S         -13.909000    -23.517000     -9.473000
C         -15.556000    -25.569000     -9.622000
C         -14.866000    -24.651000    -10.331000
C         -12.499000    -26.126000      5.522000
H         -11.562000    -27.632000      3.459000
H         -11.949000    -27.425000      1.088000
H         -14.577000    -23.992000      2.145000
H         -13.841000    -27.133000     -0.831000
H          -9.740000    -23.024000     -6.309000
H         -11.808000    -22.930000     -8.037000
H         -16.094000    -26.425000    -10.009000
H         -15.079000    -24.455000    -11.373000
H         -13.452000    -26.229000      6.055000
C         -11.840000    -24.750000      5.941000
H         -11.751000    -26.899000      5.740000
H         -12.407000    -23.846000      5.684000
H         -10.880000    -24.689000      5.414000
C         -11.568000    -24.717000      7.471000
H         -11.243000    -25.721000      7.772000
C         -12.835000    -24.316000      8.270000
H         -10.685000    -24.102000      7.685000
H         -13.709000    -24.792000      7.807000
H         -13.106000    -23.267000      8.097000
C         -12.833000    -24.471000      9.861000
H         -12.192000    -23.676000     10.260000
C         -12.426000    -25.830000     10.385000
H         -13.845000    -24.254000     10.225000
H         -11.453000    -26.202000     10.040000
H         -13.218000    -26.551000     10.146000
H         -12.394000    -25.845000     11.481000
C           2.799000    -18.965000     -1.098000
C           2.026000    -19.090000      0.086000
N           2.448000    -19.596000     -2.199000
C           0.967000    -20.060000      0.041000
C           1.345000    -20.377000     -2.226000
C           0.539000    -20.688000     -1.127000
C          -0.636000    -21.593000     -1.281000
C          -1.330000    -21.766000     -2.495000
C          -1.248000    -22.318000     -0.193000
N          -2.401000    -22.397000     -2.681000
N          -0.774000    -22.225000      1.071000
C          -2.317000    -23.118000     -0.350000
C          -2.962000    -23.128000     -1.639000
S          -1.701000    -23.238000      1.994000
N          -2.730000    -23.806000      0.780000
C          -4.199000    -23.892000     -1.897000
S          -5.416000    -24.337000     -0.701000
C          -4.573000    -24.191000     -3.168000
C          -6.387000    -25.050000     -1.998000
S          -3.796000    -24.075000     -4.723000
C          -5.753000    -24.928000     -3.190000
C          -7.680000    -25.556000     -1.848000
C          -5.113000    -25.016000     -5.445000
C          -6.081000    -25.435000     -4.526000
N          -7.945000    -26.098000     -0.649000
S          -8.953000    -25.346000     -2.926000
C          -9.276000    -26.415000     -0.538000
C          -9.955000    -26.034000     -1.667000
C           4.148000    -18.245000     -1.020000
H           2.224000    -18.547000      1.005000
H           0.409000    -20.142000      0.970000
H           1.179000    -20.846000     -3.195000
H          -0.973000    -21.385000     -3.451000
H          -5.122000    -25.258000     -6.500000
H          -6.941000    -26.079000     -4.673000
H          -9.644000    -26.942000      0.332000
H         -11.036000    -26.005000     -1.717000
H           4.684000    -18.588000     -0.126000
C           3.738000    -16.774000     -0.935000
H           4.743000    -18.414000     -1.926000
H           3.121000    -16.598000     -0.046000
H           3.083000    -16.500000     -1.771000
C           4.958000    -15.800000     -1.071000
H           5.249000    -15.739000     -2.127000
C           6.208000    -16.212000     -0.195000
H           4.561000    -14.795000     -0.885000
H           6.527000    -17.242000     -0.397000
H           5.908000    -16.231000      0.860000
C           7.391000    -15.270000     -0.429000
H           8.295000    -15.673000      0.045000
C           7.088000    -13.829000      0.128000
H           7.701000    -15.216000     -1.480000
H           6.260000    -13.471000     -0.497000
H           8.030000    -13.269000      0.077000
H           6.757000    -13.945000      1.168000
$end

--------------------------------------------------------------

             Standard Nuclear Orientation (Angstroms)
    I     Atom           X                Y                Z
 ----------------------------------------------------------------
    1      C      -5.4328268982     5.9568632102     0.3201670063
    2      C      -5.2496167027     5.1057761252     1.4125139283
    3      N      -5.9301873250     5.4736563907    -0.8417098268
    4      C      -5.5350954375     3.7539961366     1.3723299223
    5      C      -6.1799382628     4.1894213442    -0.9933667234
    6      C      -5.9498943885     3.2577795044     0.0836329508
    7      C      -6.0428979049     1.8444857455    -0.2522034632
    8      C      -6.7737266514     0.9378817328     0.4846625405
    9      C      -5.3607728003     1.2440783104    -1.3729841079
   10      N      -6.8376736651    -0.4251868972     0.2398489592
   11      N      -4.6243746894     1.9230991966    -2.2910072331
   12      C      -5.4568123387    -0.1082664736    -1.6188316057
   13      C      -6.2654926234    -0.9228275534    -0.8128046556
   14      S      -4.0022074999     0.7826060482    -3.2962999103
   15      N      -4.8790566859    -0.5185858928    -2.7531976753
   16      C      -6.4448047257    -2.4031433575    -0.8631960250
   17      S      -7.8562155431    -3.3412897771    -0.5573696035
   18      C      -5.3633678389    -3.2288384758    -1.0572806244
   19      C      -7.0090978744    -4.8538185810    -1.0160822289
   20      S      -3.7142821748    -2.8076490314    -1.0152577206
   21      C      -5.6844790690    -4.5429167699    -1.1624177482
   22      C      -7.5649606907    -6.1384622086    -0.8751415333
   23      C      -3.4182806741    -4.5164860792    -0.9898597771
   24      C      -4.4858114828    -5.3506129276    -1.0878259613
   25      N      -8.6851956882    -6.2008953559    -0.1684636346
   26      S      -6.7862593931    -7.6691031529    -1.3740679692
   27      C      -9.0406761548    -7.5300681586    -0.0162062919
   28      C      -8.1419556884    -8.3605863094    -0.5854567854
   29      C      -5.0800179825     7.4044716956     0.5023881411
   30      H      -4.8919951056     5.4454099199     2.3808711345
   31      H      -5.3854654371     3.0906939545     2.2194438923
   32      H      -6.5849734377     3.9603932259    -1.9774508805
   33      H      -7.2204396898     1.2608531518     1.4244337488
   34      H      -2.4459207204    -4.8033321919    -0.6103121146
   35      H      -4.4969384648    -6.4146836534    -1.2946487858
   36      H      -9.8692176551    -7.8032229173     0.6247730058
   37      H      -8.3631875719    -9.4030477980    -0.7695206289
   38      H      -5.9619733830     7.9970519414     0.2305236092
   39      C      -3.9581272546     7.6531590533    -0.5851475102
   40      H      -4.6248353517     7.6531684083     1.4696087559
   41      H      -4.2025013066     7.3431499936    -1.6093202035
   42      H      -3.0834322292     7.0701540438    -0.2719961547
   43      C      -3.5620318872     9.1555423476    -0.6290325528
   44      H      -3.5745755107     9.5322736800     0.4015780239
   45      C      -4.5434223675     9.9819527490    -1.4998996917
   46      H      -2.5074224966     9.2605186633    -0.9127383974
   47      H      -5.5633888261     9.6157532680    -1.3255799756
   48      H      -4.4540849635     9.7251485763    -2.5628396924
   49      C      -4.4590238944    11.5778960586    -1.4659607684
   50      H      -3.5538385133    11.8630584838    -2.0149861021
   51      C      -4.4968977621    12.2055245837    -0.0905502826
   52      H      -5.3014584448    11.9753042714    -2.0457018664
   53      H      -3.7422208485    11.8439369520     0.6192772603
   54      H      -5.5045934819    12.0807365555     0.3256267043
   55      H      -4.3787893067    13.2944827954    -0.1423711849
   56      C      11.1206707990    -0.7084616065    -0.4201741818
   57      C      10.4551235670     0.5232260792    -0.6546999302
   58      N      10.4831735077    -1.7230973508     0.1254213734
   59      C       9.1290531487     0.6298307006    -0.1119488819
   60      C       9.1819018414    -1.6141605420     0.4748835633
   61      C       8.4147913267    -0.4473978771     0.4088203962
   62      C       6.9930164327    -0.4488665995     0.8581754827
   63      C       6.1809944762    -1.6003627633     0.8643339546
   64      C       6.2653934471     0.7356113557     1.2473923432
   65      N       4.9473083030    -1.6655261132     1.0957862472
   66      N       6.8484254346     1.9566637839     1.2361821201
   67      C       4.9784094136     0.7152602356     1.6355520133
   68      C       4.2614699302    -0.5290331761     1.5115452283
   69      S       5.7136399792     3.0221119238     1.7969933463
   70      N       4.4532801544     1.9268852592     2.0562859710
   71      C       2.8208900634    -0.6438505874     1.8148200365
   72      S       1.6315610548     0.6549524690     1.7246139943
   73      C       2.2606238011    -1.8577983914     2.0538816279
   74      C       0.3689841044    -0.5121803529     2.1454695754
   75      S       2.8952752850    -3.4575864464     2.3242622362
   76      C       0.9026977853    -1.7437999823     2.3351187133
   77      C      -1.0013106822    -0.2429522685     2.1593777222
   78      C       1.2799491761    -4.0122578223     2.7978815207
   79      C       0.3090255618    -3.0050942179     2.7892322918
   80      N      -1.3322191602     1.0151080766     2.4900947421
   81      S      -2.2131866417    -1.2635535429     1.5968453254
   82      C      -2.6769486207     1.2296824857     2.3167987493
   83      C      -3.2787509201     0.1090536475     1.8040922061
   84      C      12.6357794822    -0.7745847793    -0.6307885313
   85      H      10.9038842933     1.3738688591    -1.1583214862
   86      H       8.6577510903     1.5920166826    -0.2941616854
   87      H       8.7840821193    -2.5233283900     0.9239172957
   88      H       6.5638008745    -2.6066866315     0.6990537868
   89      H       1.0992111860    -5.0372617065     3.0951538140
   90      H      -0.7282406403    -3.0419963480     3.1033374633
   91      H      -3.1271652042     2.1650526675     2.6208392909
   92      H      -4.2851304218     0.1167386401     1.4052899501
   93      H      13.0966696581     0.1168143234    -0.1867514997
   94      C      12.7608668905    -0.8074341797    -2.1547439300
   95      H      13.0580731600    -1.6920570750    -0.2026125905
   96      H      12.3189178835     0.0936989991    -2.5959083769
   97      H      12.1699737224    -1.6279930595    -2.5796267240
   98      C      14.2236246260    -1.1032723796    -2.6326472328
   99      H      14.4269960346    -2.1748276104    -2.5145478780
  100      C      15.3278859352    -0.2629139556    -1.8750030682
  101      H      14.2105462961    -0.9920660513    -3.7233773139
  102      H      15.2580540012    -0.3833012646    -0.7868415927
  103      H      15.1303280184     0.8041467888    -2.0354344783
  104      C      16.7367516298    -0.6510467640    -2.3289407045
  105      H      17.4859536494    -0.1918416990    -1.6715762379
  106      C      16.9919449555    -0.2178724404    -3.8208439762
  107      H      16.9559486503    -1.7180227163    -2.1980515016
  108      H      16.2856958790    -0.8270969508    -4.3991438447
  109      H      18.0604805584    -0.3743211558    -4.0140290290
  110      H      16.7310066801     0.8452457218    -3.9002668300
 ----------------------------------------------------------------

   10   -5663.4686943943      5.08E-06 Convergence criterion met
 Total energy in the final basis set = -5663.4686943943

                    Orbital Energies (a.u.)
 --------------------------------------------------------------

 Alpha MOs
 -- Occupied --
-88.993 -88.988 -88.935 -88.931 -88.926 -88.922 -88.915 -88.914
-14.390 -14.390 -14.389 -14.381 -14.352 -14.344 -14.340 -14.338
-14.332 -14.320 -10.265 -10.263 -10.263 -10.263 -10.258 -10.258
-10.251 -10.249 -10.241 -10.237 -10.237 -10.235 -10.234 -10.233
-10.233 -10.231 -10.231 -10.230 -10.229 -10.228 -10.228 -10.225
-10.225 -10.224 -10.224 -10.224 -10.223 -10.221 -10.220 -10.219
-10.211 -10.211 -10.207 -10.205 -10.203 -10.203 -10.202 -10.196
-10.195 -10.183 -10.182 -10.182 -10.181 -10.180 -10.179 -10.179
-10.179 -10.177 -10.173 -10.171  -8.048  -8.043  -7.996  -7.992
 -7.984  -7.981  -7.976  -7.975  -6.013  -6.008  -6.008  -6.006
 -6.003  -6.001  -5.960  -5.957  -5.956  -5.953  -5.953  -5.949
 -5.949  -5.945  -5.945  -5.942  -5.941  -5.940  -5.939  -5.938
 -5.937  -5.935  -5.932  -5.931  -1.041  -1.024  -0.972  -0.971
 -0.968  -0.967  -0.948  -0.937  -0.926  -0.917  -0.907  -0.890
 -0.856  -0.845  -0.842  -0.828  -0.817  -0.812  -0.811  -0.810
 -0.809  -0.804  -0.804  -0.795  -0.787  -0.779  -0.773  -0.764
 -0.753  -0.748  -0.747  -0.737  -0.729  -0.728  -0.715  -0.708
 -0.695  -0.690  -0.679  -0.677  -0.662  -0.656  -0.650  -0.645
 -0.642  -0.634  -0.633  -0.618  -0.617  -0.608  -0.600  -0.600
 -0.597  -0.595  -0.590  -0.587  -0.584  -0.582  -0.561  -0.558
 -0.553  -0.546  -0.544  -0.538  -0.529  -0.523  -0.521  -0.517
 -0.516  -0.507  -0.507  -0.494  -0.492  -0.487  -0.484  -0.478
 -0.473  -0.472  -0.469  -0.464  -0.454  -0.452  -0.451  -0.449
 -0.446  -0.445  -0.443  -0.442  -0.438  -0.438  -0.435  -0.433
 -0.432  -0.429  -0.427  -0.426  -0.422  -0.419  -0.418  -0.414
 -0.413  -0.412  -0.407  -0.406  -0.402  -0.401  -0.399  -0.399
 -0.397  -0.396  -0.394  -0.393  -0.390  -0.388  -0.387  -0.386
 -0.382  -0.382  -0.379  -0.377  -0.371  -0.370  -0.361  -0.359
 -0.358  -0.356  -0.353  -0.349  -0.348  -0.347  -0.346  -0.344
 -0.342  -0.338  -0.335  -0.333  -0.332  -0.324  -0.323  -0.319
 -0.316  -0.310  -0.308  -0.307  -0.306  -0.305  -0.305  -0.301
 -0.300  -0.299  -0.295  -0.294  -0.292  -0.287  -0.282  -0.279
 -0.279  -0.273  -0.270  -0.260  -0.255  -0.254  -0.250  -0.249
 -0.245  -0.241  -0.239  -0.228  -0.195  -0.192

          Ground-State Mulliken Net Atomic Charges

     Atom                 Charge (a.u.)
  ----------------------------------------
      1 C                     0.295978
      2 C                    -0.129110
      3 N                    -0.479003
      4 C                    -0.053654
      5 C                     0.111277
      6 C                    -0.014336
      7 C                     0.060183
      8 C                     0.008928
      9 C                     0.224164
     10 N                    -0.469824
     11 N                    -0.548506
     12 C                     0.204431
     13 C                     0.238132
     14 S                     0.605584
     15 N                    -0.539682
     16 C                    -0.184265
     17 S                     0.345816
     18 C                    -0.114511
     19 C                    -0.220749
     20 S                     0.275728
     21 C                     0.125331
     22 C                     0.064955
     23 C                    -0.303359
     24 C                    -0.069944
     25 N                    -0.438910
     26 S                     0.268653
     27 C                     0.123380
     28 C                    -0.301964
     29 C                    -0.222377
     30 H                     0.086867
     31 H                     0.104822
     32 H                     0.116830
     33 H                     0.110482
     34 H                     0.128759
     35 H                     0.113496
     36 H                     0.118938
     37 H                     0.121776
     38 H                     0.125981
     39 C                    -0.191145
     40 H                     0.109337
     41 H                     0.125660
     42 H                     0.092385
     43 C                    -0.177649
     44 H                     0.087178
     45 C                    -0.180422
     46 H                     0.088027
     47 H                     0.091238
     48 H                     0.091584
     49 C                    -0.179640
     50 H                     0.094680
     51 C                    -0.312329
     52 H                     0.094034
     53 H                     0.103992
     54 H                     0.100826
     55 H                     0.098144
     56 C                     0.263557
     57 C                    -0.117146
     58 N                    -0.488529
     59 C                    -0.093322
     60 C                     0.048793
     61 C                     0.078499
     62 C                     0.052536
     63 C                     0.062358
     64 C                     0.231127
     65 N                    -0.493768
     66 N                    -0.567052
     67 C                     0.225570
     68 C                     0.243806
     69 S                     0.598537
     70 N                    -0.575595
     71 C                    -0.217877
     72 S                     0.357452
     73 C                    -0.094433
     74 C                    -0.190338
     75 S                     0.291417
     76 C                     0.117361
     77 C                     0.008011
     78 C                    -0.322442
     79 C                    -0.061190
     80 N                    -0.434856
     81 S                     0.318124
     82 C                     0.135328
     83 C                    -0.320648
     84 C                    -0.206125
     85 H                     0.091876
     86 H                     0.110820
     87 H                     0.097383
     88 H                     0.103162
     89 H                     0.131842
     90 H                     0.114072
     91 H                     0.113128
     92 H                     0.121069
     93 H                     0.111743
     94 C                    -0.197421
     95 H                     0.115877
     96 H                     0.096081
     97 H                     0.107728
     98 C                    -0.187819
     99 H                     0.096053
    100 C                    -0.168604
    101 H                     0.092172
    102 H                     0.095105
    103 H                     0.088907
    104 C                    -0.188043
    105 H                     0.084403
    106 C                    -0.311642
    107 H                     0.092477
    108 H                     0.110037
    109 H                     0.101453
    110 H                     0.102795
  ----------------------------------------
  Sum of atomic charges =     0.000000

                    Cartesian Multipole Moments
 -----------------------------------------------------------------
    Charge (ESU x 10^10)
                 0.0000
    Dipole Moment (Debye)
         X      -0.6265      Y       0.1640      Z      -0.0940
       Tot       0.6544
    Quadrupole Moments (Debye-Ang)
        XX    -459.8755     XY      22.1112     YY    -402.5847
        XZ     -14.6097     YZ       4.4707     ZZ    -447.6814

 Total job time:  98.70s(wall), 1064.26s(cpu)
        *  Thank you very much for using Q-Chem.  Have a nice day.  *
