 Q-Chem 4.4, Q-Chem, Inc., Pleasanton, CA (2016)
 Q-Chem 4.4.2 for Intel X86 Linux

User input:
--------------------------------------------------------------
$comment
SP
$end

$rem
MEM_STATIC 5000
MEM_TOTAL 20000
JOBTYPE SP
EXCHANGE B3LYP
BASIS 6-31g(d,p)
$end

$molecule
0 1
C           2.851000    -30.692000     -0.724000
C           2.110000    -30.274000      0.352000
N           3.962000    -30.042000     -1.126000
C           2.444000    -29.064000      1.036000
C           4.302000    -28.899000     -0.477000
C           3.624000    -28.342000      0.656000
C           3.984000    -27.010000      1.217000
C           2.924000    -26.217000      1.783000
C           5.299000    -26.459000      1.386000
N           3.115000    -24.906000      2.179000
N           6.436000    -27.106000      1.052000
C           5.492000    -25.212000      1.983000
C           4.381000    -24.419000      2.336000
S           7.659000    -26.150000      1.574000
N           6.778000    -24.812000      2.005000
C           4.596000    -23.017000      2.808000
S           6.201000    -22.145000      3.124000
C           3.631000    -22.241000      3.357000
C           5.387000    -20.753000      3.842000
S           1.855000    -22.408000      3.197000
C           4.037000    -20.983000      3.772000
C           6.164000    -19.698000      4.497000
C           1.671000    -20.819000      3.902000
C           2.896000    -20.204000      4.127000
N           5.627000    -19.158000      5.555000
S           7.739000    -19.155000      3.931000
C           6.448000    -18.155000      5.942000
C           7.602000    -18.025000      5.245000
C           2.540000    -31.963000     -1.364000
H           1.324000    -30.856000      0.825000
H           1.898000    -28.607000      1.855000
H           5.217000    -28.445000     -0.856000
H           1.941000    -26.667000      1.918000
H           0.739000    -20.418000      4.277000
H           2.979000    -19.220000      4.574000
H           6.131000    -17.407000      6.657000
H           8.357000    -17.306000      5.536000
H           1.466000    -32.165000     -1.266000
C           3.371000    -33.203000     -0.751000
H           2.615000    -31.917000     -2.458000
H           3.130000    -33.157000      0.319000
H           4.465000    -33.245000     -0.819000
C           2.790000    -34.532000     -1.169000
H           1.700000    -34.479000     -1.065000
C           3.409000    -35.751000     -0.429000
H           3.006000    -34.670000     -2.236000
H           3.269000    -35.673000      0.656000
H           4.487000    -35.873000     -0.595000
C           2.701000    -37.011000     -0.945000
H           1.625000    -36.797000     -0.949000
C           3.074000    -38.312000     -0.150000
H           2.882000    -37.218000     -2.007000
H           4.150000    -38.395000      0.047000
H           2.742000    -39.067000     -0.873000
H           2.502000    -38.345000      0.785000
C           2.799000    -18.965000     -1.098000
C           2.026000    -19.090000      0.086000
N           2.448000    -19.596000     -2.199000
C           0.967000    -20.060000      0.041000
C           1.345000    -20.377000     -2.226000
C           0.539000    -20.688000     -1.127000
C          -0.636000    -21.593000     -1.281000
C          -1.330000    -21.766000     -2.495000
C          -1.248000    -22.318000     -0.193000
N          -2.401000    -22.397000     -2.681000
N          -0.774000    -22.225000      1.071000
C          -2.317000    -23.118000     -0.350000
C          -2.962000    -23.128000     -1.639000
S          -1.701000    -23.238000      1.994000
N          -2.730000    -23.806000      0.780000
C          -4.199000    -23.892000     -1.897000
S          -5.416000    -24.337000     -0.701000
C          -4.573000    -24.191000     -3.168000
C          -6.387000    -25.050000     -1.998000
S          -3.796000    -24.075000     -4.723000
C          -5.753000    -24.928000     -3.190000
C          -7.680000    -25.556000     -1.848000
C          -5.113000    -25.016000     -5.445000
C          -6.081000    -25.435000     -4.526000
N          -7.945000    -26.098000     -0.649000
S          -8.953000    -25.346000     -2.926000
C          -9.276000    -26.415000     -0.538000
C          -9.955000    -26.034000     -1.667000
C           4.148000    -18.245000     -1.020000
H           2.224000    -18.547000      1.005000
H           0.409000    -20.142000      0.970000
H           1.179000    -20.846000     -3.195000
H          -0.973000    -21.385000     -3.451000
H          -5.122000    -25.258000     -6.500000
H          -6.941000    -26.079000     -4.673000
H          -9.644000    -26.942000      0.332000
H         -11.036000    -26.005000     -1.717000
H           4.684000    -18.588000     -0.126000
C           3.738000    -16.774000     -0.935000
H           4.743000    -18.414000     -1.926000
H           3.121000    -16.598000     -0.046000
H           3.083000    -16.500000     -1.771000
C           4.958000    -15.800000     -1.071000
H           5.249000    -15.739000     -2.127000
C           6.208000    -16.212000     -0.195000
H           4.561000    -14.795000     -0.885000
H           6.527000    -17.242000     -0.397000
H           5.908000    -16.231000      0.860000
C           7.391000    -15.270000     -0.429000
H           8.295000    -15.673000      0.045000
C           7.088000    -13.829000      0.128000
H           7.701000    -15.216000     -1.480000
H           6.260000    -13.471000     -0.497000
H           8.030000    -13.269000      0.077000
H           6.757000    -13.945000      1.168000
$end

--------------------------------------------------------------

             Standard Nuclear Orientation (Angstroms)
    I     Atom           X                Y                Z
 ----------------------------------------------------------------
    1      C       3.7485272004     5.7890732195    -1.0398619216
    2      C       3.6537098570     5.2035340462     0.1969624588
    3      N       2.6758262599     5.9520979658    -1.8405869833
    4      C       2.4124253685     4.6547081700     0.6458666535
    5      C       1.4857700539     5.4500540542    -1.4222950550
    6      C       1.2379907389     4.8133417343    -0.1626026985
    7      C      -0.0664695295     4.1680373326     0.1544314278
    8      C      -0.0452348761     3.0029353814     0.9999440136
    9      C      -1.3802727380     4.6438117741    -0.1756394887
   10      N      -1.1719104693     2.2326869733     1.2220644712
   11      N      -1.6204286862     5.7946071894    -0.8396643624
   12      C      -2.5247928819     3.9600138287     0.2380766095
   13      C      -2.4059034090     2.7217696822     0.9016997908
   14      S      -3.2478207432     5.9781825021    -0.8330162517
   15      N      -3.6740882288     4.5008682319    -0.2101161172
   16      C      -3.6324323654     1.9141497799     1.1809663531
   17      S      -5.4022781345     2.3681594607     0.8682585612
   18      C      -3.6593561137     0.8198793196     1.9788693995
   19      C      -5.9951948950     0.9483949800     1.7334189709
   20      S      -2.2924470928    -0.2361946171     2.4520845394
   21      C      -4.9022677075     0.2314954326     2.1479852523
   22      C      -7.4250995096     0.7952825928     2.0121812171
   23      C      -3.4420632532    -1.3962510040     3.0753452094
   24      C      -4.7541775231    -1.0154433084     2.8247127260
   25      N      -7.7351643837     0.2482395704     3.1540816968
   26      S      -8.6929922602     1.3067112662     0.9046078854
   27      C      -9.0808507819     0.1115110493     3.1699697128
   28      C      -9.7466272444     0.6309095534     2.1110117834
   29      C       5.0020967673     6.4061369851    -1.4516357068
   30      H       4.4388135270     5.2139703413     0.9477968687
   31      H       2.2348419006     4.1181170132     1.5722899058
   32      H       0.6710552918     5.6353677875    -2.1214950811
   33      H       0.8851751630     2.7246816324     1.4938326754
   34      H      -3.1883397348    -2.2249326773     3.7226172237
   35      H      -5.6030736157    -1.6044059686     3.1525120683
   36      H      -9.5786561502    -0.5114573659     3.9016241181
   37      H     -10.8284808862     0.6431790957     2.0777077904
   38      H       5.8389035491     5.8788178337    -0.9766905284
   39      C       5.0879138864     7.9754369626    -1.0857627746
   40      H       5.2437042529     6.2145301304    -2.5049588463
   41      H       4.9045344230     7.9871356709    -0.0034817978
   42      H       4.3923703066     8.7016017535    -1.5240866560
   43      C       6.4983418601     8.5024587394    -1.1928467495
   44      H       7.1731400855     7.7775404680    -0.7228830757
   45      C       6.6766596285     9.9429879506    -0.6362496195
   46      H       6.7595672749     8.5431103382    -2.2578808946
   47      H       6.3987000440     9.9992334406     0.4232237942
   48      H       6.0746535551    10.6994293985    -1.1557773121
   49      C       8.1561124597    10.3183851575    -0.7956743897
   50      H       8.7452885584     9.4632391496    -0.4418597068
   51      C       8.5404531293    11.6706623946    -0.0975458029
   52      H       8.4859579361    10.3883019646    -1.8395937361
   53      H       7.8063064316    12.4654049509    -0.2788932470
   54      H       9.4865894383    11.8773115621    -0.6124246298
   55      H       8.6750550455    11.5010828178     0.9774533093
   56      C      -3.9747297463    -2.9781277116    -2.1134535426
   57      C      -3.7153520691    -3.1628929850    -0.7301260274
   58      N      -2.9871176132    -2.9466087027    -2.9836212429
   59      C      -2.3311097120    -3.1401093542    -0.3457303939
   60      C      -1.7051060187    -3.0885261898    -2.5791404667
   61      C      -1.2733465499    -3.1732608566    -1.2522788321
   62      C       0.1783781003    -3.2941014309    -0.9340664884
   63      C       1.1252814667    -3.8441777078    -1.8207181135
   64      C       0.7592928108    -2.9495334551     0.3417563869
   65      N       2.3318931737    -4.1061594312    -1.5856611730
   66      N       0.0008707293    -2.4733036417     1.3561636578
   67      C       2.0693745413    -3.0799108524     0.6139651185
   68      C       2.8957592126    -3.7328243138    -0.3701275534
   69      S       1.0380041033    -2.1509190486     2.6043020870
   70      N       2.4777385360    -2.6259836583     1.8581523835
   71      C       4.3257736266    -4.0175456101    -0.1368432651
   72      S       5.0982181624    -4.2509789231     1.4310752045
   73      C       5.1565060488    -4.2782041306    -1.1792725329
   74      C       6.6203579602    -4.5970357261     0.5963572132
   75      S       5.0101435911    -4.1541151471    -2.9108584982
   76      C       6.4598677133    -4.5015119196    -0.7463348897
   77      C       7.7946859844    -5.0317020904     1.2147453142
   78      C       6.7505177774    -4.4472900787    -3.0733397311
   79      C       7.4181174190    -4.5909961764    -1.8523543602
   80      N       7.9840494453    -4.5768523467     2.4632817335
   81      S       8.8380460090    -6.2137670409     0.6309342901
   82      C       9.0689206882    -5.1830784939     3.0463042414
   83      C       9.6087409537    -6.1166857642     2.1990648740
   84      C      -5.3981482302    -2.6223448015    -2.5511558848
   85      H      -4.4860726069    -3.2627107844     0.0279242740
   86      H      -2.1713720466    -3.2655621760     0.7219186438
   87      H      -0.9910155453    -3.0320886659    -3.3997302556
   88      H       0.9095523822    -4.0747645199    -2.8632327101
   89      H       7.2309645224    -4.4731520037    -4.0429644452
   90      H       8.4784580060    -4.6994821066    -1.6527205888
   91      H       9.4155277012    -4.8679619658     4.0213007298
   92      H      10.3390586974    -6.8470710714     2.5232180728
   93      H      -5.7967553687    -1.8536325328    -1.8770825971
   94      C      -6.1316017725    -3.9583172904    -2.4231347530
   95      H      -5.4214143853    -2.2831932688    -3.5941596834
   96      H      -6.0930481120    -4.3200802049    -1.3889069208
   97      H      -5.6229320640    -4.7421350571    -2.9974881600
   98      C      -7.5744781705    -3.9139777084    -3.0328180328
   99      H      -7.5010346348    -3.9697260053    -4.1259951340
  100      C      -8.4069250573    -2.6356394046    -2.6174827925
  101      H      -8.0339328646    -4.8782569975    -2.7852360530
  102      H      -7.8729299607    -1.7063826166    -2.8515683722
  103      H      -8.5021369896    -2.6169302665    -1.5247931494
  104      C      -9.7741951704    -2.6100717264    -3.3041615613
  105      H     -10.2585673537    -1.6380416718    -3.1465475992
  106      C     -10.6998280585    -3.7656938476    -2.7691099099
  107      H      -9.7104512731    -2.6474113582    -4.3987662696
  108      H     -10.1922863697    -4.6837550610    -3.0915041445
  109      H     -11.7010116549    -3.5794028641    -3.1771443151
  110      H     -10.7044371971    -3.6982155182    -1.6736454281
 ----------------------------------------------------------------

   10   -5663.4952676372      4.17E-06 Convergence criterion met
 Total energy in the final basis set = -5663.4952676372

                    Orbital Energies (a.u.)
 --------------------------------------------------------------

 Alpha MOs
 -- Occupied --
-88.987 -88.986 -88.936 -88.935 -88.924 -88.921 -88.913 -88.904
-14.387 -14.387 -14.383 -14.378 -14.356 -14.347 -14.342 -14.338
-14.326 -14.316 -10.273 -10.266 -10.261 -10.259 -10.258 -10.252
-10.249 -10.248 -10.247 -10.243 -10.241 -10.235 -10.231 -10.231
-10.230 -10.230 -10.229 -10.228 -10.226 -10.226 -10.225 -10.225
-10.223 -10.222 -10.220 -10.219 -10.219 -10.218 -10.216 -10.216
-10.209 -10.207 -10.205 -10.203 -10.199 -10.198 -10.194 -10.191
-10.185 -10.182 -10.179 -10.179 -10.178 -10.178 -10.177 -10.176
-10.176 -10.175 -10.173 -10.172  -8.042  -8.040  -7.998  -7.996
 -7.982  -7.979  -7.972  -7.963  -6.008  -6.005  -6.002  -6.000
 -6.000  -5.998  -5.961  -5.960  -5.958  -5.957  -5.955  -5.953
 -5.947  -5.944  -5.943  -5.940  -5.939  -5.937  -5.936  -5.933
 -5.928  -5.928  -5.924  -5.919  -1.034  -1.021  -0.985  -0.972
 -0.964  -0.946  -0.933  -0.932  -0.915  -0.909  -0.901  -0.887
 -0.843  -0.837  -0.828  -0.825  -0.817  -0.817  -0.808  -0.806
 -0.804  -0.802  -0.792  -0.791  -0.785  -0.776  -0.763  -0.762
 -0.749  -0.746  -0.738  -0.735  -0.727  -0.723  -0.706  -0.705
 -0.689  -0.687  -0.676  -0.672  -0.656  -0.654  -0.646  -0.643
 -0.636  -0.630  -0.624  -0.615  -0.611  -0.606  -0.599  -0.595
 -0.591  -0.588  -0.585  -0.581  -0.579  -0.577  -0.576  -0.556
 -0.552  -0.544  -0.536  -0.536  -0.523  -0.520  -0.516  -0.514
 -0.503  -0.502  -0.495  -0.491  -0.485  -0.481  -0.474  -0.472
 -0.470  -0.470  -0.466  -0.462  -0.462  -0.449  -0.449  -0.444
 -0.443  -0.441  -0.436  -0.436  -0.436  -0.435  -0.433  -0.432
 -0.428  -0.427  -0.426  -0.421  -0.419  -0.416  -0.412  -0.411
 -0.408  -0.404  -0.403  -0.400  -0.398  -0.398  -0.396  -0.395
 -0.394  -0.394  -0.391  -0.390  -0.388  -0.384  -0.382  -0.382
 -0.380  -0.378  -0.377  -0.373  -0.360  -0.359  -0.357  -0.356
 -0.351  -0.350  -0.348  -0.346  -0.344  -0.344  -0.343  -0.339
 -0.336  -0.335  -0.333  -0.330  -0.326  -0.322  -0.321  -0.319
 -0.315  -0.311  -0.307  -0.304  -0.303  -0.302  -0.300  -0.298
 -0.297  -0.296  -0.294  -0.294  -0.293  -0.280  -0.279  -0.278
 -0.271  -0.268  -0.264  -0.256  -0.254  -0.252  -0.250  -0.247
 -0.247  -0.237  -0.228  -0.225  -0.194  -0.190

          Ground-State Mulliken Net Atomic Charges

     Atom                 Charge (a.u.)
  ----------------------------------------
      1 C                     0.283101
      2 C                    -0.114693
      3 N                    -0.475520
      4 C                    -0.089867
      5 C                     0.068987
      6 C                     0.046611
      7 C                     0.036664
      8 C                     0.060504
      9 C                     0.225825
     10 N                    -0.534759
     11 N                    -0.547557
     12 C                     0.227517
     13 C                     0.305596
     14 S                     0.600399
     15 N                    -0.569544
     16 C                    -0.214009
     17 S                     0.305248
     18 C                    -0.147218
     19 C                    -0.253163
     20 S                     0.307894
     21 C                     0.199727
     22 C                     0.049624
     23 C                    -0.317973
     24 C                    -0.069804
     25 N                    -0.401803
     26 S                     0.283366
     27 C                     0.118655
     28 C                    -0.295536
     29 C                    -0.237819
     30 H                     0.093923
     31 H                     0.095071
     32 H                     0.116343
     33 H                     0.115189
     34 H                     0.128203
     35 H                     0.105443
     36 H                     0.112158
     37 H                     0.126812
     38 H                     0.094939
     39 C                    -0.169158
     40 H                     0.114212
     41 H                     0.090741
     42 H                     0.110209
     43 C                    -0.176055
     44 H                     0.088230
     45 C                    -0.170930
     46 H                     0.094775
     47 H                     0.090477
     48 H                     0.093295
     49 C                    -0.183218
     50 H                     0.090569
     51 C                    -0.319272
     52 H                     0.092324
     53 H                     0.104943
     54 H                     0.101781
     55 H                     0.106321
     56 C                     0.263485
     57 C                    -0.117439
     58 N                    -0.489671
     59 C                    -0.083574
     60 C                     0.048765
     61 C                     0.078353
     62 C                     0.055154
     63 C                     0.061673
     64 C                     0.236844
     65 N                    -0.493174
     66 N                    -0.566340
     67 C                     0.222451
     68 C                     0.243115
     69 S                     0.603106
     70 N                    -0.578227
     71 C                    -0.218511
     72 S                     0.357839
     73 C                    -0.094502
     74 C                    -0.187209
     75 S                     0.292353
     76 C                     0.118106
     77 C                     0.018134
     78 C                    -0.321517
     79 C                    -0.058439
     80 N                    -0.429770
     81 S                     0.297147
     82 C                     0.132197
     83 C                    -0.313071
     84 C                    -0.206891
     85 H                     0.093614
     86 H                     0.109609
     87 H                     0.096524
     88 H                     0.103310
     89 H                     0.131996
     90 H                     0.110668
     91 H                     0.123071
     92 H                     0.123371
     93 H                     0.114695
     94 C                    -0.196612
     95 H                     0.114722
     96 H                     0.095718
     97 H                     0.107001
     98 C                    -0.188066
     99 H                     0.095704
    100 C                    -0.169373
    101 H                     0.091047
    102 H                     0.096418
    103 H                     0.089795
    104 C                    -0.187738
    105 H                     0.082372
    106 C                    -0.310909
    107 H                     0.092656
    108 H                     0.110602
    109 H                     0.100182
    110 H                     0.101456
  ----------------------------------------
  Sum of atomic charges =     0.000000

                    Cartesian Multipole Moments
 -----------------------------------------------------------------
    Charge (ESU x 10^10)
                 0.0000
    Dipole Moment (Debye)
         X       0.7966      Y      -1.2041      Z       2.6562
       Tot       3.0232
    Quadrupole Moments (Debye-Ang)
        XX    -358.7434     XY     -18.7795     YY    -432.4202
        XZ      -1.8791     YZ      -4.7848     ZZ    -446.1636

 Total job time:  94.06s(wall), 1030.49s(cpu)
        *  Thank you very much for using Q-Chem.  Have a nice day.  *
