 Q-Chem 4.4, Q-Chem, Inc., Pleasanton, CA (2016)
 Q-Chem 4.4.2 for Intel X86 Linux

User input:
--------------------------------------------------------------
$comment
SP
$end

$rem
MEM_STATIC 5000
MEM_TOTAL 20000
JOBTYPE SP
EXCHANGE B3LYP
BASIS 6-31g(d,p)
$end

$molecule
0 1
C           3.344000    -17.269000     -6.212000
C           2.880000    -17.407000     -4.905000
N           2.517000    -16.948000     -7.182000
C           1.534000    -17.324000     -4.535000
C           1.186000    -16.863000     -6.871000
C           0.621000    -17.065000     -5.550000
C          -0.795000    -16.708000     -5.223000
C          -1.193000    -15.349000     -5.329000
C          -1.766000    -17.556000     -4.807000
N          -2.322000    -14.835000     -4.803000
N          -1.520000    -18.897000     -4.610000
C          -3.032000    -17.062000     -4.353000
C          -3.316000    -15.685000     -4.362000
S          -2.888000    -19.443000     -3.994000
N          -3.816000    -18.129000     -3.995000
C          -4.466000    -15.090000     -3.745000
S          -5.425000    -15.760000     -2.420000
C          -4.845000    -13.748000     -3.920000
C          -6.210000    -14.143000     -2.045000
S          -4.138000    -12.550000     -5.002000
C          -5.806000    -13.238000     -3.019000
C          -6.925000    -13.792000     -0.857000
C          -5.197000    -11.333000     -4.332000
C          -5.904000    -11.818000     -3.263000
N          -7.376000    -12.606000     -0.744000
S          -7.240000    -14.892000      0.477000
C          -7.965000    -12.454000      0.474000
C          -7.889000    -13.471000      1.356000
C           4.833000    -17.499000     -6.539000
H           3.499000    -17.621000     -4.039000
H           1.170000    -17.396000     -3.514000
H           0.551000    -16.726000     -7.744000
H          -0.427000    -14.682000     -5.719000
H          -5.132000    -10.308000     -4.673000
H          -6.477000    -11.134000     -2.647000
H          -8.556000    -11.555000      0.593000
H          -8.184000    -13.515000      2.396000
H           5.204000    -18.421000     -6.075000
C           5.785000    -16.361000     -6.042000
H           5.014000    -17.772000     -7.586000
H           5.722000    -16.487000     -4.954000
H           5.310000    -15.390000     -6.226000
C           7.195000    -16.490000     -6.682000
H           8.037000    -16.065000     -6.122000
C           7.205000    -16.061000     -8.190000
H           7.497000    -17.543000     -6.748000
H           6.194000    -16.268000     -8.561000
H           8.029000    -16.585000     -8.691000
C           7.690000    -14.592000     -8.399000
H           6.993000    -13.904000     -7.906000
C           8.032000    -14.176000     -9.826000
H           8.524000    -14.339000     -7.732000
H           8.610000    -14.920000    -10.387000
H           8.585000    -13.256000    -10.051000
H           7.080000    -13.997000    -10.340000
C           2.799000    -18.965000     -1.098000
C           2.026000    -19.090000      0.086000
N           2.448000    -19.596000     -2.199000
C           0.967000    -20.060000      0.041000
C           1.345000    -20.377000     -2.226000
C           0.539000    -20.688000     -1.127000
C          -0.636000    -21.593000     -1.281000
C          -1.330000    -21.766000     -2.495000
C          -1.248000    -22.318000     -0.193000
N          -2.401000    -22.397000     -2.681000
N          -0.774000    -22.225000      1.071000
C          -2.317000    -23.118000     -0.350000
C          -2.962000    -23.128000     -1.639000
S          -1.701000    -23.238000      1.994000
N          -2.730000    -23.806000      0.780000
C          -4.199000    -23.892000     -1.897000
S          -5.416000    -24.337000     -0.701000
C          -4.573000    -24.191000     -3.168000
C          -6.387000    -25.050000     -1.998000
S          -3.796000    -24.075000     -4.723000
C          -5.753000    -24.928000     -3.190000
C          -7.680000    -25.556000     -1.848000
C          -5.113000    -25.016000     -5.445000
C          -6.081000    -25.435000     -4.526000
N          -7.945000    -26.098000     -0.649000
S          -8.953000    -25.346000     -2.926000
C          -9.276000    -26.415000     -0.538000
C          -9.955000    -26.034000     -1.667000
C           4.148000    -18.245000     -1.020000
H           2.224000    -18.547000      1.005000
H           0.409000    -20.142000      0.970000
H           1.179000    -20.846000     -3.195000
H          -0.973000    -21.385000     -3.451000
H          -5.122000    -25.258000     -6.500000
H          -6.941000    -26.079000     -4.673000
H          -9.644000    -26.942000      0.332000
H         -11.036000    -26.005000     -1.717000
H           4.684000    -18.588000     -0.126000
C           3.738000    -16.774000     -0.935000
H           4.743000    -18.414000     -1.926000
H           3.121000    -16.598000     -0.046000
H           3.083000    -16.500000     -1.771000
C           4.958000    -15.800000     -1.071000
H           5.249000    -15.739000     -2.127000
C           6.208000    -16.212000     -0.195000
H           4.561000    -14.795000     -0.885000
H           6.527000    -17.242000     -0.397000
H           5.908000    -16.231000      0.860000
C           7.391000    -15.270000     -0.429000
H           8.295000    -15.673000      0.045000
C           7.088000    -13.829000      0.128000
H           7.701000    -15.216000     -1.480000
H           6.260000    -13.471000     -0.497000
H           8.030000    -13.269000      0.077000
H           6.757000    -13.945000      1.168000
$end

--------------------------------------------------------------

             Standard Nuclear Orientation (Angstroms)
    I     Atom           X                Y                Z
 ----------------------------------------------------------------
    1      C      -5.6581746639    -1.6696847700     2.1340620003
    2      C      -4.9171095229    -1.5019907116     0.9656056855
    3      N      -5.3853533053    -0.9564348409     3.2039746345
    4      C      -3.7966144786    -0.6724468391     0.8567350312
    5      C      -4.2911998453    -0.1346288822     3.1494753480
    6      C      -3.4305244384     0.0369425082     1.9941091282
    7      C      -2.4138879941     1.1318531765     1.9101152678
    8      C      -2.8641683672     2.4783099081     1.9388007267
    9      C      -1.0732517778     0.9811643806     1.7876880557
   10      N      -2.1204596099     3.5456015736     1.5876614595
   11      N      -0.4901954283    -0.2636517031     1.6977758153
   12      C      -0.2243310181     2.1075101209     1.5355237895
   13      C      -0.7546295034     3.4065692322     1.4455518958
   14      S       1.0486602563     0.0615969832     1.4236727796
   15      N       1.0732046813     1.6697052345     1.4578257182
   16      C      -0.0182313203     4.5542096310     1.0007449364
   17      S       1.4177629442     4.5593080255    -0.0298376555
   18      C      -0.4898610527     5.8747895006     1.0948948350
   19      C       1.2445488006     6.3443538123    -0.4237252023
   20      S      -1.9589945470     6.4521471754     1.8785286088
   21      C       0.2044933060     6.8508287816     0.3461349627
   22      C       1.8923197097     7.0556213063    -1.4821492201
   23      C      -1.6259271338     8.0645861070     1.2949390355
   24      C      -0.5516187190     8.0772839493     0.4443303155
   25      N       1.6286743672     8.2922228242    -1.6373066218
   26      S       3.0482585989     6.3438134166    -2.5983552103
   27      C       2.2910957954     8.7685996087    -2.7271745086
   28      C       2.9857784956     7.8987475643    -3.4879388393
   29      C      -6.8033866826    -2.7003847128     2.1897132357
   30      H      -5.1045142171    -2.0117727988     0.0254383045
   31      H      -3.2361562586    -0.5109482723    -0.0597396256
   32      H      -4.0501515767     0.3202611402     4.1081691468
   33      H      -3.9344821664     2.5945248570     2.0958594952
   34      H      -2.3177788537     8.8710257430     1.5001884231
   35      H      -0.3288572252     8.9750814697    -0.1213356012
   36      H       2.2992500868     9.8461959281    -2.8289717579
   37      H       3.4795400236     8.0450570315    -4.4394398080
   38      H      -6.4916874554    -3.6639552874     1.7685287873
   39      C      -8.0843812858    -2.2837396762     1.3935871526
   40      H      -7.0326896083    -3.0453296710     3.2055538453
   41      H      -7.7215963065    -2.3345909435     0.3594739057
   42      H      -8.2768060934    -1.2166257558     1.5565674408
   43      C      -9.2913676283    -3.1917497570     1.7583372892
   44      H     -10.0778273547    -3.3026529453     1.0017855187
   45      C      -9.8717723835    -2.8673398715     3.1782293789
   46      H      -8.9703943612    -4.2339209712     1.8817241692
   47      H      -9.0269173683    -2.4780565991     3.7589957149
   48      H     -10.3588764908    -3.7714890332     3.5652654007
   49      C     -11.1163297262    -1.9266062923     3.1237835001
   50      H     -10.8233954517    -0.9580247318     2.7015972005
   51      C     -11.9387756979    -1.7977508989     4.4018006796
   52      H     -11.7779246962    -2.1736341625     2.2837100944
   53      H     -12.1203069172    -2.7471071320     4.9195942284
   54      H     -12.9398686788    -1.3499109869     4.4110881311
   55      H     -11.3855072917    -1.1243728329     5.0673809160
   56      C      -3.1458886618    -2.6829325746    -2.5550940998
   57      C      -2.1906707227    -2.3332796319    -3.5452009164
   58      N      -2.7621901021    -3.0268791163    -1.3434674280
   59      C      -0.8150136444    -2.5433151759    -3.1876276048
   60      C      -1.4509855025    -3.0554774085    -1.0160172247
   61      C      -0.3859306380    -2.8427234638    -1.8961035242
   62      C       1.0230528573    -2.9357267830    -1.4170608407
   63      C       1.4058974501    -2.7100822063    -0.0799462074
   64      C       2.1570492778    -3.1746649785    -2.2778010205
   65      N       2.5734051835    -2.6350919756     0.3795101646
   66      N       2.0064403958    -3.3423582364    -3.6120487246
   67      C       3.4223153247    -3.2402228740    -1.8281189184
   68      C       3.6593782744    -2.9083584596    -0.4456164163
   69      S       3.5155010706    -3.6458629810    -4.2187181153
   70      N       4.3851493028    -3.5594030262    -2.7725170129
   71      C       5.0175575105    -2.8516041739     0.1310612353
   72      S       6.5087771929    -2.5177323894    -0.7488952922
   73      C       5.1993376972    -2.9106361324     1.4757504899
   74      C       7.3929156304    -2.5852163622     0.7831504437
   75      S       4.1630507035    -3.2761676214     2.8276772621
   76      C       6.5494580032    -2.8595531191     1.8083443643
   77      C       8.7454107997    -2.2766718843     0.9442160279
   78      C       5.5793737536    -3.3288283817     3.8918717283
   79      C       6.7940356187    -3.1176567723     3.2306992054
   80      N       9.5242480980    -2.5568117130    -0.1124410305
   81      S       9.4141797840    -1.4070572160     2.2182770054
   82      C      10.7947400155    -2.0711442647     0.0728922290
   83      C      10.8799546075    -1.3938519835     1.2623696937
   84      C      -4.6102138027    -2.8419090896    -2.9731411657
   85      H      -2.4434473843    -1.9794373744    -4.5399439064
   86      H      -0.1134179885    -2.2828590396    -3.9756981199
   87      H      -1.2758042566    -3.3668321994     0.0129860432
   88      H       0.6957283783    -2.6107602174     0.7400178358
   89      H       5.4841975195    -3.5417153452     4.9488914184
   90      H       7.8075354008    -3.1710801208     3.6126797512
   91      H      11.5748252715    -2.2866018167    -0.6448110779
   92      H      11.7230729325    -0.7645927001     1.5174897523
   93      H      -4.6536446736    -3.4114841478    -3.9100931455
   94      C      -5.0697730009    -1.3928185246    -3.1407952078
   95      H      -5.1984915826    -3.3305222868    -2.1866245433
   96      H      -4.4714266375    -0.8863588929    -3.9072586908
   97      H      -4.8796737496    -0.8126798921    -2.2295880734
   98      C      -6.6176295036    -1.2727569023    -3.3536271927
   99      H      -7.1210863167    -1.4030166156    -2.3876553274
  100      C      -7.2019276703    -2.3000737452    -4.4037870646
  101      H      -6.8089614566    -0.2150592873    -3.5701862818
  102      H      -6.9376334579    -3.3350026004    -4.1537154066
  103      H      -6.7145356016    -2.1300140757    -5.3717305961
  104      C      -8.7242795715    -2.1873929840    -4.5103550472
  105      H      -9.1247052688    -3.0199688984    -5.1026198594
  106      C      -9.1481481893    -0.8152614618    -5.1554360347
  107      H      -9.2380679757    -2.3340171758    -3.5521589179
  108      H      -8.8178663566    -0.0650680524    -4.4257122791
  109      H     -10.2256732760    -0.8806551685    -5.3509567516
  110      H      -8.5858290759    -0.7083745987    -6.0919131637
 ----------------------------------------------------------------

   11   -5663.4846904325      5.21E-06 Convergence criterion met
 Total energy in the final basis set = -5663.4846904325

                    Orbital Energies (a.u.)
 --------------------------------------------------------------

 Alpha MOs
 -- Occupied --
-88.992 -88.983 -88.940 -88.929 -88.925 -88.920 -88.918 -88.902
-14.395 -14.385 -14.377 -14.374 -14.349 -14.349 -14.342 -14.335
-14.327 -14.324 -10.268 -10.266 -10.264 -10.260 -10.256 -10.254
-10.252 -10.246 -10.244 -10.241 -10.241 -10.237 -10.236 -10.235
-10.234 -10.234 -10.233 -10.230 -10.229 -10.229 -10.229 -10.228
-10.225 -10.225 -10.223 -10.222 -10.218 -10.216 -10.214 -10.212
-10.211 -10.209 -10.209 -10.208 -10.202 -10.200 -10.192 -10.189
-10.187 -10.186 -10.184 -10.183 -10.183 -10.181 -10.180 -10.179
-10.177 -10.174 -10.173 -10.167  -8.047  -8.039  -8.002  -7.988
 -7.983  -7.981  -7.978  -7.962  -6.012  -6.007  -6.005  -6.004
 -5.998  -5.997  -5.965  -5.962  -5.959  -5.952  -5.948  -5.948
 -5.945  -5.944  -5.944  -5.942  -5.942  -5.940  -5.939  -5.938
 -5.934  -5.926  -5.923  -5.918  -1.034  -1.028  -0.984  -0.976
 -0.973  -0.950  -0.943  -0.934  -0.921  -0.903  -0.896  -0.894
 -0.848  -0.839  -0.833  -0.831  -0.822  -0.815  -0.809  -0.805
 -0.800  -0.800  -0.798  -0.793  -0.783  -0.773  -0.769  -0.763
 -0.752  -0.744  -0.741  -0.734  -0.732  -0.720  -0.712  -0.704
 -0.693  -0.690  -0.683  -0.670  -0.660  -0.650  -0.646  -0.641
 -0.638  -0.632  -0.625  -0.623  -0.613  -0.607  -0.604  -0.601
 -0.596  -0.591  -0.591  -0.586  -0.583  -0.575  -0.562  -0.560
 -0.549  -0.544  -0.543  -0.533  -0.525  -0.522  -0.519  -0.512
 -0.509  -0.500  -0.498  -0.497  -0.489  -0.486  -0.478  -0.474
 -0.472  -0.469  -0.467  -0.461  -0.461  -0.456  -0.450  -0.449
 -0.447  -0.445  -0.441  -0.441  -0.439  -0.432  -0.431  -0.430
 -0.429  -0.425  -0.422  -0.421  -0.420  -0.416  -0.413  -0.412
 -0.410  -0.407  -0.406  -0.405  -0.402  -0.401  -0.399  -0.398
 -0.397  -0.393  -0.391  -0.390  -0.387  -0.385  -0.384  -0.381
 -0.379  -0.376  -0.369  -0.365  -0.364  -0.363  -0.361  -0.360
 -0.352  -0.351  -0.347  -0.346  -0.346  -0.343  -0.342  -0.339
 -0.337  -0.337  -0.336  -0.329  -0.328  -0.327  -0.326  -0.316
 -0.311  -0.310  -0.309  -0.307  -0.305  -0.305  -0.303  -0.301
 -0.298  -0.291  -0.290  -0.288  -0.286  -0.284  -0.283  -0.280
 -0.276  -0.268  -0.265  -0.258  -0.255  -0.252  -0.249  -0.247
 -0.245  -0.240  -0.234  -0.233  -0.196  -0.191

          Ground-State Mulliken Net Atomic Charges

     Atom                 Charge (a.u.)
  ----------------------------------------
      1 C                     0.284807
      2 C                    -0.119564
      3 N                    -0.479201
      4 C                    -0.035909
      5 C                     0.053957
      6 C                     0.014590
      7 C                    -0.019598
      8 C                     0.081518
      9 C                     0.198658
     10 N                    -0.504728
     11 N                    -0.547888
     12 C                     0.195054
     13 C                     0.287753
     14 S                     0.650772
     15 N                    -0.557540
     16 C                    -0.193337
     17 S                     0.309837
     18 C                    -0.147600
     19 C                    -0.261261
     20 S                     0.289541
     21 C                     0.195065
     22 C                     0.093775
     23 C                    -0.292630
     24 C                    -0.077405
     25 N                    -0.430015
     26 S                     0.237587
     27 C                     0.130184
     28 C                    -0.309124
     29 C                    -0.237194
     30 H                     0.096622
     31 H                     0.108591
     32 H                     0.102722
     33 H                     0.113696
     34 H                     0.132614
     35 H                     0.118004
     36 H                     0.108559
     37 H                     0.136909
     38 H                     0.107427
     39 C                    -0.181953
     40 H                     0.113437
     41 H                     0.095854
     42 H                     0.106529
     43 C                    -0.188746
     44 H                     0.089276
     45 C                    -0.170859
     46 H                     0.092874
     47 H                     0.110874
     48 H                     0.092187
     49 C                    -0.179732
     50 H                     0.090095
     51 C                    -0.323430
     52 H                     0.087599
     53 H                     0.098864
     54 H                     0.100087
     55 H                     0.106279
     56 C                     0.258375
     57 C                    -0.117461
     58 N                    -0.491796
     59 C                    -0.093090
     60 C                     0.052223
     61 C                     0.078407
     62 C                     0.050292
     63 C                     0.036540
     64 C                     0.231153
     65 N                    -0.493712
     66 N                    -0.567261
     67 C                     0.226672
     68 C                     0.242752
     69 S                     0.603467
     70 N                    -0.576168
     71 C                    -0.219330
     72 S                     0.362033
     73 C                    -0.094674
     74 C                    -0.185837
     75 S                     0.293873
     76 C                     0.117346
     77 C                     0.017506
     78 C                    -0.320782
     79 C                    -0.056901
     80 N                    -0.428751
     81 S                     0.301465
     82 C                     0.132628
     83 C                    -0.311822
     84 C                    -0.208624
     85 H                     0.094712
     86 H                     0.113106
     87 H                     0.108064
     88 H                     0.127759
     89 H                     0.134736
     90 H                     0.112694
     91 H                     0.125048
     92 H                     0.125703
     93 H                     0.114970
     94 C                    -0.202037
     95 H                     0.114978
     96 H                     0.098792
     97 H                     0.105821
     98 C                    -0.192553
     99 H                     0.099217
    100 C                    -0.169080
    101 H                     0.095775
    102 H                     0.094599
    103 H                     0.089968
    104 C                    -0.188937
    105 H                     0.085253
    106 C                    -0.311253
    107 H                     0.093524
    108 H                     0.110707
    109 H                     0.102461
    110 H                     0.102965
  ----------------------------------------
  Sum of atomic charges =     0.000000

                    Cartesian Multipole Moments
 -----------------------------------------------------------------
    Charge (ESU x 10^10)
                 0.0000
    Dipole Moment (Debye)
         X       4.2285      Y       0.2784      Z      -3.3374
       Tot       5.3940
    Quadrupole Moments (Debye-Ang)
        XX    -399.3292     XY       7.7044     YY    -438.5902
        XZ      20.7513     YZ     -11.5046     ZZ    -424.6632

 Total job time:  107.54s(wall), 1190.26s(cpu)
        *  Thank you very much for using Q-Chem.  Have a nice day.  *
