 Q-Chem 4.4, Q-Chem, Inc., Pleasanton, CA (2016)
 Q-Chem 4.4.2 for Intel X86 Linux

User input:
--------------------------------------------------------------
$comment
SP
$end

$rem
MEM_STATIC 5000
MEM_TOTAL 20000
JOBTYPE SP
EXCHANGE B3LYP
BASIS 6-31g(d,p)
$end

$molecule
0 1
C          14.244000      8.666000     -3.351000
C          13.125000      9.350000     -2.900000
N          15.354000      9.330000     -3.589000
C          13.158000     10.742000     -2.878000
C          15.401000     10.648000     -3.613000
C          14.311000     11.473000     -3.277000
C          14.305000     12.906000     -3.413000
C          15.197000     13.501000     -4.344000
C          13.453000     13.841000     -2.862000
N          15.371000     14.809000     -4.670000
N          12.469000     13.510000     -1.948000
C          13.456000     15.161000     -3.248000
C          14.472000     15.618000     -4.205000
S          11.622000     14.859000     -1.715000
N          12.498000     15.884000     -2.676000
C          14.674000     17.021000     -4.582000
S          13.406000     18.179000     -4.454000
C          15.824000     17.643000     -5.099000
C          14.430000     19.383000     -5.329000
S          17.346000     16.951000     -5.459000
C          15.615000     18.883000     -5.625000
C          14.011000     20.748000     -5.610000
C          17.808000     18.488000     -6.207000
C          16.787000     19.425000     -6.210000
N          14.862000     21.682000     -6.004000
S          12.444000     21.345000     -5.261000
C          14.345000     22.911000     -5.877000
C          12.981000     22.948000     -5.540000
C          14.193000      7.171000     -3.421000
H          12.185000      8.850000     -2.688000
H          12.223000     11.180000     -2.544000
H          16.329000     11.179000     -3.820000
H          15.855000     12.853000     -4.921000
H          18.840000     18.622000     -6.502000
H          17.005000     20.453000     -6.476000
H          14.939000     23.797000     -6.057000
H          12.338000     23.795000     -5.336000
H          15.060000      6.766000     -2.885000
C          14.394000      6.721000     -4.861000
H          13.303000      6.775000     -2.918000
H          15.466000      6.755000     -5.092000
H          13.743000      7.213000     -5.593000
C          14.089000      5.223000     -4.952000
H          14.706000      4.730000     -4.190000
C          14.400000      4.501000     -6.302000
H          13.004000      5.182000     -4.799000
H          14.032000      3.484000     -6.123000
H          15.469000      4.466000     -6.544000
C          13.563000      5.113000     -7.490000
H          12.524000      4.801000     -7.330000
C          14.035000      4.542000     -8.786000
H          13.523000      6.207000     -7.564000
H          13.242000      4.597000     -9.542000
H          14.450000      3.529000     -8.728000
H          14.769000      5.253000     -9.185000
C          19.448000     20.136000    -10.324000
C          18.311000     19.380000     -9.967000
N          19.440000     21.118000    -11.230000
C          17.020000     19.744000    -10.404000
C          18.210000     21.438000    -11.779000
C          16.976000     20.845000    -11.338000
C          15.638000     21.349000    -11.870000
C          15.697000     22.126000    -13.017000
C          14.414000     21.413000    -11.146000
N          14.699000     22.918000    -13.465000
N          14.244000     20.715000    -10.023000
C          13.340000     22.160000    -11.588000
C          13.491000     22.961000    -12.775000
S          12.692000     21.032000     -9.590000
N          12.206000     22.022000    -10.831000
C          12.399000     23.777000    -13.358000
S          10.882000     24.213000    -12.526000
C          12.462000     24.549000    -14.508000
C          10.475000     25.427000    -13.738000
S          13.773000     24.669000    -15.648000
C          11.450000     25.394000    -14.696000
C           9.338000     26.327000    -13.654000
C          12.887000     25.970000    -16.456000
C          11.673000     26.221000    -15.848000
N           9.237000     27.208000    -14.639000
S           8.059000     26.314000    -12.451000
C           8.119000     28.000000    -14.487000
C           7.358000     27.695000    -13.393000
C          20.809000     19.850000     -9.753000
H          18.306000     18.686000     -9.131000
H          16.096000     19.290000    -10.057000
H          18.155000     22.418000    -12.251000
H          16.627000     22.207000    -13.578000
H          13.278000     26.279000    -17.417000
H          11.039000     27.040000    -16.171000
H           7.931000     28.927000    -15.013000
H           6.465000     28.162000    -12.998000
H          21.534000     20.657000     -9.918000
C          21.517000     18.516000    -10.211000
H          20.681000     19.744000     -8.668000
H          21.530000     17.906000     -9.300000
H          22.531000     18.795000    -10.521000
C          20.794000     17.586000    -11.260000
H          21.328000     16.628000    -11.280000
C          20.733000     18.149000    -12.695000
H          19.840000     17.238000    -10.846000
H          21.731000     18.564000    -12.878000
H          19.956000     18.919000    -12.778000
C          20.498000     17.090000    -13.777000
H          21.354000     16.403000    -13.788000
C          20.309000     17.727000    -15.171000
H          19.621000     16.469000    -13.557000
H          19.330000     18.207000    -15.289000
H          20.484000     16.938000    -15.914000
H          21.046000     18.491000    -15.447000
$end

--------------------------------------------------------------

             Standard Nuclear Orientation (Angstroms)
    I     Atom           X                Y                Z
 ----------------------------------------------------------------
    1      C      10.9656142182     0.8193901662     1.3556939267
    2      C      10.4828574390     2.1194891697     1.3660125183
    3      N      10.4166886078    -0.0666762231     0.5536920388
    4      C       9.3201236290     2.4049627024     0.6548220028
    5      C       9.2944728835     0.1664399637    -0.0991461582
    6      C       8.6363475087     1.4108238185    -0.0982444596
    7      C       7.3522470139     1.6507136727    -0.7028598557
    8      C       6.4758380149     0.5490923234    -0.8893743844
    9      C       6.7416732260     2.8429945983    -1.0336102811
   10      N       5.2212049306     0.5126633603    -1.4108959605
   11      N       7.3745175991     4.0668694079    -0.9117437565
   12      C       5.4247784486     2.9150814175    -1.4234777401
   13      C       4.6669386929     1.6690314884    -1.5966611082
   14      S       6.2493692250     5.1712294275    -1.2372112410
   15      N       4.9914966588     4.1589871189    -1.6041500861
   16      C       3.3089116730     1.6026267797    -2.1468383776
   17      S       2.2392801368     2.9498446164    -2.0689636236
   18      C       2.6558799538     0.5231533681    -2.7672896065
   19      C       0.8926528507     1.9030835562    -2.6645332966
   20      S       3.2420870478    -1.0557599412    -3.0645134354
   21      C       1.3080998206     0.6735807348    -2.9044658440
   22      C      -0.4597818615     2.3840952874    -2.9038971696
   23      C       1.6103515954    -1.5060237012    -3.5841469215
   24      C       0.6902478896    -0.4780082792    -3.4537150898
   25      N      -1.3498995784     1.6812431430    -3.5861598120
   26      S      -0.9768109700     3.9730017349    -2.5273919210
   27      C      -2.3878521947     2.4345253354    -3.9722677047
   28      C      -2.4121683162     3.7315738809    -3.4314278053
   29      C      12.1884428433     0.5001520207     2.1590015638
   30      H      10.9003924448     2.8889812679     2.0079552180
   31      H       9.0075669587     3.4391537540     0.7567150673
   32      H       8.8518156446    -0.5839167139    -0.7526088008
   33      H       6.8061814739    -0.4382014691    -0.5701234388
   34      H       1.4708966237    -2.4742237925    -4.0458241832
   35      H      -0.2908954706    -0.5778212251    -3.9036696238
   36      H      -3.1580365557     2.0461570743    -4.6251215503
   37      H      -3.1023809824     4.5465183140    -3.6101623748
   38      H      12.9155231608     0.0019453315     1.5061966106
   39      C      11.8478533999    -0.5439636567     3.2127198769
   40      H      12.6748854697     1.4100110865     2.5297508746
   41      H      11.8311172492    -1.5313031958     2.7346178627
   42      H      10.9721187023    -0.3087956148     3.8287342691
   43      C      13.0311251315    -0.6694106021     4.1767951193
   44      H      13.9190731419    -0.8609002116     3.5609525581
   45      C      12.9809102722    -1.8123432288     5.2406035977
   46      H      13.0117709137     0.2844817339     4.7171929593
   47      H      13.8892283597    -1.6359538508     5.8284803188
   48      H      13.0165071447    -2.8181237774     4.8050713363
   49      C      11.7444623420    -1.6488452501     6.2054465523
   50      H      11.9637628019    -0.7868774169     6.8468386030
   51      C      11.6142079859    -2.8602981152     7.0679178610
   52      H      10.7752399946    -1.4207549902     5.7444748888
   53      H      11.0784633999    -2.6173610412     7.9938602548
   54      H      12.5526654404    -3.3835774104     7.2852525922
   55      H      10.8958683360    -3.5191403605     6.5645362531
   56      C      -1.7162966769    -4.7217047526    -2.6104941867
   57      C      -1.0311576007    -3.7687972743    -1.8267175705
   58      N      -3.0179105342    -4.9967668898    -2.4865337606
   59      C      -1.7243422645    -2.8818612394    -0.9764320350
   60      C      -3.7243927092    -4.2297519338    -1.5758900357
   61      C      -3.1456107125    -3.1173244349    -0.8713316917
   62      C      -4.0122938426    -2.2138284306     0.0003559370
   63      C      -5.2570418922    -2.7186467612     0.3447100370
   64      C      -3.8417245808    -0.8136924759     0.1926407139
   65      N      -6.2821785451    -1.9828693567     0.8260606929
   66      N      -2.6899192797    -0.2149351943    -0.1107851684
   67      C      -4.8350039337    -0.0227539055     0.7354678548
   68      C      -6.1094865353    -0.6187457170     1.0418317874
   69      S      -2.9245863386     1.3471615158     0.3380658535
   70      N      -4.4653018548     1.2788351021     0.9528049846
   71      C      -7.2364420971     0.1248846562     1.6543626272
   72      S      -7.3607781068     1.9015520259     1.7620780579
   73      C      -8.4780211021    -0.3858878543     2.0008392021
   74      C      -9.0663517881     1.8333003839     2.2033819567
   75      S      -9.0091968679    -2.0433816744     1.9435021125
   76      C      -9.4150121775     0.5142492054     2.2929248033
   77      C      -9.9243129521     2.9947313732     2.3608802051
   78      C     -10.6379300482    -1.4846316150     2.3503037825
   79      C     -10.6845169029    -0.1154335970     2.5223138186
   80      N     -11.1928050535     2.7302446873     2.6393790055
   81      S      -9.4471245098     4.6836733192     2.3062423677
   82      C     -11.9217842197     3.8900099192     2.7937356776
   83      C     -11.1902701102     5.0367627604     2.6565240574
   84      C      -1.0110934930    -5.5755852530    -3.6272215643
   85      H      -0.0111767740    -3.4591973529    -2.0372977260
   86      H      -1.2738218988    -2.0419027466    -0.4550855759
   87      H      -4.8052021029    -4.2308198631    -1.7102734945
   88      H      -5.5020068987    -3.7604527243     0.1426840957
   89      H     -11.3493824524    -2.2582030554     2.6097372095
   90      H     -11.6230020958     0.3992035825     2.6996274285
   91      H     -13.0020603733     3.9559051527     2.7969372851
   92      H     -11.4906023228     6.0763837458     2.6800138155
   93      H      -1.6905408428    -6.0790038580    -4.3265212190
   94      C      -0.0323122128    -6.6865685455    -3.0810646917
   95      H      -0.3748862759    -4.9038739358    -4.2178900697
   96      H       0.9576461031    -6.3325995170    -3.3923177393
   97      H      -0.3044798700    -7.6170721808    -3.5931435440
   98      C       0.1224247751    -6.8723738687    -1.5223591883
   99      H       0.9885367258    -7.5227170126    -1.3485090114
  100      C      -1.1051747564    -7.4829146552    -0.8151432817
  101      H       0.5142576417    -5.9487521561    -1.0796336113
  102      H      -1.4286109909    -8.3019592562    -1.4680390955
  103      H      -1.8953980368    -6.7322511909    -0.6903653571
  104      C      -0.7983808440    -8.1100506423     0.5486778023
  105      H      -0.1174087178    -8.9580302385     0.4002407189
  106      C      -2.0830989612    -8.5785568105     1.2661228034
  107      H      -0.2665438591    -7.4133638949     1.2081829178
  108      H      -2.6708263619    -7.7457762156     1.6708671467
  109      H      -1.7787865665    -9.2951726583     2.0401064551
  110      H      -2.7821937312    -9.1614204827     0.6540954820
 ----------------------------------------------------------------

   10   -5663.5167865047      4.19E-06 Convergence criterion met
 Total energy in the final basis set = -5663.5167865047

                    Orbital Energies (a.u.)
 --------------------------------------------------------------

 Alpha MOs
 -- Occupied --
-88.992 -88.986 -88.930 -88.928 -88.926 -88.924 -88.909 -88.901
-14.393 -14.388 -14.384 -14.384 -14.353 -14.349 -14.345 -14.342
-14.330 -14.324 -10.275 -10.269 -10.268 -10.266 -10.259 -10.256
-10.255 -10.253 -10.244 -10.242 -10.240 -10.240 -10.239 -10.235
-10.234 -10.234 -10.231 -10.231 -10.228 -10.227 -10.227 -10.227
-10.226 -10.224 -10.223 -10.222 -10.219 -10.219 -10.217 -10.213
-10.209 -10.204 -10.203 -10.200 -10.199 -10.197 -10.191 -10.190
-10.184 -10.183 -10.181 -10.180 -10.176 -10.176 -10.175 -10.174
-10.171 -10.167 -10.166 -10.165  -8.047  -8.041  -7.990  -7.990
 -7.986  -7.983  -7.970  -7.961  -6.012  -6.007  -6.007  -6.005
 -6.001  -5.999  -5.954  -5.954  -5.951  -5.950  -5.950  -5.948
 -5.948  -5.947  -5.946  -5.944  -5.942  -5.940  -5.935  -5.931
 -5.927  -5.926  -5.922  -5.918  -1.041  -1.036  -0.981  -0.975
 -0.968  -0.951  -0.945  -0.930  -0.926  -0.918  -0.905  -0.905
 -0.852  -0.848  -0.843  -0.824  -0.815  -0.813  -0.806  -0.804
 -0.800  -0.799  -0.796  -0.791  -0.788  -0.777  -0.772  -0.765
 -0.754  -0.746  -0.746  -0.732  -0.731  -0.726  -0.715  -0.705
 -0.697  -0.690  -0.676  -0.672  -0.658  -0.653  -0.651  -0.643
 -0.635  -0.634  -0.627  -0.619  -0.609  -0.608  -0.599  -0.598
 -0.594  -0.590  -0.589  -0.588  -0.582  -0.572  -0.559  -0.557
 -0.557  -0.554  -0.544  -0.533  -0.532  -0.522  -0.515  -0.510
 -0.509  -0.503  -0.499  -0.494  -0.493  -0.483  -0.480  -0.478
 -0.477  -0.472  -0.470  -0.462  -0.462  -0.461  -0.454  -0.450
 -0.447  -0.444  -0.441  -0.439  -0.438  -0.437  -0.433  -0.433
 -0.431  -0.427  -0.424  -0.422  -0.420  -0.419  -0.418  -0.410
 -0.410  -0.409  -0.407  -0.403  -0.401  -0.401  -0.398  -0.395
 -0.393  -0.393  -0.391  -0.389  -0.387  -0.386  -0.384  -0.377
 -0.376  -0.376  -0.375  -0.371  -0.366  -0.362  -0.358  -0.357
 -0.355  -0.353  -0.353  -0.349  -0.347  -0.346  -0.343  -0.341
 -0.338  -0.337  -0.336  -0.332  -0.326  -0.323  -0.321  -0.317
 -0.314  -0.312  -0.311  -0.309  -0.305  -0.304  -0.301  -0.298
 -0.296  -0.295  -0.293  -0.290  -0.286  -0.284  -0.283  -0.280
 -0.278  -0.272  -0.268  -0.265  -0.254  -0.254  -0.252  -0.249
 -0.248  -0.243  -0.234  -0.229  -0.194  -0.192

          Ground-State Mulliken Net Atomic Charges

     Atom                 Charge (a.u.)
  ----------------------------------------
      1 C                     0.299447
      2 C                    -0.131101
      3 N                    -0.492627
      4 C                    -0.072083
      5 C                     0.074007
      6 C                     0.037978
      7 C                     0.088609
      8 C                     0.018773
      9 C                     0.188793
     10 N                    -0.521928
     11 N                    -0.551734
     12 C                     0.244159
     13 C                     0.333782
     14 S                     0.602174
     15 N                    -0.584126
     16 C                    -0.221058
     17 S                     0.320034
     18 C                    -0.119359
     19 C                    -0.252548
     20 S                     0.278268
     21 C                     0.175043
     22 C                     0.050020
     23 C                    -0.317545
     24 C                    -0.038364
     25 N                    -0.431484
     26 S                     0.269801
     27 C                     0.123309
     28 C                    -0.320929
     29 C                    -0.224978
     30 H                     0.086487
     31 H                     0.114682
     32 H                     0.100301
     33 H                     0.107825
     34 H                     0.130291
     35 H                     0.140128
     36 H                     0.116544
     37 H                     0.139844
     38 H                     0.118751
     39 C                    -0.168371
     40 H                     0.097019
     41 H                     0.113843
     42 H                     0.095628
     43 C                    -0.181056
     44 H                     0.083920
     45 C                    -0.184830
     46 H                     0.085642
     47 H                     0.097523
     48 H                     0.092651
     49 C                    -0.172841
     50 H                     0.091058
     51 C                    -0.318866
     52 H                     0.096679
     53 H                     0.095201
     54 H                     0.104820
     55 H                     0.104065
     56 C                     0.285372
     57 C                    -0.117936
     58 N                    -0.479836
     59 C                    -0.076833
     60 C                     0.045425
     61 C                     0.035914
     62 C                     0.043259
     63 C                     0.046557
     64 C                     0.232189
     65 N                    -0.529042
     66 N                    -0.548388
     67 C                     0.222144
     68 C                     0.293784
     69 S                     0.601031
     70 N                    -0.567335
     71 C                    -0.231209
     72 S                     0.310705
     73 C                    -0.118337
     74 C                    -0.250971
     75 S                     0.281757
     76 C                     0.191113
     77 C                     0.081682
     78 C                    -0.315237
     79 C                    -0.052982
     80 N                    -0.450652
     81 S                     0.253497
     82 C                     0.141226
     83 C                    -0.305863
     84 C                    -0.237316
     85 H                     0.092714
     86 H                     0.136232
     87 H                     0.110744
     88 H                     0.116751
     89 H                     0.130476
     90 H                     0.126865
     91 H                     0.122402
     92 H                     0.132766
     93 H                     0.119883
     94 C                    -0.179279
     95 H                     0.094577
     96 H                     0.087925
     97 H                     0.100825
     98 C                    -0.190376
     99 H                     0.085661
    100 C                    -0.153833
    101 H                     0.090840
    102 H                     0.090610
    103 H                     0.106732
    104 C                    -0.180385
    105 H                     0.088839
    106 C                    -0.320850
    107 H                     0.092316
    108 H                     0.105654
    109 H                     0.095663
    110 H                     0.101262
  ----------------------------------------
  Sum of atomic charges =     0.000000

                    Cartesian Multipole Moments
 -----------------------------------------------------------------
    Charge (ESU x 10^10)
                 0.0000
    Dipole Moment (Debye)
         X      -0.1137      Y       5.5438      Z       0.5446
       Tot       5.5716
    Quadrupole Moments (Debye-Ang)
        XX    -411.0184     XY     -19.4652     YY    -420.9034
        XZ      11.0137     YZ       3.1761     ZZ    -445.6610

 Total job time:  94.85s(wall), 1028.90s(cpu)
        *  Thank you very much for using Q-Chem.  Have a nice day.  *
