 Q-Chem 4.4, Q-Chem, Inc., Pleasanton, CA (2016)
 Q-Chem 4.4.2 for Intel X86 Linux

User input:
--------------------------------------------------------------
$comment
SP
$end

$rem
MEM_STATIC 5000
MEM_TOTAL 20000
JOBTYPE SP
EXCHANGE B3LYP
BASIS 6-31g(d,p)
$end

$molecule
0 1
C          -0.081000     14.269000     -5.115000
C           0.389000     14.377000     -6.429000
N           0.438000     14.974000     -4.054000
C           1.316000     15.435000     -6.619000
C           1.460000     15.843000     -4.246000
C           1.948000     16.139000     -5.559000
C           2.817000     17.328000     -5.857000
C           2.493000     18.178000     -6.903000
C           3.801000     17.869000     -5.025000
N           3.109000     19.325000     -7.187000
N           4.258000     17.265000     -3.975000
C           4.454000     19.081000     -5.248000
C           4.031000     19.813000     -6.374000
S           5.330000     18.250000     -3.268000
N           5.354000     19.456000     -4.337000
C           4.431000     21.268000     -6.767000
S           3.890000     22.024000     -8.277000
C           4.957000     22.249000     -6.000000
C           4.615000     23.567000     -7.909000
S           5.259000     22.316000     -4.297000
C           5.000000     23.503000     -6.599000
C           4.712000     24.687000     -8.817000
C           5.432000     24.116000     -4.422000
C           5.368000     24.547000     -5.698000
N           5.754000     25.468000     -8.663000
S           3.756000     24.913000    -10.210000
C           5.719000     26.492000     -9.528000
C           4.691000     26.408000    -10.449000
C          -1.236000     13.327000     -4.871000
H          -0.057000     13.723000     -7.173000
H           1.639000     15.682000     -7.626000
H           1.918000     16.248000     -3.344000
H           1.622000     17.937000     -7.510000
H           5.528000     24.678000     -3.502000
H           5.276000     25.574000     -6.032000
H           6.406000     27.320000     -9.412000
H           4.397000     27.158000    -11.171000
H          -1.640000     13.092000     -5.863000
C          -2.372000     14.103000     -4.217000
H          -0.966000     12.397000     -4.354000
H          -2.754000     14.864000     -4.909000
H          -2.040000     14.599000     -3.296000
C          -3.546000     13.097000     -3.918000
H          -3.956000     12.664000     -4.839000
C          -4.605000     13.883000     -3.126000
H          -3.188000     12.283000     -3.275000
H          -4.843000     14.812000     -3.658000
H          -4.212000     14.236000     -2.164000
C          -5.794000     13.024000     -2.880000
H          -6.407000     12.769000     -3.753000
C          -6.821000     13.702000     -2.009000
H          -5.464000     12.054000     -2.490000
H          -6.287000     14.061000     -1.121000
H          -7.608000     12.994000     -1.722000
H          -7.306000     14.575000     -2.464000
C          19.448000     20.136000    -10.324000
C          18.311000     19.380000     -9.967000
N          19.440000     21.118000    -11.230000
C          17.020000     19.744000    -10.404000
C          18.210000     21.438000    -11.779000
C          16.976000     20.845000    -11.338000
C          15.638000     21.349000    -11.870000
C          15.697000     22.126000    -13.017000
C          14.414000     21.413000    -11.146000
N          14.699000     22.918000    -13.465000
N          14.244000     20.715000    -10.023000
C          13.340000     22.160000    -11.588000
C          13.491000     22.961000    -12.775000
S          12.692000     21.032000     -9.590000
N          12.206000     22.022000    -10.831000
C          12.399000     23.777000    -13.358000
S          10.882000     24.213000    -12.526000
C          12.462000     24.549000    -14.508000
C          10.475000     25.427000    -13.738000
S          13.773000     24.669000    -15.648000
C          11.450000     25.394000    -14.696000
C           9.338000     26.327000    -13.654000
C          12.887000     25.970000    -16.456000
C          11.673000     26.221000    -15.848000
N           9.237000     27.208000    -14.639000
S           8.059000     26.314000    -12.451000
C           8.119000     28.000000    -14.487000
C           7.358000     27.695000    -13.393000
C          20.809000     19.850000     -9.753000
H          18.306000     18.686000     -9.131000
H          16.096000     19.290000    -10.057000
H          18.155000     22.418000    -12.251000
H          16.627000     22.207000    -13.578000
H          13.278000     26.279000    -17.417000
H          11.039000     27.040000    -16.171000
H           7.931000     28.927000    -15.013000
H           6.465000     28.162000    -12.998000
H          21.534000     20.657000     -9.918000
C          21.517000     18.516000    -10.211000
H          20.681000     19.744000     -8.668000
H          21.530000     17.906000     -9.300000
H          22.531000     18.795000    -10.521000
C          20.794000     17.586000    -11.260000
H          21.328000     16.628000    -11.280000
C          20.733000     18.149000    -12.695000
H          19.840000     17.238000    -10.846000
H          21.731000     18.564000    -12.878000
H          19.956000     18.919000    -12.778000
C          20.498000     17.090000    -13.777000
H          21.354000     16.403000    -13.788000
C          20.309000     17.727000    -15.171000
H          19.621000     16.469000    -13.557000
H          19.330000     18.207000    -15.289000
H          20.484000     16.938000    -15.914000
H          21.046000     18.491000    -15.447000
$end

--------------------------------------------------------------

             Standard Nuclear Orientation (Angstroms)
    I     Atom           X                Y                Z
 ----------------------------------------------------------------
    1      C     -10.8959660391    -3.3208506703    -1.9510351587
    2      C      -9.9006764323    -2.9976613214    -2.8806088477
    3      N     -10.7091929330    -3.3001234736    -0.5883931697
    4      C      -8.7323787907    -2.4418733499    -2.2966796129
    5      C      -9.5094609382    -2.9433566942    -0.0689034143
    6      C      -8.4479706631    -2.4700473975    -0.9049331418
    7      C      -7.2480333415    -1.7435778079    -0.3663439106
    8      C      -6.8503293542    -0.5445904533    -0.9371791426
    9      C      -6.6070208647    -1.9843785133     0.8519659944
   10      N      -5.8860318450     0.2502682875    -0.4745227951
   11      N      -6.8248335350    -3.0346888516     1.5769286376
   12      C      -5.6191571972    -1.1708110608     1.4063263237
   13      C      -5.3048053645    -0.0022995686     0.6863313113
   14      S      -5.9339070307    -2.8984033764     2.9211511761
   15      N      -5.1294249957    -1.5413595080     2.5909791079
   16      C      -4.3966319551     1.1801352172     1.1429964354
   17      S      -4.0137554534     2.5460825363     0.0790836072
   18      C      -4.0033965245     1.5270699646     2.3889210628
   19      C      -3.1259035226     3.4122553361     1.3052000901
   20      S      -4.4510764137     0.8921445964     3.9356448564
   21      C      -3.3699554904     2.7612651993     2.4820906877
   22      C      -2.3504971812     4.6125619081     1.0900672499
   23      C      -3.7592686033     2.3735883821     4.7181282513
   24      C      -3.1530537844     3.1846420085     3.8277751706
   25      N      -1.3050169378     4.7725577709     1.8651887787
   26      S      -2.5195865086     5.6717451568    -0.2346971235
   27      C      -0.6879162837     5.9344397402     1.6058760869
   28      C      -1.2047078042     6.6079099493     0.5143425777
   29      C     -12.2524538010    -3.6992345641    -2.4966463580
   30      H     -10.1458295949    -3.1113500219    -3.9328173852
   31      H      -7.9570694976    -2.0401036684    -2.9423293810
   32      H      -9.3890301731    -3.0964197296     1.0032258401
   33      H      -7.4082935590    -0.1740464877    -1.7954006266
   34      H      -3.9161242521     2.5016835997     5.7813534958
   35      H      -2.8108068273     4.1982347234     4.0016884501
   36      H       0.0803043275     6.2985361241     2.2754131775
   37      H      -0.9465065746     7.6030085685     0.1776960820
   38      H     -12.2417047478    -3.3965819913    -3.5505870006
   39      C     -13.3004748525    -2.7757532181    -1.8890098884
   40      H     -12.4928411564    -4.7678366379    -2.4232125292
   41      H     -13.1279940868    -1.7436160067    -2.2189373991
   42      H     -13.2721090684    -2.8045737870    -0.7922666381
   43      C     -14.7142088471    -3.2179909780    -2.4233271686
   44      H     -14.7927381721    -3.1027687091    -3.5116226128
   45      C     -15.7519510271    -2.3646086203    -1.6740804005
   46      H     -14.9008981539    -4.2682685146    -2.1658913537
   47      H     -15.4778322040    -1.3056013870    -1.7520005557
   48      H     -15.7273198149    -2.5533816830    -0.5932196166
   49      C     -17.1160624012    -2.6592675677    -2.1883704585
   50      H     -17.3418041928    -2.3232085418    -3.2076976752
   51      C     -18.1892519030    -1.9365141575    -1.4144545708
   52      H     -17.2613907738    -3.7453059577    -2.2244298472
   53      H     -18.0097905332    -2.1562011128    -0.3551565681
   54      H     -19.1830209601    -2.2898196485    -1.7154533931
   55      H     -18.1762748236    -0.8442539486    -1.5201817264
   56      C       9.7674451692    -5.0291471925     1.6603871687
   57      C       8.4288409507    -5.2960520153     1.3017026812
   58      N      10.4139102696    -3.9006312185     1.3541869555
   59      C       7.6004894722    -4.2927829103     0.7563303945
   60      C       9.6739949718    -2.9235415031     0.7103530950
   61      C       8.2601871116    -3.0395003863     0.4724731423
   62      C       7.4698656507    -1.8669786016    -0.1001250177
   63      C       8.2212070830    -0.8600871809    -0.6870447047
   64      C       6.1225469746    -1.5278936240     0.2100390727
   65      N       7.7666388862     0.3814024276    -0.9628042133
   66      N       5.3071603753    -2.4128718563     0.7837909548
   67      C       5.5876262898    -0.2936954495    -0.1021527384
   68      C       6.4419174912     0.7071886335    -0.6867796243
   69      S       3.8697826521    -1.6244614387     0.8788503800
   70      N       4.2489659886    -0.1739764601     0.1656250832
   71      C       5.9703669790     2.0536702356    -1.0903095607
   72      S       4.4253339402     2.7955392026    -0.5942124485
   73      C       6.7250796621     3.0556323613    -1.6810156337
   74      C       4.9211816519     4.3910681153    -1.1570725872
   75      S       8.3749061731     2.9713582479    -2.2320976215
   76      C       6.1619371388     4.2619081453    -1.7168238926
   77      C       4.1491348590     5.6073862885    -0.9717651377
   78      C       8.3088621912     4.7118853596    -2.5430068784
   79      C       7.0704773805     5.2422831272    -2.2404473491
   80      N       4.7216178884     6.7168285639    -1.4167235838
   81      S       2.5291239414     5.7471834774    -0.3090130176
   82      C       3.9076012701     7.8117146140    -1.2195092781
   83      C       2.7015735816     7.5200074079    -0.6455875757
   84      C      10.6202258714    -6.0409916267     2.3738953431
   85      H       7.8792996620    -6.1536173360     1.6800452412
   86      H       6.5319819394    -4.3935383906     0.5876858405
   87      H      10.0942491982    -1.9197948468     0.7560481190
   88      H       9.2847887407    -1.0050765815    -0.8713111723
   89      H       9.1400628425     5.1215146094    -3.1026427913
   90      H       6.8839365362     6.3093631407    -2.3003535938
   91      H       4.2217500534     8.8456479152    -1.2798538761
   92      H       1.8896666919     8.1649437986    -0.3350601946
   93      H      11.5353798867    -5.6181087207     2.8072106744
   94      C      11.0637586120    -7.3152943453     1.5553507265
   95      H      10.0181884551    -6.4333864071     3.2036075135
   96      H      10.5205856028    -8.1346503218     2.0409522770
   97      H      12.1465570644    -7.4125106032     1.6975952719
   98      C      10.6347286412    -7.4419074158     0.0427594352
   99      H      10.8435292130    -8.4699155428    -0.2780545484
  100      C      11.3472310531    -6.4686236745    -0.9189962885
  101      H       9.5405739456    -7.4627507825    -0.0280011205
  102      H      12.3990207483    -6.4864841588    -0.6105527113
  103      H      10.9216399375    -5.4607253068    -0.8381811751
  104      C      11.3181911044    -6.9018467129    -2.3883173835
  105      H      11.8745876122    -7.8427315167    -2.4882409149
  106      C      11.9228984483    -5.8250252479    -3.3154153076
  107      H      10.2990087434    -7.1213123456    -2.7293044081
  108      H      11.2591562560    -4.9630422194    -3.4539669613
  109      H      12.1763352262    -6.3185455700    -4.2627286092
  110      H      12.8840636913    -5.4068271920    -2.9924404454
 ----------------------------------------------------------------

   10   -5663.5075822686      3.63E-06 Convergence criterion met
 Total energy in the final basis set = -5663.5075822686

                    Orbital Energies (a.u.)
 --------------------------------------------------------------

 Alpha MOs
 -- Occupied --
-88.991 -88.987 -88.934 -88.929 -88.924 -88.918 -88.902 -88.901
-14.394 -14.392 -14.385 -14.379 -14.349 -14.348 -14.344 -14.341
-14.333 -14.331 -10.274 -10.270 -10.269 -10.268 -10.258 -10.257
-10.254 -10.253 -10.243 -10.242 -10.242 -10.237 -10.236 -10.235
-10.235 -10.234 -10.234 -10.234 -10.232 -10.231 -10.228 -10.228
-10.224 -10.224 -10.223 -10.222 -10.221 -10.221 -10.219 -10.217
-10.217 -10.211 -10.205 -10.203 -10.200 -10.200 -10.194 -10.190
-10.185 -10.183 -10.180 -10.178 -10.177 -10.175 -10.172 -10.171
-10.169 -10.167 -10.166 -10.166  -8.048  -8.043  -7.996  -7.989
 -7.983  -7.978  -7.963  -7.961  -6.013  -6.008  -6.007  -6.005
 -6.002  -6.000  -5.959  -5.956  -5.953  -5.953  -5.950  -5.947
 -5.946  -5.943  -5.942  -5.940  -5.938  -5.934  -5.927  -5.926
 -5.924  -5.922  -5.919  -5.917  -1.061  -1.037  -0.985  -0.970
 -0.968  -0.945  -0.931  -0.931  -0.925  -0.918  -0.917  -0.906
 -0.844  -0.842  -0.834  -0.825  -0.814  -0.812  -0.810  -0.805
 -0.798  -0.797  -0.796  -0.793  -0.792  -0.778  -0.774  -0.765
 -0.752  -0.746  -0.745  -0.733  -0.725  -0.721  -0.711  -0.705
 -0.696  -0.690  -0.681  -0.673  -0.658  -0.652  -0.647  -0.644
 -0.638  -0.635  -0.630  -0.620  -0.612  -0.610  -0.597  -0.595
 -0.592  -0.589  -0.582  -0.582  -0.579  -0.573  -0.573  -0.558
 -0.554  -0.554  -0.550  -0.534  -0.527  -0.522  -0.518  -0.510
 -0.509  -0.505  -0.499  -0.494  -0.491  -0.484  -0.484  -0.478
 -0.476  -0.473  -0.471  -0.467  -0.464  -0.462  -0.451  -0.449
 -0.447  -0.447  -0.441  -0.439  -0.438  -0.435  -0.432  -0.432
 -0.431  -0.427  -0.425  -0.421  -0.419  -0.418  -0.414  -0.412
 -0.410  -0.407  -0.404  -0.402  -0.402  -0.400  -0.397  -0.396
 -0.393  -0.391  -0.391  -0.390  -0.387  -0.387  -0.386  -0.384
 -0.378  -0.375  -0.372  -0.372  -0.367  -0.363  -0.357  -0.355
 -0.354  -0.350  -0.347  -0.346  -0.343  -0.341  -0.340  -0.337
 -0.337  -0.336  -0.333  -0.331  -0.330  -0.329  -0.327  -0.318
 -0.313  -0.312  -0.311  -0.310  -0.305  -0.302  -0.301  -0.298
 -0.296  -0.294  -0.293  -0.289  -0.285  -0.283  -0.283  -0.279
 -0.276  -0.272  -0.269  -0.265  -0.257  -0.255  -0.252  -0.250
 -0.248  -0.241  -0.237  -0.230  -0.197  -0.192

          Ground-State Mulliken Net Atomic Charges

     Atom                 Charge (a.u.)
  ----------------------------------------
      1 C                     0.276037
      2 C                    -0.114703
      3 N                    -0.486336
      4 C                    -0.105444
      5 C                     0.090531
      6 C                     0.043284
      7 C                     0.066847
      8 C                     0.056335
      9 C                     0.218322
     10 N                    -0.509647
     11 N                    -0.545847
     12 C                     0.227542
     13 C                     0.290647
     14 S                     0.599109
     15 N                    -0.558096
     16 C                    -0.234699
     17 S                     0.296962
     18 C                    -0.101059
     19 C                    -0.213313
     20 S                     0.260145
     21 C                     0.136336
     22 C                     0.037358
     23 C                    -0.321472
     24 C                    -0.017756
     25 N                    -0.407470
     26 S                     0.282032
     27 C                     0.133294
     28 C                    -0.320279
     29 C                    -0.225937
     30 H                     0.100925
     31 H                     0.097255
     32 H                     0.121337
     33 H                     0.108519
     34 H                     0.128947
     35 H                     0.106997
     36 H                     0.120231
     37 H                     0.125028
     38 H                     0.094120
     39 C                    -0.181332
     40 H                     0.116742
     41 H                     0.093628
     42 H                     0.124122
     43 C                    -0.181985
     44 H                     0.092055
     45 C                    -0.162742
     46 H                     0.093561
     47 H                     0.087984
     48 H                     0.093214
     49 C                    -0.169968
     50 H                     0.089225
     51 C                    -0.317454
     52 H                     0.089813
     53 H                     0.094609
     54 H                     0.094628
     55 H                     0.101658
     56 C                     0.285016
     57 C                    -0.113624
     58 N                    -0.478235
     59 C                    -0.078652
     60 C                     0.045997
     61 C                     0.036169
     62 C                     0.042726
     63 C                     0.047595
     64 C                     0.233593
     65 N                    -0.529399
     66 N                    -0.554690
     67 C                     0.222891
     68 C                     0.294477
     69 S                     0.597835
     70 N                    -0.562247
     71 C                    -0.231872
     72 S                     0.316558
     73 C                    -0.117877
     74 C                    -0.250490
     75 S                     0.281557
     76 C                     0.190659
     77 C                     0.074952
     78 C                    -0.315357
     79 C                    -0.052433
     80 N                    -0.452340
     81 S                     0.264267
     82 C                     0.141625
     83 C                    -0.309294
     84 C                    -0.236346
     85 H                     0.090721
     86 H                     0.131502
     87 H                     0.111830
     88 H                     0.116837
     89 H                     0.130256
     90 H                     0.126719
     91 H                     0.121235
     92 H                     0.124045
     93 H                     0.119432
     94 C                    -0.180303
     95 H                     0.100127
     96 H                     0.090053
     97 H                     0.100628
     98 C                    -0.189482
     99 H                     0.085237
    100 C                    -0.154346
    101 H                     0.088583
    102 H                     0.091161
    103 H                     0.106506
    104 C                    -0.179947
    105 H                     0.088902
    106 C                    -0.321118
    107 H                     0.091497
    108 H                     0.105650
    109 H                     0.095751
    110 H                     0.101625
  ----------------------------------------
  Sum of atomic charges =     0.000000

                    Cartesian Multipole Moments
 -----------------------------------------------------------------
    Charge (ESU x 10^10)
                 0.0000
    Dipole Moment (Debye)
         X      -3.5747      Y       1.9646      Z       0.0833
       Tot       4.0799
    Quadrupole Moments (Debye-Ang)
        XX    -479.9333     XY      -0.4589     YY    -392.3000
        XZ      13.2791     YZ       1.4670     ZZ    -433.1318

 Total job time:  90.94s(wall), 967.74s(cpu)
        *  Thank you very much for using Q-Chem.  Have a nice day.  *
