 Q-Chem 4.4, Q-Chem, Inc., Pleasanton, CA (2016)
 Q-Chem 4.4.2 for Intel X86 Linux

User input:
--------------------------------------------------------------
$comment
SP
$end

$rem
MEM_STATIC 5000
MEM_TOTAL 20000
JOBTYPE SP
EXCHANGE B3LYP
BASIS 6-31g(d,p)
$end

$molecule
0 1
C           8.521000     18.961000     -7.674000
C           7.254000     18.640000     -8.247000
N           9.184000     18.096000     -6.950000
C           6.681000     17.372000     -7.963000
C           8.673000     16.896000     -6.624000
C           7.410000     16.445000     -7.178000
C           6.884000     15.109000     -6.892000
C           5.647000     14.812000     -6.315000
C           7.632000     13.931000     -7.198000
N           5.116000     13.621000     -5.953000
N           8.779000     13.924000     -7.880000
C           7.110000     12.667000     -6.901000
C           5.860000     12.529000     -6.225000
S           9.177000     12.421000     -8.026000
N           7.901000     11.651000     -7.251000
C           5.340000     11.184000     -5.970000
S           6.205000      9.632000     -5.891000
C           4.020000     10.989000     -5.522000
C           4.773000      8.758000     -5.394000
S           2.808000     12.102000     -5.060000
C           3.752000      9.691000     -5.218000
C           4.692000      7.279000     -5.275000
C           1.785000     10.720000     -4.526000
C           2.453000      9.525000     -4.673000
N           5.511000      6.595000     -5.978000
S           3.530000      6.291000     -4.374000
C           5.205000      5.246000     -6.042000
C           4.233000      4.872000     -5.165000
C           9.180000     20.335000     -7.923000
H           6.593000     19.457000     -8.522000
H           5.665000     17.122000     -8.255000
H           9.209000     16.346000     -5.852000
H           4.964000     15.640000     -6.131000
H           0.759000     10.893000     -4.230000
H           2.015000      8.577000     -4.382000
H           5.793000      4.644000     -6.723000
H           3.861000      3.880000     -4.946000
H          10.259000     20.137000     -7.930000
C           8.652000     21.403000     -6.930000
H           8.887000     20.609000     -8.945000
H           8.773000     21.159000     -5.867000
H           7.581000     21.543000     -7.125000
C           9.507000     22.702000     -7.307000
H          10.551000     22.459000     -7.075000
C           8.929000     24.044000     -6.761000
H           9.474000     22.934000     -8.379000
H           9.007000     23.883000     -5.679000
H           7.857000     24.035000     -6.993000
C           9.546000     25.386000     -7.103000
H          10.620000     25.281000     -6.907000
C           8.812000     26.458000     -6.259000
H           9.351000     25.417000     -8.182000
H           9.271000     27.442000     -6.414000
H           8.658000     26.176000     -5.210000
H           7.861000     26.505000     -6.804000
C           4.268000      6.441000    -10.124000
C           4.393000      5.121000     -9.715000
N           3.369000      6.915000    -10.988000
C           3.446000      4.205000    -10.275000
C           2.498000      6.021000    -11.552000
C           2.479000      4.658000    -11.193000
C           1.565000      3.720000    -11.865000
C           0.211000      4.139000    -12.128000
C           1.897000      2.374000    -12.161000
N          -0.752000      3.277000    -12.612000
N           3.107000      1.804000    -12.128000
C           0.930000      1.514000    -12.673000
C          -0.416000      2.009000    -12.894000
S           2.967000      0.246000    -12.416000
N           1.387000      0.259000    -12.887000
C          -1.367000      1.227000    -13.707000
S          -0.997000     -0.134000    -14.802000
C          -2.712000      1.538000    -13.786000
C          -2.791000     -0.372000    -15.142000
S          -3.677000      2.539000    -12.742000
C          -3.489000      0.647000    -14.534000
C          -3.367000     -1.514000    -15.757000
C          -5.100000      2.007000    -13.634000
C          -4.862000      0.905000    -14.384000
N          -2.676000     -2.628000    -15.762000
S          -4.953000     -1.689000    -16.460000
C          -3.267000     -3.627000    -16.431000
C          -4.512000     -3.346000    -16.866000
C           5.365000      7.353000     -9.552000
H           5.198000      4.874000     -9.030000
H           3.592000      3.172000     -9.973000
H           1.739000      6.513000    -12.157000
H          -0.133000      5.135000    -11.855000
H          -6.006000      2.550000    -13.398000
H          -5.659000      0.323000    -14.833000
H          -2.728000     -4.533000    -16.676000
H          -5.194000     -3.937000    -17.462000
H           5.111000      8.420000     -9.557000
C           6.714000      6.996000    -10.339000
H           5.544000      7.033000     -8.518000
H           6.538000      7.283000    -11.383000
H           6.979000      5.940000    -10.198000
C           7.918000      7.749000     -9.691000
H           8.645000      7.886000    -10.502000
C           8.573000      7.043000     -8.467000
H           7.655000      8.797000     -9.501000
H           8.746000      6.010000     -8.793000
H           7.856000      7.164000     -7.646000
C           9.932000      7.619000     -7.953000
H          10.746000      7.511000     -8.680000
C          10.454000      7.017000     -6.584000
H           9.812000      8.702000     -7.827000
H          10.797000      5.999000     -6.809000
H           9.690000      6.897000     -5.806000
H          11.325000      7.540000     -6.170000
$end

--------------------------------------------------------------

             Standard Nuclear Orientation (Angstroms)
    I     Atom           X                Y                Z
 ----------------------------------------------------------------
    1      C      11.6435345373     2.1834210017    -1.2836519014
    2      C      10.6066217449     3.0880007536    -0.9052257746
    3      N      11.4809822015     0.8870799569    -1.2126122392
    4      C       9.3991052258     2.5565734307    -0.3795853495
    5      C      10.3719535934     0.3332168296    -0.6923352143
    6      C       9.2364298413     1.1510491638    -0.3086399165
    7      C       7.9951220897     0.5515456945     0.1844307236
    8      C       7.3827384405     0.8079087123     1.4134837205
    9      C       7.2636799327    -0.3970858497    -0.5939744178
   10      N       6.2842285247     0.2510860577     1.9744743588
   11      N       7.5493139384    -0.7126102325    -1.8587430048
   12      C       6.0871431642    -0.9643485147    -0.0916166753
   13      C       5.6332414439    -0.6654065812     1.2286586553
   14      S       6.4453502838    -1.7234818058    -2.3038631141
   15      N       5.4935672893    -1.8225077846    -0.9232820817
   16      C       4.3767277873    -1.2562870230     1.6939367811
   17      S       3.5220672785    -2.7031480213     1.1114261236
   18      C       3.7664760593    -0.8197283986     2.8847929420
   19      C       2.3190434267    -2.6112325870     2.3786254627
   20      S       4.2858179568     0.2851976959     4.0808612174
   21      C       2.6802527335    -1.5637107199     3.2248711567
   22      C       1.1063895053    -3.4673009271     2.4477663620
   23      C       2.8642653067    -0.1787890552     5.0836141071
   24      C       2.1364179083    -1.1776994533     4.4767581265
   25      N       0.6785367999    -3.9565948386     1.3476029511
   26      S       0.0702127508    -3.8293393759     3.8382536489
   27      C      -0.5921153312    -4.5005391113     1.4318691354
   28      C      -1.0448780597    -4.6159212536     2.7107287340
   29      C      12.9893556595     2.7033656459    -1.8337256002
   30      H      10.8833181632     4.1046040516    -0.6406660902
   31      H       8.6306629179     3.1924037267     0.0508054661
   32      H      10.4268018675    -0.7346592835    -0.4863928100
   33      H       7.8145447057     1.5871296109     2.0398120214
   34      H       2.6390636079     0.3737563252     5.9859437572
   35      H       1.2560104346    -1.6132415634     4.9354680028
   36      H      -1.0504548171    -4.8160372274     0.5032708076
   37      H      -1.9558396464    -5.0759986859     3.0697367339
   38      H      13.3164687204     1.9428511337    -2.5535232956
   39      C      13.9643671095     3.0721293861    -0.6853254190
   40      H      12.7334038832     3.6078356649    -2.4010277004
   41      H      14.1804542422     2.2656804778     0.0267788636
   42      H      13.5245126280     3.9079944949    -0.1262873568
   43      C      15.2944120607     3.5027330958    -1.4638598581
   44      H      15.6498349528     2.6040888961    -1.9824369211
   45      C      16.3198966680     4.3072437815    -0.6069421976
   46      H      15.1055477094     4.2542263324    -2.2408316543
   47      H      16.5910763818     3.5632021934     0.1517360464
   48      H      15.7444812186     5.0799577328    -0.0826338819
   49      C      17.5886128732     4.8864894373    -1.2014593638
   50      H      18.0589564023     4.0680921906    -1.7599572700
   51      C      18.4222496397     5.4654348333    -0.0309261648
   52      H      17.1581729594     5.6258764056    -1.8879398018
   53      H      19.3880936546     5.8325683224    -0.3987852953
   54      H      18.4768562539     4.8115013237     0.8482951286
   55      H      17.8416412890     6.3719523979     0.1806272520
   56      C      -1.4252534362    -0.9719391666    -0.9813406210
   57      C      -2.3145462887    -2.0247090551    -0.8196625942
   58      N      -1.7395075768     0.3237603156    -1.0235328836
   59      C      -3.6902967336    -1.6581217365    -0.6700315439
   60      C      -3.0638520509     0.6591206101    -0.9254605293
   61      C      -4.0712098156    -0.3029995573    -0.7096686910
   62      C      -5.4880843417     0.0938595310    -0.6673196517
   63      C      -5.8507683424     1.2970028806     0.0390459732
   64      C      -6.5440755760    -0.7041590128    -1.1748675971
   65      N      -7.1635682750     1.6613334812     0.2592471322
   66      N      -6.4494804999    -1.7771247330    -1.9685207548
   67      C      -7.8665785656    -0.3206044678    -0.9731134066
   68      C      -8.1488345057     0.8972778523    -0.2364477846
   69      S      -7.8924324780    -2.4145050861    -2.1723438998
   70      N      -8.7628209730    -1.1884893405    -1.4957943752
   71      C      -9.5022664579     1.4838567896    -0.2687138825
   72      S     -10.8249879279     1.1015900677    -1.4056070464
   73      C      -9.8870744634     2.5173466112     0.5654375352
   74      C     -11.9548594047     2.2413435709    -0.5028155988
   75      S      -9.1491984721     3.0837228625     2.0344232272
   76      C     -11.2286403992     2.9005804829     0.4632287325
   77      C     -13.3658792035     2.2863535251    -0.6482880410
   78      C     -10.5392809957     4.1415364388     2.2631545443
   79      C     -11.5919239845     3.7927717721     1.4860741461
   80      N     -13.9683339083     1.2399769915    -1.1588235235
   81      S     -14.4724973328     3.5392790914    -0.1525019570
   82      C     -15.2869750933     1.4053432009    -1.3281824379
   83      C     -15.7718984705     2.5606462715    -0.8298500856
   84      C       0.0197283295    -1.4381766312    -1.2200607987
   85      H      -1.9173974226    -3.0347172451    -0.8400398933
   86      H      -4.3704005887    -2.5009983537    -0.5886266631
   87      H      -3.2113442738     1.7354326150    -0.8624644008
   88      H      -5.0958760612     1.9167393817     0.5196136719
   89      H     -10.4258892540     4.8648796401     3.0602103304
   90      H     -12.5868397666     4.1959022281     1.6382662020
   91      H     -15.8693674550     0.7030881375    -1.9104529618
   92      H     -16.7717382681     2.9714445008    -0.8642912511
   93      H       0.7795211649    -0.6769861863    -1.0048075670
   94      C       0.0740159759    -2.0154352119    -2.7135280339
   95      H       0.1899219277    -2.3065339707    -0.5715342610
   96      H      -0.1253453458    -1.1620010386    -3.3732144558
   97      H      -0.6254602058    -2.8531619646    -2.8326454508
   98      C       1.4629206625    -2.6790215022    -2.9726149052
   99      H       1.6314623311    -2.5868452194    -4.0534091682
  100      C       1.5975086331    -4.1602572974    -2.5105936966
  101      H       2.2693016400    -2.0323091084    -2.6050747049
  102      H       0.7161458183    -4.6679437357    -2.9213832644
  103      H       1.6490814644    -4.1178194234    -1.4159201060
  104      C       2.8660162004    -4.9428662206    -2.9809816482
  105      H       2.9013592959    -5.0891797639    -4.0673205514
  106      C       3.0747528749    -6.3659165321    -2.3173508684
  107      H       3.7446569663    -4.3269250274    -2.7534473627
  108      H       2.3176383768    -7.0243870314    -2.7620892615
  109      H       2.8920853825    -6.4076204876    -1.2364839167
  110      H       4.0430137064    -6.8276310555    -2.5472566338
 ----------------------------------------------------------------

   10   -5663.5128756716      3.21E-06 Convergence criterion met
 Total energy in the final basis set = -5663.5128756716

                    Orbital Energies (a.u.)
 --------------------------------------------------------------

 Alpha MOs
 -- Occupied --
-88.990 -88.983 -88.933 -88.929 -88.924 -88.923 -88.910 -88.904
-14.384 -14.381 -14.380 -14.375 -14.352 -14.351 -14.347 -14.332
-14.324 -14.324 -10.280 -10.264 -10.264 -10.262 -10.253 -10.252
-10.252 -10.249 -10.248 -10.245 -10.240 -10.240 -10.239 -10.239
-10.238 -10.236 -10.233 -10.227 -10.226 -10.226 -10.226 -10.225
-10.225 -10.225 -10.224 -10.223 -10.220 -10.218 -10.217 -10.214
-10.213 -10.210 -10.207 -10.206 -10.203 -10.200 -10.200 -10.194
-10.192 -10.186 -10.181 -10.180 -10.179 -10.178 -10.177 -10.174
-10.173 -10.171 -10.170 -10.169  -8.046  -8.040  -7.994  -7.987
 -7.985  -7.980  -7.970  -7.965  -6.011  -6.005  -6.005  -6.003
 -5.999  -5.997  -5.958  -5.954  -5.952  -5.951  -5.949  -5.948
 -5.946  -5.945  -5.944  -5.942  -5.941  -5.936  -5.934  -5.930
 -5.929  -5.926  -5.926  -5.921  -1.048  -1.041  -0.984  -0.976
 -0.959  -0.950  -0.941  -0.931  -0.918  -0.911  -0.911  -0.898
 -0.846  -0.841  -0.837  -0.834  -0.808  -0.805  -0.803  -0.802
 -0.800  -0.795  -0.795  -0.794  -0.783  -0.776  -0.767  -0.759
 -0.753  -0.747  -0.742  -0.735  -0.727  -0.722  -0.710  -0.705
 -0.695  -0.686  -0.674  -0.674  -0.654  -0.649  -0.647  -0.640
 -0.635  -0.632  -0.629  -0.625  -0.613  -0.606  -0.606  -0.598
 -0.595  -0.591  -0.586  -0.579  -0.576  -0.575  -0.567  -0.558
 -0.547  -0.544  -0.542  -0.538  -0.526  -0.524  -0.522  -0.518
 -0.506  -0.500  -0.499  -0.497  -0.490  -0.485  -0.480  -0.476
 -0.474  -0.472  -0.469  -0.468  -0.464  -0.457  -0.452  -0.450
 -0.445  -0.443  -0.443  -0.441  -0.440  -0.436  -0.433  -0.432
 -0.428  -0.425  -0.424  -0.420  -0.419  -0.415  -0.414  -0.412
 -0.408  -0.406  -0.405  -0.403  -0.402  -0.400  -0.398  -0.396
 -0.393  -0.392  -0.391  -0.390  -0.389  -0.387  -0.386  -0.382
 -0.374  -0.372  -0.371  -0.365  -0.364  -0.356  -0.355  -0.353
 -0.353  -0.351  -0.350  -0.349  -0.348  -0.347  -0.342  -0.339
 -0.338  -0.338  -0.335  -0.332  -0.328  -0.324  -0.322  -0.318
 -0.310  -0.309  -0.308  -0.306  -0.305  -0.302  -0.300  -0.297
 -0.295  -0.293  -0.292  -0.289  -0.285  -0.282  -0.279  -0.278
 -0.275  -0.272  -0.264  -0.261  -0.258  -0.253  -0.247  -0.245
 -0.243  -0.242  -0.236  -0.227  -0.198  -0.191

          Ground-State Mulliken Net Atomic Charges

     Atom                 Charge (a.u.)
  ----------------------------------------
      1 C                     0.256899
      2 C                    -0.127049
      3 N                    -0.462785
      4 C                    -0.074549
      5 C                     0.097455
      6 C                     0.018403
      7 C                     0.029492
      8 C                     0.046040
      9 C                     0.198025
     10 N                    -0.531358
     11 N                    -0.504796
     12 C                     0.226501
     13 C                     0.319887
     14 S                     0.595469
     15 N                    -0.585243
     16 C                    -0.238219
     17 S                     0.376724
     18 C                    -0.111511
     19 C                    -0.231209
     20 S                     0.291184
     21 C                     0.144463
     22 C                     0.072563
     23 C                    -0.322611
     24 C                    -0.067452
     25 N                    -0.415820
     26 S                     0.261507
     27 C                     0.125372
     28 C                    -0.312611
     29 C                    -0.216450
     30 H                     0.092040
     31 H                     0.102744
     32 H                     0.109677
     33 H                     0.101307
     34 H                     0.130976
     35 H                     0.107925
     36 H                     0.120312
     37 H                     0.141618
     38 H                     0.119355
     39 C                    -0.177447
     40 H                     0.104403
     41 H                     0.114052
     42 H                     0.094796
     43 C                    -0.185655
     44 H                     0.097941
     45 C                    -0.180812
     46 H                     0.086613
     47 H                     0.082896
     48 H                     0.084314
     49 C                    -0.181029
     50 H                     0.095319
     51 C                    -0.309179
     52 H                     0.094557
     53 H                     0.101309
     54 H                     0.112099
     55 H                     0.106508
     56 C                     0.292323
     57 C                    -0.101956
     58 N                    -0.486823
     59 C                    -0.078421
     60 C                     0.055587
     61 C                     0.040207
     62 C                     0.029285
     63 C                     0.055527
     64 C                     0.230439
     65 N                    -0.506439
     66 N                    -0.548294
     67 C                     0.194943
     68 C                     0.291331
     69 S                     0.604878
     70 N                    -0.568006
     71 C                    -0.199342
     72 S                     0.345940
     73 C                    -0.123762
     74 C                    -0.222945
     75 S                     0.275288
     76 C                     0.158989
     77 C                     0.041942
     78 C                    -0.307013
     79 C                    -0.067584
     80 N                    -0.422377
     81 S                     0.252160
     82 C                     0.138413
     83 C                    -0.313728
     84 C                    -0.252812
     85 H                     0.085044
     86 H                     0.103930
     87 H                     0.104819
     88 H                     0.123944
     89 H                     0.133263
     90 H                     0.112868
     91 H                     0.115168
     92 H                     0.132150
     93 H                     0.109555
     94 C                    -0.181403
     95 H                     0.130430
     96 H                     0.108513
     97 H                     0.090652
     98 C                    -0.191138
     99 H                     0.080122
    100 C                    -0.182587
    101 H                     0.098119
    102 H                     0.081659
    103 H                     0.128877
    104 C                    -0.185834
    105 H                     0.090230
    106 C                    -0.325469
    107 H                     0.097338
    108 H                     0.098194
    109 H                     0.108012
    110 H                     0.100841
  ----------------------------------------
  Sum of atomic charges =     0.000000

                    Cartesian Multipole Moments
 -----------------------------------------------------------------
    Charge (ESU x 10^10)
                 0.0000
    Dipole Moment (Debye)
         X      -2.5047      Y      -0.1258      Z       2.5613
       Tot       3.5846
    Quadrupole Moments (Debye-Ang)
        XX    -400.2771     XY      12.9613     YY    -418.2770
        XZ      -5.0564     YZ       5.3400     ZZ    -436.4764

 Total job time:  92.69s(wall), 1011.49s(cpu)
        *  Thank you very much for using Q-Chem.  Have a nice day.  *
