 Q-Chem 4.4, Q-Chem, Inc., Pleasanton, CA (2016)
 Q-Chem 4.4.2 for Intel X86 Linux

User input:
--------------------------------------------------------------
$comment
SP
$end

$rem
MEM_STATIC 5000
MEM_TOTAL 20000
JOBTYPE SP
EXCHANGE B3LYP
BASIS 6-31g(d,p)
$end

$molecule
0 1
C          15.497000     16.387000    -14.884000
C          15.357000     17.572000    -14.182000
N          14.467000     15.598000    -15.203000
C          14.045000     18.072000    -13.882000
C          13.231000     16.033000    -14.818000
C          12.979000     17.166000    -14.067000
C          11.583000     17.598000    -13.664000
C          11.399000     18.370000    -12.519000
C          10.367000     17.150000    -14.141000
N          10.268000     18.908000    -12.080000
N          10.282000     16.213000    -15.114000
C           9.119000     17.653000    -13.677000
C           9.127000     18.555000    -12.563000
S           8.705000     16.249000    -15.505000
N           8.068000     17.190000    -14.333000
C           7.865000     19.155000    -12.040000
S           6.254000     18.412000    -12.097000
C           7.781000     20.411000    -11.462000
C           5.566000     19.828000    -11.296000
S           9.057000     21.675000    -11.271000
C           6.515000     20.791000    -11.107000
C           4.155000     20.029000    -11.035000
C           7.753000     22.736000    -10.714000
C           6.482000     22.159000    -10.704000
N           3.545000     19.035000    -10.413000
S           3.049000     21.384000    -11.536000
C           2.258000     19.398000    -10.083000
C           1.771000     20.456000    -10.829000
C          16.915000     15.786000    -15.033000
H          16.232000     18.156000    -13.910000
H          14.001000     19.006000    -13.330000
H          12.433000     15.322000    -15.028000
H          12.316000     18.670000    -12.014000
H           8.166000     23.679000    -10.381000
H           5.559000     22.653000    -10.424000
H           1.690000     18.791000     -9.391000
H           0.741000     20.789000    -10.835000
H          16.976000     15.349000    -16.037000
C          17.205000     14.716000    -13.933000
H          17.701000     16.514000    -14.795000
H          18.125000     14.129000    -14.040000
H          16.358000     14.020000    -13.880000
C          17.266000     15.286000    -12.468000
H          17.920000     16.164000    -12.394000
C          17.942000     14.258000    -11.460000
H          16.292000     15.661000    -12.131000
H          18.811000     13.750000    -11.895000
H          17.172000     13.513000    -11.225000
C          18.452000     14.761000    -10.098000
H          18.689000     13.927000     -9.426000
C          17.455000     15.512000     -9.235000
H          19.355000     15.360000    -10.273000
H          17.333000     16.602000     -9.272000
H          17.607000     15.276000     -8.175000
H          16.439000     15.115000     -9.351000
C          19.448000     20.136000    -10.324000
C          18.311000     19.380000     -9.967000
N          19.440000     21.118000    -11.230000
C          17.020000     19.744000    -10.404000
C          18.210000     21.438000    -11.779000
C          16.976000     20.845000    -11.338000
C          15.638000     21.349000    -11.870000
C          15.697000     22.126000    -13.017000
C          14.414000     21.413000    -11.146000
N          14.699000     22.918000    -13.465000
N          14.244000     20.715000    -10.023000
C          13.340000     22.160000    -11.588000
C          13.491000     22.961000    -12.775000
S          12.692000     21.032000     -9.590000
N          12.206000     22.022000    -10.831000
C          12.399000     23.777000    -13.358000
S          10.882000     24.213000    -12.526000
C          12.462000     24.549000    -14.508000
C          10.475000     25.427000    -13.738000
S          13.773000     24.669000    -15.648000
C          11.450000     25.394000    -14.696000
C           9.338000     26.327000    -13.654000
C          12.887000     25.970000    -16.456000
C          11.673000     26.221000    -15.848000
N           9.237000     27.208000    -14.639000
S           8.059000     26.314000    -12.451000
C           8.119000     28.000000    -14.487000
C           7.358000     27.695000    -13.393000
C          20.809000     19.850000     -9.753000
H          18.306000     18.686000     -9.131000
H          16.096000     19.290000    -10.057000
H          18.155000     22.418000    -12.251000
H          16.627000     22.207000    -13.578000
H          13.278000     26.279000    -17.417000
H          11.039000     27.040000    -16.171000
H           7.931000     28.927000    -15.013000
H           6.465000     28.162000    -12.998000
H          21.534000     20.657000     -9.918000
C          21.517000     18.516000    -10.211000
H          20.681000     19.744000     -8.668000
H          21.530000     17.906000     -9.300000
H          22.531000     18.795000    -10.521000
C          20.794000     17.586000    -11.260000
H          21.328000     16.628000    -11.280000
C          20.733000     18.149000    -12.695000
H          19.840000     17.238000    -10.846000
H          21.731000     18.564000    -12.878000
H          19.956000     18.919000    -12.778000
C          20.498000     17.090000    -13.777000
H          21.354000     16.403000    -13.788000
C          20.309000     17.727000    -15.171000
H          19.621000     16.469000    -13.557000
H          19.330000     18.207000    -15.289000
H          20.484000     16.938000    -15.914000
H          21.046000     18.491000    -15.447000
$end

--------------------------------------------------------------

             Standard Nuclear Orientation (Angstroms)
    I     Atom           X                Y                Z
 ----------------------------------------------------------------
    1      C       4.3825960587    -2.3836664550    -2.5977935662
    2      C       3.8487043020    -1.3876892934    -1.7980322983
    3      N       3.6855624884    -3.4476008994    -3.0069019870
    4      C       2.4477780393    -1.4000286690    -1.4840301543
    5      C       2.3792497686    -3.5020678955    -2.6122801116
    6      C       1.7587133391    -2.5977040866    -1.7707014517
    7      C       0.3034779099    -2.7117845250    -1.3618928177
    8      C      -0.1246249084    -2.1565525592    -0.1580197176
    9      C      -0.6874750048    -3.5071264917    -1.9025706116
   10      N      -1.3674666425    -2.0833990476     0.3016747327
   11      N      -0.4530797896    -4.3247332451    -2.9554243905
   12      C      -2.0277641051    -3.5092774947    -1.4235826149
   13      C      -2.3209273255    -2.7635689183    -0.2350381078
   14      S      -1.9491663292    -4.8001086057    -3.3759589701
   15      N      -2.8604723481    -4.2456739748    -2.1402577198
   16      C      -3.7072872916    -2.6852066528     0.3108908249
   17      S      -4.9628137468    -3.9300732107     0.1541120849
   18      C      -4.2143877465    -1.5924635601     0.9945849540
   19      C      -6.0897645744    -2.9161899870     1.0607672791
   20      S      -3.4519083868     0.0116085535     1.3231133095
   21      C      -5.5301432091    -1.7059799652     1.3538656083
   22      C      -7.4806599357    -3.2385509701     1.3076204550
   23      C      -5.0366325223     0.5031575217     1.9423184661
   24      C      -6.0298142854    -0.4753192953     1.8741781403
   25      N      -7.7034612350    -4.4334368389     1.8268769827
   26      S      -8.9916192951    -2.3092119114     0.9031544757
   27      C      -9.0332949767    -4.5678415280     2.1593158478
   28      C      -9.8632083312    -3.6804987972     1.4983198552
   29      C       5.9193771221    -2.4426540234    -2.7679418253
   30      H       4.4706621334    -0.5645526523    -1.4570344597
   31      H       2.0892154904    -0.5920082812    -0.8535288050
   32      H       1.8740395828    -4.4228544241    -2.9009665105
   33      H       0.6371742050    -1.6051497072     0.3910986719
   34      H      -4.9716379612     1.4968668496     2.3654313101
   35      H      -7.0638442596    -0.3572731480     2.1761915830
   36      H      -9.3497140047    -5.3929271342     2.7830543676
   37      H     -10.9448355527    -3.7241675939     1.4990879179
   38      H       6.1177018389    -2.7399544408    -3.8047570299
   39      C       6.5720752325    -3.4408877285    -1.7597183150
   40      H       6.4077294486    -1.5126325347    -2.4501430907
   41      H       7.6371321306    -3.6623608205    -1.8976366720
   42      H       6.0182989108    -4.3881274106    -1.7862281300
   43      C       6.4468254592    -3.0185378363    -0.2494934765
   44      H       6.7578664742    -1.9792125246    -0.0847743718
   45      C       7.4463086392    -3.8361226379     0.6791681762
   46      H       5.4066199515    -3.0343772266     0.0977695584
   47      H       8.4329746762    -3.9719911997     0.2203873295
   48      H       6.9835133058    -4.8188865880     0.8313046210
   49      C       7.7645144414    -3.3122452541     2.0907100828
   50      H       8.2817097651    -4.0699163025     2.6921687925
   51      C       6.5780003566    -3.0318416483     2.9942238594
   52      H       8.4031506723    -2.4253849010     1.9884482689
   53      H       6.0865290935    -2.0522040925     3.0500741656
   54      H       6.8126393022    -3.2948751762     4.0325676986
   55      H       5.7606603729    -3.7428800559     2.8218848498
   56      C       6.8396680598     2.0735892689     2.3574733885
   57      C       6.0375011768     0.9430072547     2.6221743532
   58      N       6.4839080408     3.0695071285     1.5408912275
   59      C       4.6959969067     0.8768768446     2.1907359889
   60      C       5.2137411432     2.9933454197     0.9953855482
   61      C       4.2650617134     1.9740681877     1.3558952761
   62      C       2.8301428410     2.0310400859     0.8410690604
   63      C       2.6057070468     2.8801285919    -0.2320088880
   64      C       1.6666281347     1.6037065778     1.5411173452
   65      N       1.3911461526     3.3159543682    -0.6305935430
   66      N       1.7593726871     0.7922863518     2.5947912344
   67      C       0.3963602050     1.9707313640     1.1429199155
   68      C       0.2495656161     2.8775661307     0.0341038557
   69      S       0.1977856760     0.5142532207     3.0200271513
   70      N      -0.6125798326     1.3827569235     1.8601193702
   71      C      -1.0628261286     3.3154823699    -0.4988748269
   72      S      -2.6287498209     3.1249593624     0.3349075028
   73      C      -1.2818104684     4.1615479976    -1.5752910162
   74      C      -3.4420973995     4.2274067725    -0.7748061649
   75      S      -0.1043427200     4.8280823133    -2.6716589778
   76      C      -2.5252547478     4.6187681461    -1.7106019906
   77      C      -4.8191551964     4.6685213465    -0.6371298897
   78      C      -1.3932357638     5.8103707843    -3.3818174681
   79      C      -2.6131259370     5.5715984205    -2.7807211999
   80      N      -5.2280637767     5.5450670661    -1.5432470865
   81      S      -6.0029452300     4.1073544892     0.5320372988
   82      C      -6.5493044056     5.8857371075    -1.3468823148
   83      C      -7.1472075040     5.2402169341    -0.3005565573
   84      C       8.2212288076     2.2247399762     2.9307110042
   85      H       6.2808592098     0.2179609656     3.3939526545
   86      H       3.9892514261     0.1028379924     2.4765255638
   87      H       4.8188537493     3.9322957620     0.6098402191
   88      H       3.4448524253     3.3269087941    -0.7634263176
   89      H      -1.1425936296     6.3200672104    -4.3033765133
   90      H      -3.4942205094     6.1470263149    -3.0445413904
   91      H      -7.0512132054     6.7341234270    -1.7937348739
   92      H      -8.1426222689     5.3330824654     0.1142788787
   93      H       8.6210663357     3.2436358129     2.8527352061
   94      C       9.3419993688     1.2636395377     2.3732674677
   95      H       8.1484560550     1.9843323248     3.9992395661
   96      H       9.5739637564     0.6165663529     3.2274798631
   97      H      10.1940297230     1.9019057643     2.1109746930
   98      C       8.9745544008     0.2392812654     1.2314687441
   99      H       9.8064558966    -0.4697846360     1.1393522488
  100      C       8.7086160203     0.8728301438    -0.1497653405
  101      H       8.2036935685    -0.4520719628     1.5926062403
  102      H       9.4998944409     1.6212657110    -0.2740258040
  103      H       7.7126366370     1.3316403076    -0.1819569810
  104      C       8.8433363305    -0.1007458371    -1.3251079490
  105      H       9.8838390102    -0.4463314016    -1.3775559338
  106      C       8.4321239570     0.5541112302    -2.6618175679
  107      H       8.2371432222    -1.0032234421    -1.1793887394
  108      H       7.3464545162     0.6754167460    -2.7586258173
  109      H       8.8616239754    -0.0561265514    -3.4670098332
  110      H       8.8569837481     1.5469161821    -2.8538422681
 ----------------------------------------------------------------

   10   -5663.4905666100      6.30E-06 Convergence criterion met
 Total energy in the final basis set = -5663.4905666100

                    Orbital Energies (a.u.)
 --------------------------------------------------------------

 Alpha MOs
 -- Occupied --
-88.991 -88.982 -88.934 -88.932 -88.929 -88.926 -88.906 -88.904
-14.397 -14.389 -14.387 -14.381 -14.353 -14.348 -14.346 -14.346
-14.335 -14.329 -10.279 -10.273 -10.272 -10.262 -10.262 -10.259
-10.253 -10.252 -10.248 -10.247 -10.239 -10.238 -10.237 -10.237
-10.237 -10.236 -10.233 -10.232 -10.232 -10.231 -10.230 -10.226
-10.226 -10.225 -10.225 -10.224 -10.220 -10.220 -10.220 -10.218
-10.216 -10.215 -10.207 -10.204 -10.203 -10.203 -10.197 -10.193
-10.185 -10.185 -10.183 -10.180 -10.179 -10.178 -10.178 -10.177
-10.175 -10.171 -10.171 -10.170  -8.046  -8.038  -7.994  -7.992
 -7.988  -7.985  -7.965  -7.965  -6.011  -6.006  -6.004  -6.003
 -5.998  -5.996  -5.958  -5.956  -5.955  -5.953  -5.952  -5.951
 -5.949  -5.949  -5.949  -5.945  -5.945  -5.941  -5.929  -5.929
 -5.926  -5.925  -5.921  -5.921  -1.044  -1.041  -0.976  -0.972
 -0.968  -0.950  -0.937  -0.935  -0.922  -0.916  -0.911  -0.910
 -0.847  -0.840  -0.837  -0.829  -0.809  -0.807  -0.803  -0.802
 -0.800  -0.798  -0.796  -0.794  -0.782  -0.780  -0.769  -0.766
 -0.750  -0.747  -0.741  -0.737  -0.730  -0.724  -0.709  -0.705
 -0.694  -0.694  -0.677  -0.673  -0.656  -0.655  -0.649  -0.648
 -0.640  -0.637  -0.627  -0.625  -0.614  -0.613  -0.599  -0.599
 -0.594  -0.593  -0.586  -0.580  -0.577  -0.575  -0.564  -0.558
 -0.557  -0.547  -0.543  -0.538  -0.527  -0.525  -0.518  -0.513
 -0.508  -0.503  -0.498  -0.497  -0.488  -0.483  -0.482  -0.477
 -0.476  -0.474  -0.468  -0.467  -0.463  -0.459  -0.452  -0.449
 -0.446  -0.444  -0.441  -0.441  -0.437  -0.435  -0.435  -0.432
 -0.430  -0.427  -0.424  -0.422  -0.417  -0.416  -0.414  -0.414
 -0.413  -0.407  -0.406  -0.403  -0.401  -0.400  -0.398  -0.395
 -0.394  -0.392  -0.391  -0.389  -0.388  -0.385  -0.383  -0.382
 -0.382  -0.381  -0.376  -0.370  -0.368  -0.363  -0.360  -0.354
 -0.353  -0.353  -0.351  -0.349  -0.347  -0.342  -0.341  -0.340
 -0.339  -0.336  -0.334  -0.331  -0.330  -0.324  -0.323  -0.320
 -0.319  -0.316  -0.314  -0.308  -0.306  -0.302  -0.300  -0.299
 -0.296  -0.294  -0.293  -0.291  -0.288  -0.283  -0.282  -0.278
 -0.273  -0.271  -0.269  -0.265  -0.259  -0.256  -0.254  -0.252
 -0.248  -0.245  -0.236  -0.234  -0.197  -0.196

          Ground-State Mulliken Net Atomic Charges

     Atom                 Charge (a.u.)
  ----------------------------------------
      1 C                     0.267678
      2 C                    -0.116362
      3 N                    -0.472937
      4 C                    -0.097115
      5 C                     0.060594
      6 C                     0.058542
      7 C                     0.078863
      8 C                     0.034865
      9 C                     0.177909
     10 N                    -0.514499
     11 N                    -0.545017
     12 C                     0.220578
     13 C                     0.317340
     14 S                     0.591232
     15 N                    -0.556127
     16 C                    -0.236369
     17 S                     0.352094
     18 C                    -0.124520
     19 C                    -0.227920
     20 S                     0.317600
     21 C                     0.174304
     22 C                     0.012136
     23 C                    -0.327988
     24 C                    -0.072965
     25 N                    -0.386927
     26 S                     0.265057
     27 C                     0.111971
     28 C                    -0.296278
     29 C                    -0.226710
     30 H                     0.098751
     31 H                     0.102365
     32 H                     0.127649
     33 H                     0.090184
     34 H                     0.138076
     35 H                     0.103182
     36 H                     0.116584
     37 H                     0.135220
     38 H                     0.112996
     39 C                    -0.176414
     40 H                     0.106245
     41 H                     0.095601
     42 H                     0.114654
     43 C                    -0.199534
     44 H                     0.091373
     45 C                    -0.178921
     46 H                     0.101226
     47 H                     0.090908
     48 H                     0.093203
     49 C                    -0.179726
     50 H                     0.097674
     51 C                    -0.334387
     52 H                     0.094392
     53 H                     0.101016
     54 H                     0.096426
     55 H                     0.101203
     56 C                     0.281041
     57 C                    -0.110337
     58 N                    -0.477138
     59 C                    -0.083585
     60 C                     0.044660
     61 C                     0.033544
     62 C                     0.030170
     63 C                     0.046255
     64 C                     0.229659
     65 N                    -0.528301
     66 N                    -0.560559
     67 C                     0.229086
     68 C                     0.297257
     69 S                     0.621145
     70 N                    -0.571597
     71 C                    -0.231600
     72 S                     0.322256
     73 C                    -0.118941
     74 C                    -0.252397
     75 S                     0.284928
     76 C                     0.190252
     77 C                     0.079738
     78 C                    -0.315217
     79 C                    -0.051742
     80 N                    -0.449641
     81 S                     0.253538
     82 C                     0.142360
     83 C                    -0.307857
     84 C                    -0.235963
     85 H                     0.096511
     86 H                     0.133508
     87 H                     0.113027
     88 H                     0.118143
     89 H                     0.132106
     90 H                     0.127832
     91 H                     0.124002
     92 H                     0.134001
     93 H                     0.120176
     94 C                    -0.182338
     95 H                     0.101583
     96 H                     0.092142
     97 H                     0.101728
     98 C                    -0.204403
     99 H                     0.088724
    100 C                    -0.153889
    101 H                     0.107556
    102 H                     0.092783
    103 H                     0.103173
    104 C                    -0.195918
    105 H                     0.089902
    106 C                    -0.318262
    107 H                     0.103512
    108 H                     0.104572
    109 H                     0.099720
    110 H                     0.100118
  ----------------------------------------
  Sum of atomic charges =     0.000000

                    Cartesian Multipole Moments
 -----------------------------------------------------------------
    Charge (ESU x 10^10)
                 0.0000
    Dipole Moment (Debye)
         X      -4.5700      Y       1.8269      Z       2.4589
       Tot       5.5017
    Quadrupole Moments (Debye-Ang)
        XX    -382.5583     XY     -17.3267     YY    -450.0695
        XZ       3.3149     YZ      -9.1183     ZZ    -444.0342

 Total job time:  105.60s(wall), 1187.44s(cpu)
        *  Thank you very much for using Q-Chem.  Have a nice day.  *
