 Q-Chem 4.4, Q-Chem, Inc., Pleasanton, CA (2016)
 Q-Chem 4.4.2 for Intel X86 Linux

User input:
--------------------------------------------------------------
$comment
SP
$end

$rem
MEM_STATIC 5000
MEM_TOTAL 20000
JOBTYPE SP
EXCHANGE B3LYP
BASIS 6-31g(d,p)
$end

$molecule
0 1
C         -10.616000      8.817000     -0.040000
C          -9.771000      9.175000     -1.114000
N         -10.100000      8.164000      1.019000
C          -8.477000      8.650000     -1.214000
C          -8.814000      7.698000      1.010000
C          -7.972000      7.873000     -0.125000
C          -6.484000      7.475000     -0.098000
C          -5.518000      8.089000     -0.880000
C          -5.952000      6.419000      0.781000
N          -4.208000      7.896000     -0.674000
N          -6.758000      5.572000      1.459000
C          -4.637000      6.100000      0.806000
C          -3.758000      6.916000      0.100000
S          -5.691000      4.603000      2.327000
N          -4.297000      5.164000      1.691000
C          -2.357000      6.867000      0.138000
S          -1.204000      8.230000      0.379000
C          -1.640000      5.755000     -0.248000
C           0.179000      7.183000      0.016000
S          -2.268000      4.264000     -0.974000
C          -0.284000      5.927000     -0.389000
C           1.464000      7.724000     -0.372000
C          -0.567000      3.719000     -1.169000
C           0.342000      4.711000     -0.763000
N           1.506000      8.944000     -0.822000
S           2.923000      6.823000     -0.445000
C           2.830000      9.442000     -0.933000
C           3.776000      8.376000     -0.800000
C         -12.049000      9.425000     -0.055000
H         -10.122000      9.858000     -1.882000
H          -7.802000      8.903000     -2.026000
H          -8.381000      7.131000      1.833000
H          -5.776000      8.919000     -1.536000
H          -0.395000      2.739000     -1.594000
H           1.410000      4.541000     -0.825000
H           2.984000     10.492000     -1.147000
H           4.855000      8.345000     -0.873000
H         -12.033000     10.511000     -0.206000
C         -12.982000      8.920000      1.026000
H         -12.480000      9.024000     -0.980000
H         -12.543000      9.049000      2.023000
H         -13.040000      7.835000      0.875000
C         -14.351000      9.594000      0.946000
H         -14.369000     10.684000      1.062000
C         -15.410000      8.766000      1.680000
H         -14.624000      9.443000     -0.105000
H         -14.978000      8.566000      2.668000
H         -15.778000      7.843000      1.216000
C         -16.699000      9.526000      1.951000
H         -16.548000     10.196000      2.806000
C         -17.897000      8.579000      2.382000
H         -16.964000     10.190000      1.119000
H         -17.671000      8.276000      3.412000
H         -18.025000      7.754000      1.669000
H         -18.804000      9.189000      2.469000
C           3.784000     -0.412000     -3.814000
C           3.024000      0.046000     -2.753000
N           3.716000      0.114000     -5.086000
C           2.149000      1.125000     -2.902000
C           2.849000      1.151000     -5.202000
C           1.971000      1.620000     -4.212000
C           0.884000      2.618000     -4.548000
C           0.965000      3.958000     -4.012000
C          -0.357000      2.353000     -5.167000
N          -0.003000      4.900000     -4.011000
N          -0.749000      1.158000     -5.665000
C          -1.314000      3.364000     -5.232000
C          -1.096000      4.676000     -4.748000
S          -2.267000      1.307000     -6.068000
N          -2.474000      2.894000     -5.787000
C          -2.063000      5.801000     -4.756000
S          -3.749000      5.730000     -5.355000
C          -1.807000      7.066000     -4.125000
C          -3.960000      7.427000     -4.954000
S          -0.394000      7.714000     -3.349000
C          -2.878000      7.879000     -4.234000
C          -5.160000      8.126000     -5.232000
C          -1.280000      9.285000     -3.305000
C          -2.610000      9.204000     -3.763000
N          -6.060000      7.466000     -5.941000
S          -5.642000      9.713000     -4.836000
C          -7.146000      8.137000     -6.258000
C          -7.096000      9.452000     -5.857000
C           4.793000     -1.495000     -3.613000
H           3.126000     -0.367000     -1.754000
H           1.512000      1.562000     -2.140000
H           2.895000      1.742000     -6.116000
H           1.870000      4.123000     -3.429000
H          -0.727000     10.105000     -2.867000
H          -3.237000     10.082000     -3.865000
H          -7.875000      7.585000     -6.837000
H          -7.795000     10.186000     -6.234000
H           5.703000     -1.042000     -4.025000
C           4.682000     -2.750000     -4.365000
H           5.047000     -1.532000     -2.547000
H           4.919000     -2.561000     -5.419000
H           3.649000     -3.105000     -4.256000
C           5.790000     -3.631000     -3.762000
H           6.753000     -3.269000     -4.141000
C           5.679000     -5.112000     -4.309000
H           5.827000     -3.624000     -2.665000
H           4.879000     -5.628000     -3.765000
H           6.526000     -5.756000     -4.044000
C           5.398000     -5.241000     -5.836000
H           4.402000     -4.884000     -6.125000
C           5.683000     -6.750000     -6.302000
H           6.073000     -4.570000     -6.381000
H           5.368000     -6.834000     -7.349000
H           5.095000     -7.405000     -5.647000
H           6.739000     -7.023000     -6.193000
$end

--------------------------------------------------------------

             Standard Nuclear Orientation (Angstroms)
    I     Atom           X                Y                Z
 ----------------------------------------------------------------
    1      C      -8.7250466602    -1.1249852458     0.2660656616
    2      C      -7.9534800230    -0.5368658023    -0.7608060172
    3      N      -8.2229441007    -1.1949315858     1.5139224360
    4      C      -6.5955345698    -0.2570115561    -0.5665722736
    5      C      -6.9241887146    -0.8567329768     1.7782879932
    6      C      -6.0458615388    -0.4290399659     0.7422213637
    7      C      -4.6250222557     0.0831945498     1.0457152396
    8      C      -3.9572849103     0.9947049435     0.2426264278
    9      C      -3.8581020615    -0.3348558195     2.2322515031
   10      N      -2.8320119258     1.6033596256     0.6414812740
   11      N      -4.2489224948    -1.3633811230     3.0171872260
   12      C      -2.6196041312     0.1446216719     2.4927034409
   13      C      -2.1460083567     1.1841643858     1.6977248321
   14      S      -3.0847191103    -1.4135388918     4.2308546754
   15      N      -2.0737204676    -0.2821595747     3.6305917453
   16      C      -0.9792341869     1.9333610184     1.9074590507
   17      S      -0.7936224025     3.7252228581     1.9012612444
   18      C       0.2771569106     1.3668562955     1.9209797389
   19      C       0.9707017010     3.5874659910     1.9953383579
   20      S       0.7071020221    -0.3148217094     1.5581474238
   21      C       1.3367097287     2.2414185589     1.8947181093
   22      C       1.8419695918     4.6821194436     1.6251004870
   23      C       2.4328474497     0.1606988514     1.7134983669
   24      C       2.5690402891     1.5414569838     1.9374168567
   25      N       1.3573179251     5.6242193649     0.8699683791
   26      S       3.5226973442     4.7528384519     1.9656354252
   27      C       2.2152041769     6.7508728604     0.7806146996
   28      C       3.5093535647     6.4343683510     1.3040296952
   29      C     -10.2118975139    -1.4337733798    -0.0764287572
   30      H      -8.4065168613    -0.3028724247    -1.7197214057
   31      H      -5.9734001526     0.1934639880    -1.3340346838
   32      H      -6.4770173375    -0.9416147751     2.7678029450
   33      H      -4.4370403347     1.4184587762    -0.6383204616
   34      H       3.1830399914    -0.6093650536     1.5917538285
   35      H       3.5490649148     1.9898855492     2.0461898080
   36      H       1.8526087117     7.6558099529     0.3098436437
   37      H       4.4294390711     7.0001743688     1.3659749233
   38      H     -10.7217766149    -0.5664006994    -0.5124802858
   39      C     -10.9816728497    -2.1894532381     0.9868063458
   40      H     -10.1335084689    -2.1515157193    -0.9015881913
   41      H     -10.9308340365    -1.6766699509     1.9552275947
   42      H     -10.4331244999    -3.1287305835     1.1290834570
   43      C     -12.4341197268    -2.4194133738     0.5716516693
   44      H     -13.0391327995    -1.5242449418     0.3858758359
   45      C     -13.0562131959    -3.5647268625     1.3760630865
   46      H     -12.3240888999    -2.8661350806    -0.4234683907
   47      H     -12.8393196254    -3.3248417759     2.4240040793
   48      H     -12.7694476000    -4.5965406715     1.1398962882
   49      C     -14.5729222630    -3.6228160006     1.2823547215
   50      H     -15.0029020051    -2.8542144830     1.9358798767
   51      C     -15.1739151733    -4.9919737015     1.8133808152
   52      H     -14.9299083800    -3.3666543835     0.2772243129
   53      H     -15.0833785138    -4.9440990871     2.9057617628
   54      H     -14.6797823079    -5.8506012951     1.3401267959
   55      H     -16.2546259633    -4.9885863723     1.6279874112
   56      C       8.7817574653    -1.1984438367     0.7989166229
   57      C       7.6625110202    -1.0776750712     1.6025255454
   58      N       8.7650841826    -1.0161692093    -0.5670196721
   59      C       6.4238831098    -0.7135361472     1.0684181184
   60      C       7.5466281385    -0.6763299201    -1.0573135903
   61      C       6.3421083869    -0.6241306000    -0.3380414590
   62      C       5.0167262579    -0.4748106233    -1.0532580394
   63      C       4.2616760408     0.7474508154    -0.8937803135
   64      C       4.2850079387    -1.4846732768    -1.7152495216
   65      N       2.9806871868     0.9726867487    -1.2580951916
   66      N       4.7005789989    -2.7566130862    -1.9131454921
   67      C       2.9935861363    -1.2079480829    -2.1600504833
   68      C       2.3781900862     0.0596178643    -2.0270532244
   69      S       3.4752027274    -3.5493966552    -2.5122124381
   70      N       2.4184695615    -2.3288043009    -2.6961915691
   71      C       1.0058768869     0.4327472884    -2.4493196283
   72      S      -0.1962576384    -0.6647616276    -3.1954997421
   73      C       0.4100580466     1.7073019769    -2.1587473385
   74      C      -1.3422627733     0.6626089455    -3.2949511998
   75      S       1.0473046115     3.1503049216    -1.4305246273
   76      C      -0.8621937201     1.7521521676    -2.6051271126
   77      C      -2.6204716789     0.5151206317    -3.8868246583
   78      C      -0.5010877253     3.9398301337    -1.9143676919
   79      C      -1.4400497001     3.0561074977    -2.4823551146
   80      N      -2.8464995206    -0.6400624048    -4.4891074547
   81      S      -3.9311488574     1.6008038783    -3.9923055655
   82      C      -4.0071183282    -0.7529780203    -5.0976631607
   83      C      -4.7418057526     0.4096178123    -5.0640280830
   84      C      10.1198281528    -1.4824794929     1.3991345677
   85      H       7.7154654159    -1.1935879456     2.6808270049
   86      H       5.4894469670    -0.5898738493     1.6059297285
   87      H       7.5027385347    -0.3191201118    -2.0855489016
   88      H       4.7777394373     1.4823816954    -0.2775870221
   89      H      -0.5764508691     4.9870250327    -1.6540674038
   90      H      -2.3828160214     3.4030483885    -2.8888531856
   91      H      -4.1800815207    -1.7035927986    -5.5853118840
   92      H      -5.6023809544     0.5543903369    -5.7027277292
   93      H      10.7342922636    -0.6728355567     0.9868682057
   94      C      10.8591173288    -2.6876129323     1.0067636877
   95      H      10.0874501540    -1.1967963938     2.4572356178
   96      H      11.2135158235    -2.5733854187    -0.0248175171
   97      H      10.1670266453    -3.5357119306     1.0888220495
   98      C      12.0762879569    -2.6865211087     1.9480014207
   99      H      12.7731479125    -1.9158752264     1.5979369603
  100      C      12.8820693889    -4.0419906647     1.8126885730
  101      H      11.8354188513    -2.4812590436     2.9990373661
  102      H      12.3582316931    -4.8198703032     2.3807460846
  103      H      13.8451410246    -4.0491476897     2.3369135261
  104      C      13.0903245681    -4.5529184250     0.3556664029
  105      H      12.1586761601    -4.8663003522    -0.1309638588
  106      C      14.2160532910    -5.6966716489     0.3506260609
  107      H      13.4318241145    -3.7190138391    -0.2695313270
  108      H      14.2560689004    -6.1117300028    -0.6635806803
  109      H      13.9109288799    -6.4510143382     1.0866017405
  110      H      15.1975989166    -5.3108143783     0.6493372117
 ----------------------------------------------------------------

   10   -5663.4593423807      4.28E-06 Convergence criterion met
 Total energy in the final basis set = -5663.4593423807

                    Orbital Energies (a.u.)
 --------------------------------------------------------------

 Alpha MOs
 -- Occupied --
-88.990 -88.986 -88.933 -88.924 -88.923 -88.919 -88.909 -88.905
-14.388 -14.386 -14.377 -14.370 -14.346 -14.346 -14.338 -14.335
-14.332 -14.328 -10.265 -10.262 -10.260 -10.257 -10.252 -10.251
-10.251 -10.250 -10.241 -10.239 -10.238 -10.238 -10.237 -10.237
-10.236 -10.235 -10.234 -10.233 -10.232 -10.229 -10.228 -10.228
-10.225 -10.225 -10.224 -10.222 -10.221 -10.221 -10.220 -10.215
-10.214 -10.213 -10.208 -10.208 -10.201 -10.200 -10.199 -10.198
-10.191 -10.182 -10.180 -10.178 -10.176 -10.176 -10.175 -10.175
-10.174 -10.174 -10.174 -10.172  -8.045  -8.042  -7.994  -7.986
 -7.981  -7.977  -7.969  -7.963  -6.010  -6.007  -6.005  -6.003
 -6.001  -6.000  -5.958  -5.954  -5.951  -5.950  -5.946  -5.946
 -5.943  -5.942  -5.941  -5.938  -5.938  -5.934  -5.933  -5.930
 -5.928  -5.925  -5.924  -5.920  -1.041  -1.040  -0.979  -0.967
 -0.962  -0.957  -0.934  -0.930  -0.911  -0.907  -0.902  -0.895
 -0.838  -0.835  -0.833  -0.825  -0.816  -0.814  -0.808  -0.806
 -0.804  -0.797  -0.793  -0.792  -0.782  -0.779  -0.766  -0.765
 -0.749  -0.749  -0.740  -0.737  -0.723  -0.717  -0.710  -0.705
 -0.695  -0.689  -0.675  -0.669  -0.655  -0.651  -0.648  -0.637
 -0.636  -0.635  -0.626  -0.626  -0.611  -0.607  -0.607  -0.600
 -0.595  -0.591  -0.582  -0.581  -0.575  -0.572  -0.568  -0.564
 -0.549  -0.540  -0.538  -0.536  -0.526  -0.519  -0.517  -0.514
 -0.509  -0.504  -0.500  -0.496  -0.494  -0.478  -0.477  -0.475
 -0.473  -0.473  -0.471  -0.468  -0.466  -0.464  -0.452  -0.450
 -0.445  -0.443  -0.442  -0.440  -0.437  -0.434  -0.429  -0.429
 -0.428  -0.425  -0.423  -0.419  -0.417  -0.415  -0.414  -0.412
 -0.411  -0.409  -0.406  -0.404  -0.399  -0.398  -0.397  -0.395
 -0.393  -0.392  -0.390  -0.388  -0.385  -0.384  -0.382  -0.381
 -0.376  -0.375  -0.375  -0.372  -0.367  -0.358  -0.357  -0.354
 -0.350  -0.349  -0.348  -0.346  -0.344  -0.343  -0.343  -0.339
 -0.338  -0.338  -0.330  -0.327  -0.323  -0.322  -0.322  -0.319
 -0.314  -0.309  -0.304  -0.304  -0.302  -0.300  -0.300  -0.298
 -0.295  -0.293  -0.291  -0.291  -0.285  -0.284  -0.274  -0.271
 -0.271  -0.269  -0.267  -0.263  -0.252  -0.249  -0.248  -0.245
 -0.244  -0.243  -0.232  -0.229  -0.196  -0.188

          Ground-State Mulliken Net Atomic Charges

     Atom                 Charge (a.u.)
  ----------------------------------------
      1 C                     0.286216
      2 C                    -0.123318
      3 N                    -0.505155
      4 C                    -0.084064
      5 C                     0.093724
      6 C                     0.035975
      7 C                     0.051862
      8 C                     0.048078
      9 C                     0.214858
     10 N                    -0.490104
     11 N                    -0.555138
     12 C                     0.242890
     13 C                     0.207738
     14 S                     0.601698
     15 N                    -0.535500
     16 C                    -0.170430
     17 S                     0.338860
     18 C                    -0.110158
     19 C                    -0.226891
     20 S                     0.246430
     21 C                     0.155169
     22 C                     0.077399
     23 C                    -0.292620
     24 C                    -0.068828
     25 N                    -0.437386
     26 S                     0.253201
     27 C                     0.108571
     28 C                    -0.318398
     29 C                    -0.242728
     30 H                     0.085655
     31 H                     0.109486
     32 H                     0.129464
     33 H                     0.109644
     34 H                     0.133746
     35 H                     0.106462
     36 H                     0.124525
     37 H                     0.135280
     38 H                     0.113806
     39 C                    -0.171624
     40 H                     0.114418
     41 H                     0.113059
     42 H                     0.106074
     43 C                    -0.184797
     44 H                     0.096005
     45 C                    -0.163481
     46 H                     0.088220
     47 H                     0.095414
     48 H                     0.093563
     49 C                    -0.190251
     50 H                     0.091177
     51 C                    -0.325158
     52 H                     0.086809
     53 H                     0.107971
     54 H                     0.102880
     55 H                     0.101091
     56 C                     0.261442
     57 C                    -0.120409
     58 N                    -0.479999
     59 C                    -0.057200
     60 C                     0.091931
     61 C                     0.027116
     62 C                    -0.045035
     63 C                     0.063110
     64 C                     0.236279
     65 N                    -0.500938
     66 N                    -0.537723
     67 C                     0.190707
     68 C                     0.320551
     69 S                     0.609090
     70 N                    -0.561349
     71 C                    -0.244313
     72 S                     0.358592
     73 C                    -0.107105
     74 C                    -0.205429
     75 S                     0.315179
     76 C                     0.139010
     77 C                     0.061863
     78 C                    -0.309695
     79 C                    -0.074110
     80 N                    -0.422417
     81 S                     0.256713
     82 C                     0.143940
     83 C                    -0.343585
     84 C                    -0.233198
     85 H                     0.090454
     86 H                     0.094204
     87 H                     0.101638
     88 H                     0.101413
     89 H                     0.138575
     90 H                     0.111792
     91 H                     0.117945
     92 H                     0.127500
     93 H                     0.120477
     94 C                    -0.158810
     95 H                     0.091270
     96 H                     0.125823
     97 H                     0.096933
     98 C                    -0.188310
     99 H                     0.100368
    100 C                    -0.181481
    101 H                     0.092555
    102 H                     0.088637
    103 H                     0.084243
    104 C                    -0.182796
    105 H                     0.103141
    106 C                    -0.327070
    107 H                     0.092629
    108 H                     0.101686
    109 H                     0.105367
    110 H                     0.107408
  ----------------------------------------
  Sum of atomic charges =     0.000000

                    Cartesian Multipole Moments
 -----------------------------------------------------------------
    Charge (ESU x 10^10)
                 0.0000
    Dipole Moment (Debye)
         X      -0.8769      Y       1.3965      Z       0.2828
       Tot       1.6731
    Quadrupole Moments (Debye-Ang)
        XX    -427.1992     XY       4.0734     YY    -429.9077
        XZ      39.2911     YZ      -3.7181     ZZ    -439.0003

 Total job time:  108.10s(wall), 1160.98s(cpu)
        *  Thank you very much for using Q-Chem.  Have a nice day.  *
