 Q-Chem 4.4, Q-Chem, Inc., Pleasanton, CA (2016)
 Q-Chem 4.4.2 for Intel X86 Linux

User input:
--------------------------------------------------------------
$comment
SP
$end

$rem
MEM_STATIC 5000
MEM_TOTAL 20000
JOBTYPE SP
EXCHANGE B3LYP
BASIS 6-31g(d,p)
$end

$molecule
0 1
C         -12.664000      6.068000     -2.680000
C         -12.572000      5.532000     -1.362000
N         -11.575000      6.126000     -3.501000
C         -11.384000      4.914000     -1.002000
C         -10.379000      5.559000     -3.082000
C         -10.242000      4.873000     -1.845000
C          -9.011000      4.162000     -1.435000
C          -9.060000      3.084000     -0.533000
C          -7.772000      4.548000     -1.904000
N          -8.021000      2.319000     -0.189000
N          -7.410000      5.652000     -2.636000
C          -6.627000      3.709000     -1.584000
C          -6.836000      2.633000     -0.769000
S          -5.845000      5.501000     -3.013000
N          -5.497000      4.090000     -2.233000
C          -5.676000      1.730000     -0.396000
S          -4.233000      1.472000     -1.396000
C          -5.538000      1.055000      0.733000
C          -3.459000      0.740000     -0.036000
S          -6.640000      0.851000      2.093000
C          -4.314000      0.475000      0.933000
C          -2.078000      0.256000     -0.217000
C          -5.432000     -0.118000      2.906000
C          -4.212000     -0.115000      2.226000
N          -1.504000     -0.380000      0.836000
S          -1.330000      0.014000     -1.780000
C          -0.228000     -0.746000      0.491000
C           0.050000     -0.596000     -0.846000
C         -14.028000      6.610000     -3.203000
H         -13.485000      5.452000     -0.779000
H         -11.283000      4.485000     -0.009000
H          -9.450000      5.647000     -3.643000
H         -10.046000      2.862000     -0.128000
H          -5.713000     -0.616000      3.825000
H          -3.381000     -0.658000      2.660000
H           0.398000     -1.298000      1.179000
H           0.942000     -0.931000     -1.358000
H         -14.373000      7.371000     -2.492000
C         -15.057000      5.449000     -3.229000
H         -13.935000      7.038000     -4.209000
H         -16.017000      5.770000     -3.652000
H         -15.299000      5.194000     -2.190000
C         -14.500000      4.200000     -4.070000
H         -13.986000      4.570000     -4.965000
C         -15.638000      3.210000     -4.512000
H         -13.829000      3.655000     -3.394000
H         -16.418000      3.802000     -5.008000
H         -16.044000      2.767000     -3.594000
C         -15.036000      2.183000     -5.528000
H         -14.245000      2.678000     -6.105000
C         -16.025000      1.341000     -6.476000
H         -14.467000      1.431000     -4.968000
H         -16.606000      0.610000     -5.900000
H         -15.480000      0.856000     -7.295000
H         -16.749000      2.030000     -6.928000
C           3.784000     -0.412000     -3.814000
C           3.024000      0.046000     -2.753000
N           3.716000      0.114000     -5.086000
C           2.149000      1.125000     -2.902000
C           2.849000      1.151000     -5.202000
C           1.971000      1.620000     -4.212000
C           0.884000      2.618000     -4.548000
C           0.965000      3.958000     -4.012000
C          -0.357000      2.353000     -5.167000
N          -0.003000      4.900000     -4.011000
N          -0.749000      1.158000     -5.665000
C          -1.314000      3.364000     -5.232000
C          -1.096000      4.676000     -4.748000
S          -2.267000      1.307000     -6.068000
N          -2.474000      2.894000     -5.787000
C          -2.063000      5.801000     -4.756000
S          -3.749000      5.730000     -5.355000
C          -1.807000      7.066000     -4.125000
C          -3.960000      7.427000     -4.954000
S          -0.394000      7.714000     -3.349000
C          -2.878000      7.879000     -4.234000
C          -5.160000      8.126000     -5.232000
C          -1.280000      9.285000     -3.305000
C          -2.610000      9.204000     -3.763000
N          -6.060000      7.466000     -5.941000
S          -5.642000      9.713000     -4.836000
C          -7.146000      8.137000     -6.258000
C          -7.096000      9.452000     -5.857000
C           4.793000     -1.495000     -3.613000
H           3.126000     -0.367000     -1.754000
H           1.512000      1.562000     -2.140000
H           2.895000      1.742000     -6.116000
H           1.870000      4.123000     -3.429000
H          -0.727000     10.105000     -2.867000
H          -3.237000     10.082000     -3.865000
H          -7.875000      7.585000     -6.837000
H          -7.795000     10.186000     -6.234000
H           5.703000     -1.042000     -4.025000
C           4.682000     -2.750000     -4.365000
H           5.047000     -1.532000     -2.547000
H           4.919000     -2.561000     -5.419000
H           3.649000     -3.105000     -4.256000
C           5.790000     -3.631000     -3.762000
H           6.753000     -3.269000     -4.141000
C           5.679000     -5.112000     -4.309000
H           5.827000     -3.624000     -2.665000
H           4.879000     -5.628000     -3.765000
H           6.526000     -5.756000     -4.044000
C           5.398000     -5.241000     -5.836000
H           4.402000     -4.884000     -6.125000
C           5.683000     -6.750000     -6.302000
H           6.073000     -4.570000     -6.381000
H           5.368000     -6.834000     -7.349000
H           5.095000     -7.405000     -5.647000
H           6.739000     -7.023000     -6.193000
$end

--------------------------------------------------------------

             Standard Nuclear Orientation (Angstroms)
    I     Atom           X                Y                Z
 ----------------------------------------------------------------
    1      C       9.1053142673     0.7537251897    -0.2361487090
    2      C       8.8462981360     1.7354109554     0.7648945974
    3      N       8.1090860671    -0.0391391226    -0.7283088001
    4      C       7.5223817597     1.9782034752     1.0983090852
    5      C       6.8008890511     0.1841624839    -0.3206042994
    6      C       6.4363993692     1.2387788413     0.5594329785
    7      C       5.0367782298     1.5648173456     0.9112021639
    8      C       4.6689416493     2.8650794747     1.3012068377
    9      C       4.0509433488     0.5994900476     0.8924726353
   10      N       3.4197183658     3.2758081370     1.5332093247
   11      N       4.1502262778    -0.7604706730     0.7301959011
   12      C       2.6739075257     1.0231682811     1.0964704204
   13      C       2.4496373932     2.3412530302     1.3758223525
   14      S       2.6497210994    -1.3581214569     0.6563531628
   15      N       1.7791131992     0.0229346380     0.8911955500
   16      C       1.0344324384     2.8354884395     1.6061792411
   17      S      -0.4203662656     2.1000202698     0.9051369441
   18      C       0.6698474018     3.8338503761     2.3933648575
   19      C      -1.3797491748     3.0183674136     2.0100002646
   20      S       1.6363706793     4.9857041941     3.3124326111
   21      C      -0.6767224781     3.9630109324     2.6046540177
   22      C      -2.8429141030     2.8469116479     1.9473160290
   23      C       0.1654090760     5.7080445407     3.9237348156
   24      C      -0.9679190900     4.9749697125     3.5646003499
   25      N      -3.5911859608     3.6242758901     2.7710727052
   26      S      -3.6774454414     2.1026100495     0.6017270962
   27      C      -4.9158065437     3.3216488474     2.5841123235
   28      C      -5.1532338794     2.5188859276     1.4948222084
   29      C      10.5526736484     0.5660782745    -0.7817937010
   30      H       9.6649965677     2.3804620800     1.0706721710
   31      H       7.2880210604     2.7273221999     1.8494330424
   32      H       5.9716639630    -0.4636926334    -0.6002031196
   33      H       5.4896030424     3.5765783666     1.3772936605
   34      H       0.2480577049     6.6186920146     4.5028862487
   35      H      -1.9332772130     5.3153418116     3.9195602469
   36      H      -5.6894236496     3.8527785704     3.1220173251
   37      H      -6.1210815826     2.2554674256     1.0899586312
   38      H      11.2043756265     0.3677928722     0.0782263168
   39      C      11.0114278344     1.8831066678    -1.4618075304
   40      H      10.6094764900    -0.2571694334    -1.5049158543
   41      H      12.0033377820     1.7772767596    -1.9184087638
   42      H      11.1626369608     2.6307589138    -0.6736058310
   43      C       9.9614211988     2.3530717750    -2.5816958566
   44      H       9.6147204226     1.4754688941    -3.1400261847
   45      C      10.5755096876     3.3873165376    -3.5934967753
   46      H       9.1492843503     2.8571300659    -2.0426216700
   47      H      11.5124429592     2.9613140816    -3.9750173540
   48      H      10.7946019618     4.2966917915    -3.0200473680
   49      C       9.5698275335     3.5816954599    -4.7768011485
   50      H       9.0331710420     2.6394747283    -4.9436990308
   51      C      10.0917049802     4.2209967393    -6.1569195509
   52      H       8.7614585629     4.2432085960    -4.4424286345
   53      H      10.3399725065     5.2830059913    -6.0377659363
   54      H       9.3676644867     4.0726605922    -6.9673347231
   55      H      11.0190454736     3.7137920421    -6.4501498434
   56      C      -8.5805053733    -0.2536715506    -0.3361259442
   57      C      -7.6634323012     0.0986889812     0.6374776898
   58      N      -8.3458826762    -1.2157280110    -1.2946057598
   59      C      -6.4277188444    -0.5459493172     0.7350518506
   60      C      -7.1335995603    -1.8141761278    -1.1817186552
   61      C      -6.1069628592    -1.4595149058    -0.2922370636
   62      C      -4.7178978570    -2.0424055944    -0.4378594000
   63      C      -4.2220393341    -2.9477991687     0.5739922694
   64      C      -3.7178364243    -1.6479020408    -1.3531249773
   65      N      -2.9528236854    -3.3808591278     0.7350503611
   66      N      -3.8694757882    -0.7348819622    -2.3395796592
   67      C      -2.4325227897    -2.1705797154    -1.2228486970
   68      C      -2.0747514416    -3.1242931378    -0.2402224353
   69      S      -2.4393930168    -0.4903413353    -2.9592546940
   70      N      -1.5883691431    -1.6076758151    -2.1421249449
   71      C      -0.7314764887    -3.7130214618    -0.0170871367
   72      S       0.7543930931    -3.3113492904    -0.9321221374
   73      C      -0.4226014343    -4.5777322915     1.0878080538
   74      C       1.6584317714    -4.4662713272     0.0343146981
   75      S      -1.4163805083    -5.2825589251     2.3264652173
   76      C       0.8835852408    -4.9149162928     1.0791872018
   77      C       3.0294148512    -4.7362637573    -0.1967577637
   78      C       0.0383711840    -6.2467137839     2.7837134235
   79      C       1.2007165482    -5.9028854387     2.0654096415
   80      N       3.5533058119    -4.1757920410    -1.2736471343
   81      S       4.1348654450    -5.7055014239     0.6671093154
   82      C       4.8075971991    -4.4802527156    -1.5269904065
   83      C       5.3167703438    -5.4123790206    -0.6526853909
   84      C      -9.9381287185     0.3689243571    -0.3607061865
   85      H      -7.8919159483     0.8368119848     1.4003300048
   86      H      -5.6415856606    -0.3497214452     1.4567659489
   87      H      -6.9637759915    -2.7156295067    -1.7693705599
   88      H      -4.9584363967    -3.1550973834     1.3491605198
   89      H      -0.1129538278    -6.9329937383     3.6060111585
   90      H       2.1294760475    -6.4494743554     2.1797046485
   91      H       5.2246294016    -4.0139149533    -2.4101660593
   92      H       6.2424275639    -5.9332523474    -0.8559971917
   93      H     -10.5947832372    -0.5095757575    -0.3704730520
   94      C     -10.3791157534     1.1211186728    -1.5407842121
   95      H     -10.1480843090     0.7706661845     0.6376740788
   96      H     -10.5534358619     0.4233610720    -2.3687653896
   97      H      -9.5805235671     1.8311992858    -1.7918440515
   98      C     -11.7300079737     1.7153910227    -1.1056238014
   99      H     -12.4712366826     0.9075427315    -1.1095147662
  100      C     -12.2569216270     2.7433997085    -2.1874977053
  101      H     -11.7231499196     2.1717023760    -0.1073453252
  102      H     -11.7218397789     3.6919128230    -2.0602094988
  103      H     -13.2842052115     3.0883933983    -2.0200528160
  104      C     -12.1064939947     2.2889028720    -3.6701086297
  105      H     -11.0623827828     2.2242128023    -3.9997037935
  106      C     -13.0028302084     3.2336694453    -4.6079036575
  107      H     -12.4639959926     1.2563790825    -3.7648606519
  108      H     -12.7864365232     2.9620713581    -5.6480470380
  109      H     -12.7142099541     4.2695291360    -4.3899884218
  110      H     -14.0732190078     3.1294258563    -4.3958963644
 ----------------------------------------------------------------

   10   -5663.4893401529      4.84E-06 Convergence criterion met
 Total energy in the final basis set = -5663.4893401529

                    Orbital Energies (a.u.)
 --------------------------------------------------------------

 Alpha MOs
 -- Occupied --
-88.990 -88.987 -88.937 -88.931 -88.928 -88.918 -88.914 -88.899
-14.381 -14.380 -14.377 -14.374 -14.353 -14.353 -14.339 -14.337
-14.336 -14.332 -10.268 -10.268 -10.266 -10.258 -10.255 -10.254
-10.253 -10.249 -10.248 -10.242 -10.240 -10.238 -10.236 -10.235
-10.234 -10.233 -10.231 -10.230 -10.228 -10.228 -10.227 -10.226
-10.226 -10.226 -10.224 -10.220 -10.220 -10.216 -10.215 -10.215
-10.213 -10.212 -10.210 -10.210 -10.201 -10.200 -10.196 -10.192
-10.191 -10.187 -10.184 -10.181 -10.181 -10.181 -10.180 -10.180
-10.178 -10.177 -10.176 -10.176  -8.046  -8.041  -7.997  -7.988
 -7.988  -7.977  -7.975  -7.959  -6.011  -6.007  -6.005  -6.004
 -6.001  -6.000  -5.961  -5.958  -5.954  -5.952  -5.952  -5.949
 -5.949  -5.945  -5.945  -5.942  -5.939  -5.938  -5.935  -5.933
 -5.931  -5.924  -5.920  -5.916  -1.044  -1.025  -0.985  -0.963
 -0.961  -0.958  -0.936  -0.922  -0.920  -0.919  -0.899  -0.895
 -0.847  -0.843  -0.836  -0.834  -0.817  -0.812  -0.807  -0.806
 -0.799  -0.798  -0.797  -0.791  -0.782  -0.774  -0.769  -0.762
 -0.756  -0.744  -0.743  -0.733  -0.729  -0.724  -0.710  -0.703
 -0.694  -0.692  -0.675  -0.674  -0.654  -0.653  -0.645  -0.642
 -0.640  -0.630  -0.629  -0.620  -0.616  -0.610  -0.609  -0.599
 -0.592  -0.590  -0.584  -0.581  -0.578  -0.574  -0.567  -0.565
 -0.547  -0.544  -0.542  -0.536  -0.526  -0.523  -0.522  -0.511
 -0.506  -0.502  -0.502  -0.497  -0.496  -0.483  -0.479  -0.475
 -0.474  -0.471  -0.470  -0.466  -0.464  -0.459  -0.453  -0.448
 -0.443  -0.443  -0.443  -0.437  -0.436  -0.434  -0.432  -0.431
 -0.429  -0.423  -0.420  -0.419  -0.417  -0.416  -0.415  -0.414
 -0.412  -0.409  -0.405  -0.404  -0.403  -0.399  -0.397  -0.396
 -0.393  -0.391  -0.390  -0.389  -0.388  -0.385  -0.384  -0.382
 -0.381  -0.379  -0.377  -0.373  -0.364  -0.362  -0.359  -0.356
 -0.355  -0.351  -0.350  -0.348  -0.344  -0.343  -0.342  -0.339
 -0.337  -0.336  -0.333  -0.329  -0.329  -0.325  -0.321  -0.320
 -0.313  -0.310  -0.309  -0.305  -0.303  -0.302  -0.301  -0.299
 -0.297  -0.295  -0.294  -0.290  -0.288  -0.284  -0.280  -0.279
 -0.276  -0.274  -0.267  -0.265  -0.260  -0.255  -0.250  -0.247
 -0.245  -0.243  -0.241  -0.228  -0.197  -0.190

          Ground-State Mulliken Net Atomic Charges

     Atom                 Charge (a.u.)
  ----------------------------------------
      1 C                     0.275135
      2 C                    -0.112638
      3 N                    -0.507403
      4 C                    -0.095985
      5 C                     0.078869
      6 C                     0.051970
      7 C                     0.049057
      8 C                     0.073680
      9 C                     0.210448
     10 N                    -0.516741
     11 N                    -0.572046
     12 C                     0.238116
     13 C                     0.255042
     14 S                     0.666647
     15 N                    -0.576716
     16 C                    -0.234155
     17 S                     0.298060
     18 C                    -0.086861
     19 C                    -0.251193
     20 S                     0.263583
     21 C                     0.196259
     22 C                     0.044369
     23 C                    -0.300637
     24 C                    -0.069284
     25 N                    -0.438382
     26 S                     0.276434
     27 C                     0.133574
     28 C                    -0.319840
     29 C                    -0.226668
     30 H                     0.092174
     31 H                     0.095448
     32 H                     0.128329
     33 H                     0.106622
     34 H                     0.131578
     35 H                     0.121997
     36 H                     0.114253
     37 H                     0.122691
     38 H                     0.107024
     39 C                    -0.196672
     40 H                     0.118645
     41 H                     0.094715
     42 H                     0.089730
     43 C                    -0.180022
     44 H                     0.108292
     45 C                    -0.177689
     46 H                     0.105110
     47 H                     0.090496
     48 H                     0.093271
     49 C                    -0.183071
     50 H                     0.096543
     51 C                    -0.327713
     52 H                     0.095048
     53 H                     0.105826
     54 H                     0.105699
     55 H                     0.101605
     56 C                     0.259353
     57 C                    -0.131482
     58 N                    -0.479477
     59 C                    -0.058893
     60 C                     0.092780
     61 C                     0.021203
     62 C                    -0.033963
     63 C                     0.068777
     64 C                     0.248805
     65 N                    -0.513389
     66 N                    -0.542025
     67 C                     0.194699
     68 C                     0.321757
     69 S                     0.621949
     70 N                    -0.563380
     71 C                    -0.234709
     72 S                     0.353163
     73 C                    -0.102931
     74 C                    -0.219398
     75 S                     0.295748
     76 C                     0.140598
     77 C                     0.057914
     78 C                    -0.312458
     79 C                    -0.082932
     80 N                    -0.428066
     81 S                     0.272186
     82 C                     0.147183
     83 C                    -0.330071
     84 C                    -0.234140
     85 H                     0.091207
     86 H                     0.120390
     87 H                     0.102017
     88 H                     0.108436
     89 H                     0.131607
     90 H                     0.120131
     91 H                     0.125162
     92 H                     0.134294
     93 H                     0.122088
     94 C                    -0.158325
     95 H                     0.091541
     96 H                     0.126525
     97 H                     0.095652
     98 C                    -0.188425
     99 H                     0.101117
    100 C                    -0.182460
    101 H                     0.092436
    102 H                     0.088912
    103 H                     0.084997
    104 C                    -0.182552
    105 H                     0.102960
    106 C                    -0.327180
    107 H                     0.092708
    108 H                     0.101982
    109 H                     0.105646
    110 H                     0.107707
  ----------------------------------------
  Sum of atomic charges =     0.000000

                    Cartesian Multipole Moments
 -----------------------------------------------------------------
    Charge (ESU x 10^10)
                 0.0000
    Dipole Moment (Debye)
         X       1.0710      Y      -0.8700      Z       1.6613
       Tot       2.1596
    Quadrupole Moments (Debye-Ang)
        XX    -406.0470     XY     -11.5118     YY    -426.4936
        XZ      -7.0671     YZ      -3.6335     ZZ    -444.0450

 Total job time:  98.21s(wall), 1067.68s(cpu)
        *  Thank you very much for using Q-Chem.  Have a nice day.  *
