 Q-Chem 4.4, Q-Chem, Inc., Pleasanton, CA (2016)
 Q-Chem 4.4.2 for Intel X86 Linux

User input:
--------------------------------------------------------------
$comment
SP
$end

$rem
MEM_STATIC 5000
MEM_TOTAL 20000
JOBTYPE SP
EXCHANGE B3LYP
BASIS 6-31g(d,p)
$end

$molecule
0 1
C           8.521000     18.961000     -7.674000
C           7.254000     18.640000     -8.247000
N           9.184000     18.096000     -6.950000
C           6.681000     17.372000     -7.963000
C           8.673000     16.896000     -6.624000
C           7.410000     16.445000     -7.178000
C           6.884000     15.109000     -6.892000
C           5.647000     14.812000     -6.315000
C           7.632000     13.931000     -7.198000
N           5.116000     13.621000     -5.953000
N           8.779000     13.924000     -7.880000
C           7.110000     12.667000     -6.901000
C           5.860000     12.529000     -6.225000
S           9.177000     12.421000     -8.026000
N           7.901000     11.651000     -7.251000
C           5.340000     11.184000     -5.970000
S           6.205000      9.632000     -5.891000
C           4.020000     10.989000     -5.522000
C           4.773000      8.758000     -5.394000
S           2.808000     12.102000     -5.060000
C           3.752000      9.691000     -5.218000
C           4.692000      7.279000     -5.275000
C           1.785000     10.720000     -4.526000
C           2.453000      9.525000     -4.673000
N           5.511000      6.595000     -5.978000
S           3.530000      6.291000     -4.374000
C           5.205000      5.246000     -6.042000
C           4.233000      4.872000     -5.165000
C           9.180000     20.335000     -7.923000
H           6.593000     19.457000     -8.522000
H           5.665000     17.122000     -8.255000
H           9.209000     16.346000     -5.852000
H           4.964000     15.640000     -6.131000
H           0.759000     10.893000     -4.230000
H           2.015000      8.577000     -4.382000
H           5.793000      4.644000     -6.723000
H           3.861000      3.880000     -4.946000
H          10.259000     20.137000     -7.930000
C           8.652000     21.403000     -6.930000
H           8.887000     20.609000     -8.945000
H           8.773000     21.159000     -5.867000
H           7.581000     21.543000     -7.125000
C           9.507000     22.702000     -7.307000
H          10.551000     22.459000     -7.075000
C           8.929000     24.044000     -6.761000
H           9.474000     22.934000     -8.379000
H           9.007000     23.883000     -5.679000
H           7.857000     24.035000     -6.993000
C           9.546000     25.386000     -7.103000
H          10.620000     25.281000     -6.907000
C           8.812000     26.458000     -6.259000
H           9.351000     25.417000     -8.182000
H           9.271000     27.442000     -6.414000
H           8.658000     26.176000     -5.210000
H           7.861000     26.505000     -6.804000
C           3.784000     -0.412000     -3.814000
C           3.024000      0.046000     -2.753000
N           3.716000      0.114000     -5.086000
C           2.149000      1.125000     -2.902000
C           2.849000      1.151000     -5.202000
C           1.971000      1.620000     -4.212000
C           0.884000      2.618000     -4.548000
C           0.965000      3.958000     -4.012000
C          -0.357000      2.353000     -5.167000
N          -0.003000      4.900000     -4.011000
N          -0.749000      1.158000     -5.665000
C          -1.314000      3.364000     -5.232000
C          -1.096000      4.676000     -4.748000
S          -2.267000      1.307000     -6.068000
N          -2.474000      2.894000     -5.787000
C          -2.063000      5.801000     -4.756000
S          -3.749000      5.730000     -5.355000
C          -1.807000      7.066000     -4.125000
C          -3.960000      7.427000     -4.954000
S          -0.394000      7.714000     -3.349000
C          -2.878000      7.879000     -4.234000
C          -5.160000      8.126000     -5.232000
C          -1.280000      9.285000     -3.305000
C          -2.610000      9.204000     -3.763000
N          -6.060000      7.466000     -5.941000
S          -5.642000      9.713000     -4.836000
C          -7.146000      8.137000     -6.258000
C          -7.096000      9.452000     -5.857000
C           4.793000     -1.495000     -3.613000
H           3.126000     -0.367000     -1.754000
H           1.512000      1.562000     -2.140000
H           2.895000      1.742000     -6.116000
H           1.870000      4.123000     -3.429000
H          -0.727000     10.105000     -2.867000
H          -3.237000     10.082000     -3.865000
H          -7.875000      7.585000     -6.837000
H          -7.795000     10.186000     -6.234000
H           5.703000     -1.042000     -4.025000
C           4.682000     -2.750000     -4.365000
H           5.047000     -1.532000     -2.547000
H           4.919000     -2.561000     -5.419000
H           3.649000     -3.105000     -4.256000
C           5.790000     -3.631000     -3.762000
H           6.753000     -3.269000     -4.141000
C           5.679000     -5.112000     -4.309000
H           5.827000     -3.624000     -2.665000
H           4.879000     -5.628000     -3.765000
H           6.526000     -5.756000     -4.044000
C           5.398000     -5.241000     -5.836000
H           4.402000     -4.884000     -6.125000
C           5.683000     -6.750000     -6.302000
H           6.073000     -4.570000     -6.381000
H           5.368000     -6.834000     -7.349000
H           5.095000     -7.405000     -5.647000
H           6.739000     -7.023000     -6.193000
$end

--------------------------------------------------------------

             Standard Nuclear Orientation (Angstroms)
    I     Atom           X                Y                Z
 ----------------------------------------------------------------
    1      C      11.7841545851    -1.5242951930    -0.7065036057
    2      C      11.1045749861    -0.4944073977    -1.4235542996
    3      N      11.1320292061    -2.4103147647     0.0017843362
    4      C       9.6925208002    -0.4010677964    -1.3043918269
    5      C       9.8002222837    -2.3477023316     0.1743155061
    6      C       8.9991307268    -1.3672570021    -0.5345323431
    7      C       7.5402408225    -1.3420561482    -0.4146442113
    8      C       6.7629844814    -0.2633273508     0.0137525228
    9      C       6.7442217539    -2.4810045956    -0.7462676070
   10      N       5.4284046331    -0.1767206072     0.2208319771
   11      N       7.2192823114    -3.5917120170    -1.3132142455
   12      C       5.3523775819    -2.4329314289    -0.6089804209
   13      C       4.7070070633    -1.2789420560    -0.0701618791
   14      S       5.9798667273    -4.5124647992    -1.5472918479
   15      N       4.7269954847    -3.5561415284    -0.9663783851
   16      C       3.2453896028    -1.2644061967     0.0187937725
   17      S       2.0994618745    -2.6242358408     0.0485087595
   18      C       2.5482853486    -0.0792962400     0.3199399982
   19      C       0.7265694642    -1.5766290436     0.3299255828
   20      S       3.1027231536     1.4774262853     0.7562549071
   21      C       1.2135590193    -0.2795183313     0.4856528224
   22      C      -0.6894084908    -2.0271167337     0.3147508635
   23      C       1.3978312456     1.9634183219     1.0705228220
   24      C       0.5397829600     0.9022376349     0.8874744972
   25      N      -0.9564398320    -3.0776704385    -0.3619005800
   26      S      -2.1189275685    -1.2480108498     1.0130761659
   27      C      -2.3101588304    -3.2826929256    -0.5691290847
   28      C      -3.0996265752    -2.4606382800     0.1756902489
   29      C      13.3210074659    -1.6574262164    -0.7737148658
   30      H      11.6618468320     0.3990507872    -1.6904167389
   31      H       9.1354394991     0.4373838154    -1.7126556128
   32      H       9.3905215245    -2.9991423423     0.9447382474
   33      H       7.2706197698     0.6817643804     0.2009343424
   34      H       1.1634289639     2.9984336649     1.2803318069
   35      H      -0.5282318667     0.9856239780     1.0536673001
   36      H      -2.5849058910    -4.0873488054    -1.2391678655
   37      H      -4.1770873518    -2.4588137936     0.2730758025
   38      H      13.5180545313    -2.7336706895    -0.6939383769
   39      C      14.0143734282    -0.7222267148     0.2510302413
   40      H      13.5883156677    -1.3464669637    -1.7921743242
   41      H      13.7096755720    -0.8598257059     1.2961961296
   42      H      13.7891956183     0.3137049348    -0.0332347252
   43      C      15.5651450590    -1.0724293191     0.0693148450
   44      H      15.6809266484    -2.1181489250     0.3789503230
   45      C      16.5461692686    -0.0184280949     0.6691789294
   46      H      15.8907238957    -1.0216101060    -0.9773526421
   47      H      16.3012670917    -0.0849630446     1.7361020869
   48      H      16.1864243814     0.9625521260     0.3354868225
   49      C      18.0490536589    -0.1294994989     0.5029903241
   50      H      18.3076885448    -1.1555528308     0.7915029856
   51      C      18.6904649856     0.9900885585     1.3605392102
   52      H      18.1316257066    -0.0007112405    -0.5832059940
   53      H      19.7838836299     0.9081807946     1.3342944685
   54      H      18.2551595357     1.0939754078     2.3622166472
   55      H      18.4609063693     1.8600635122     0.7327801628
   56      C      -8.3198062125    -3.8666557201     1.0243936788
   57      C      -8.2825691316    -2.9312578398     2.0425926797
   58      N      -7.7107429118    -3.6891608567    -0.1990528747
   59      C      -7.5716161188    -1.7367060894     1.9023823770
   60      C      -7.0397333372    -2.5152361136    -0.3093291114
   61      C      -7.0257955100    -1.4702294956     0.6280672323
   62      C      -6.4435591184    -0.1185834069     0.2751895831
   63      C      -5.2310586909     0.3206163840     0.9281851857
   64      C      -7.0567342510     0.9045541860    -0.4802392505
   65      N      -4.6971688087     1.5612641826     0.9162004738
   66      N      -8.2484303077     0.8093764765    -1.1130857660
   67      C      -6.4473784024     2.1559155641    -0.5507740020
   68      C      -5.2067140066     2.4544070245     0.0614177205
   69      S      -8.5991370490     2.2523596294    -1.6457567731
   70      N      -7.2297145492     3.0335685456    -1.2523439540
   71      C      -4.5014507758     3.7595329693     0.0561221092
   72      S      -5.0934742803     5.2680288018    -0.7057089045
   73      C      -3.3077448051     4.0144204351     0.8137634724
   74      C      -3.6368975736     6.0997071405    -0.1843391332
   75      S      -2.2959962243     2.9784716258     1.7738800662
   76      C      -2.9174959911     5.2979551166     0.6718635620
   77      C      -3.3788191818     7.4522432985    -0.5158907658
   78      C      -1.1537799951     4.3719834192     1.8657493611
   79      C      -1.6456619174     5.5538140132     1.2770613099
   80      N      -4.2285649568     8.0102654247    -1.3613636657
   81      S      -2.1193472971     8.4962723706    -0.0348056712
   82      C      -3.9519023535     9.2442748986    -1.7230326061
   83      C      -2.7582242227     9.6953284689    -1.2090197688
   84      C      -8.9931628707    -5.1843143204     1.2286915594
   85      H      -8.7436906345    -3.1158575295     3.0081308271
   86      H      -7.4766070626    -0.9410922279     2.6340611745
   87      H      -6.3707581630    -2.3992397694    -1.1612739831
   88      H      -4.8250826154    -0.4278923863     1.6071970022
   89      H      -0.2469039570     4.1785984396     2.4227332936
   90      H      -1.0393817958     6.4478487953     1.1902095826
   91      H      -4.6558256494     9.6897239063    -2.4140124719
   92      H      -2.2798667019    10.5882120631    -1.5877267393
   93      H      -8.2049376316    -5.8926393558     0.9457964966
   94      C     -10.1127531196    -5.5777519665     0.3658042590
   95      H      -9.0590442930    -5.3709600465     2.3071460142
   96      H      -9.7340281215    -5.7927144927    -0.6407564636
   97      H     -10.8188845144    -4.7375565988     0.3447045583
   98      C     -10.6092105395    -6.8909720726     0.9954207957
   99      H      -9.8905919210    -7.6794729988     0.7426213288
  100      C     -11.9620159329    -7.3537032327     0.3166804617
  101      H     -10.7141968232    -6.8579129071     2.0875343300
  102      H     -12.7849909678    -6.7626637292     0.7356988352
  103      H     -12.2919056540    -8.3585695079     0.6061395103
  104      C     -12.0075246295    -7.2290462308    -1.2356470135
  105      H     -11.9940217968    -6.1903093485    -1.5875409788
  106      C     -13.2560047689    -8.0657204223    -1.7984397273
  107      H     -11.0844913615    -7.6479249840    -1.6545040014
  108      H     -13.3261774631    -7.8647631076    -2.8741636466
  109      H     -14.1460068610    -7.7155519487    -1.2607852693
  110      H     -13.1499013758    -9.1407074713    -1.6121847554
 ----------------------------------------------------------------

    9   -5663.4970138904      8.49E-06 Convergence criterion met
 Total energy in the final basis set = -5663.4970138904

                    Orbital Energies (a.u.)
 --------------------------------------------------------------

 Alpha MOs
 -- Occupied --
-88.993 -88.979 -88.937 -88.930 -88.923 -88.923 -88.921 -88.905
-14.383 -14.380 -14.377 -14.376 -14.356 -14.348 -14.340 -14.335
-14.335 -14.322 -10.270 -10.269 -10.268 -10.258 -10.257 -10.257
-10.248 -10.248 -10.246 -10.245 -10.242 -10.242 -10.238 -10.235
-10.235 -10.234 -10.233 -10.232 -10.232 -10.230 -10.230 -10.229
-10.229 -10.228 -10.225 -10.221 -10.220 -10.220 -10.219 -10.216
-10.216 -10.215 -10.212 -10.210 -10.204 -10.200 -10.198 -10.196
-10.190 -10.185 -10.184 -10.182 -10.181 -10.180 -10.180 -10.179
-10.177 -10.177 -10.176 -10.170  -8.049  -8.036  -7.998  -7.987
 -7.984  -7.981  -7.979  -7.965  -6.014  -6.008  -6.007  -6.001
 -5.995  -5.993  -5.962  -5.958  -5.955  -5.952  -5.948  -5.948
 -5.946  -5.944  -5.944  -5.944  -5.942  -5.941  -5.940  -5.938
 -5.936  -5.930  -5.926  -5.922  -1.047  -1.044  -0.985  -0.973
 -0.966  -0.955  -0.939  -0.939  -0.919  -0.913  -0.907  -0.902
 -0.848  -0.841  -0.839  -0.833  -0.818  -0.813  -0.810  -0.802
 -0.800  -0.799  -0.796  -0.790  -0.784  -0.782  -0.770  -0.762
 -0.757  -0.747  -0.746  -0.738  -0.730  -0.722  -0.711  -0.707
 -0.696  -0.692  -0.677  -0.669  -0.656  -0.651  -0.645  -0.643
 -0.637  -0.632  -0.632  -0.625  -0.617  -0.611  -0.608  -0.602
 -0.599  -0.593  -0.591  -0.583  -0.581  -0.571  -0.566  -0.566
 -0.549  -0.544  -0.540  -0.537  -0.529  -0.523  -0.519  -0.516
 -0.509  -0.504  -0.504  -0.500  -0.494  -0.487  -0.481  -0.477
 -0.475  -0.474  -0.473  -0.469  -0.468  -0.465  -0.454  -0.447
 -0.444  -0.444  -0.443  -0.443  -0.440  -0.435  -0.434  -0.432
 -0.428  -0.426  -0.421  -0.420  -0.420  -0.418  -0.418  -0.413
 -0.411  -0.410  -0.407  -0.406  -0.401  -0.401  -0.399  -0.398
 -0.396  -0.394  -0.393  -0.390  -0.388  -0.386  -0.386  -0.383
 -0.382  -0.379  -0.373  -0.370  -0.364  -0.363  -0.361  -0.356
 -0.354  -0.351  -0.349  -0.348  -0.347  -0.346  -0.346  -0.345
 -0.343  -0.338  -0.337  -0.334  -0.331  -0.330  -0.321  -0.321
 -0.314  -0.311  -0.311  -0.307  -0.305  -0.303  -0.301  -0.300
 -0.296  -0.294  -0.291  -0.290  -0.286  -0.282  -0.282  -0.275
 -0.274  -0.271  -0.268  -0.261  -0.258  -0.257  -0.253  -0.252
 -0.245  -0.241  -0.240  -0.233  -0.198  -0.193

          Ground-State Mulliken Net Atomic Charges

     Atom                 Charge (a.u.)
  ----------------------------------------
      1 C                     0.257182
      2 C                    -0.127461
      3 N                    -0.463340
      4 C                    -0.075200
      5 C                     0.097405
      6 C                     0.018909
      7 C                     0.027097
      8 C                     0.045866
      9 C                     0.199211
     10 N                    -0.533639
     11 N                    -0.506039
     12 C                     0.225378
     13 C                     0.319587
     14 S                     0.588921
     15 N                    -0.580892
     16 C                    -0.239960
     17 S                     0.371547
     18 C                    -0.110389
     19 C                    -0.223957
     20 S                     0.283017
     21 C                     0.140902
     22 C                     0.055269
     23 C                    -0.333766
     24 C                    -0.058836
     25 N                    -0.411948
     26 S                     0.271487
     27 C                     0.120329
     28 C                    -0.319879
     29 C                    -0.215890
     30 H                     0.090782
     31 H                     0.101642
     32 H                     0.109441
     33 H                     0.099188
     34 H                     0.117073
     35 H                     0.113900
     36 H                     0.122193
     37 H                     0.137308
     38 H                     0.119033
     39 C                    -0.177644
     40 H                     0.103718
     41 H                     0.113983
     42 H                     0.094525
     43 C                    -0.185355
     44 H                     0.097821
     45 C                    -0.180893
     46 H                     0.086353
     47 H                     0.082811
     48 H                     0.084159
     49 C                    -0.181105
     50 H                     0.095377
     51 C                    -0.309309
     52 H                     0.094497
     53 H                     0.101177
     54 H                     0.112095
     55 H                     0.106409
     56 C                     0.261650
     57 C                    -0.118882
     58 N                    -0.478400
     59 C                    -0.054361
     60 C                     0.084953
     61 C                     0.015243
     62 C                    -0.035045
     63 C                     0.073229
     64 C                     0.243074
     65 N                    -0.521732
     66 N                    -0.535288
     67 C                     0.191151
     68 C                     0.321605
     69 S                     0.618285
     70 N                    -0.561986
     71 C                    -0.246436
     72 S                     0.370927
     73 C                    -0.102038
     74 C                    -0.200694
     75 S                     0.299851
     76 C                     0.134098
     77 C                     0.061724
     78 C                    -0.322329
     79 C                    -0.081559
     80 N                    -0.422509
     81 S                     0.270896
     82 C                     0.144195
     83 C                    -0.333648
     84 C                    -0.233843
     85 H                     0.093836
     86 H                     0.107651
     87 H                     0.101094
     88 H                     0.104564
     89 H                     0.130044
     90 H                     0.120921
     91 H                     0.120140
     92 H                     0.131692
     93 H                     0.121756
     94 C                    -0.159440
     95 H                     0.093200
     96 H                     0.126009
     97 H                     0.097457
     98 C                    -0.188215
     99 H                     0.101108
    100 C                    -0.182698
    101 H                     0.093186
    102 H                     0.089063
    103 H                     0.085355
    104 C                    -0.182803
    105 H                     0.102736
    106 C                    -0.327164
    107 H                     0.092751
    108 H                     0.101982
    109 H                     0.105567
    110 H                     0.107985
  ----------------------------------------
  Sum of atomic charges =     0.000000

                    Cartesian Multipole Moments
 -----------------------------------------------------------------
    Charge (ESU x 10^10)
                 0.0000
    Dipole Moment (Debye)
         X      -2.1393      Y       4.0368      Z       1.0233
       Tot       4.6819
    Quadrupole Moments (Debye-Ang)
        XX    -419.2489     XY      22.6884     YY    -411.3421
        XZ     -17.6157     YZ     -10.4590     ZZ    -442.6854

 Total job time:  85.59s(wall), 931.71s(cpu)
        *  Thank you very much for using Q-Chem.  Have a nice day.  *
