 Q-Chem 4.4, Q-Chem, Inc., Pleasanton, CA (2016)
 Q-Chem 4.4.2 for Intel X86 Linux

User input:
--------------------------------------------------------------
$comment
SP
$end

$rem
MEM_STATIC 5000
MEM_TOTAL 20000
JOBTYPE SP
EXCHANGE B3LYP
BASIS 6-31g(d,p)
$end

$molecule
0 1
C           2.931000     -3.502000     -9.682000
C           3.285000     -2.761000     -8.542000
N           2.004000     -3.127000    -10.585000
C           2.655000     -1.571000     -8.293000
C           1.377000     -1.900000    -10.390000
C           1.657000     -1.138000     -9.213000
C           1.031000      0.197000     -9.066000
C           1.656000      1.369000     -8.693000
C          -0.354000      0.466000     -9.342000
N           1.159000      2.566000     -8.507000
N          -1.147000     -0.414000     -9.908000
C          -0.991000      1.721000     -9.202000
C          -0.179000      2.784000     -8.654000
S          -2.626000      0.271000    -10.143000
N          -2.293000      1.743000     -9.492000
C          -0.762000      4.133000     -8.314000
S          -2.421000      4.669000     -8.628000
C          -0.002000      5.204000     -7.890000
C          -2.144000      6.267000     -8.069000
S           1.700000      5.408000     -7.509000
C          -0.792000      6.404000     -7.796000
C          -2.954000      7.444000     -8.299000
C           1.334000      7.048000     -7.089000
C           0.042000      7.437000     -7.323000
N          -3.893000      7.257000     -9.190000
S          -2.778000      9.125000     -7.729000
C          -4.475000      8.485000     -9.580000
C          -4.148000      9.572000     -8.811000
C           3.795000     -4.752000     -9.994000
H           4.169000     -3.038000     -7.975000
H           2.960000     -0.993000     -7.425000
H           0.676000     -1.652000    -11.186000
H           2.745000      1.338000     -8.686000
H           2.129000      7.570000     -6.572000
H          -0.253000      8.461000     -7.122000
H          -5.242000      8.429000    -10.342000
H          -4.568000     10.566000     -8.726000
H           3.837000     -4.746000    -11.090000
C           3.311000     -6.198000     -9.553000
H           4.820000     -4.501000     -9.694000
H           2.231000     -6.233000     -9.741000
H           3.451000     -6.343000     -8.475000
C           4.020000     -7.338000    -10.236000
H           3.891000     -7.199000    -11.316000
C           3.335000     -8.686000     -9.858000
H           5.106000     -7.368000    -10.082000
H           2.250000     -8.534000     -9.918000
H           3.680000     -8.816000     -8.825000
C           3.762000     -9.927000    -10.759000
H           3.649000     -9.622000    -11.807000
C           2.884000    -11.177000    -10.423000
H           4.823000    -10.209000    -10.760000
H           3.284000    -11.518000     -9.460000
H           2.986000    -11.932000    -11.213000
H           1.803000    -10.992000    -10.428000
C           3.784000     -0.412000     -3.814000
C           3.024000      0.046000     -2.753000
N           3.716000      0.114000     -5.086000
C           2.149000      1.125000     -2.902000
C           2.849000      1.151000     -5.202000
C           1.971000      1.620000     -4.212000
C           0.884000      2.618000     -4.548000
C           0.965000      3.958000     -4.012000
C          -0.357000      2.353000     -5.167000
N          -0.003000      4.900000     -4.011000
N          -0.749000      1.158000     -5.665000
C          -1.314000      3.364000     -5.232000
C          -1.096000      4.676000     -4.748000
S          -2.267000      1.307000     -6.068000
N          -2.474000      2.894000     -5.787000
C          -2.063000      5.801000     -4.756000
S          -3.749000      5.730000     -5.355000
C          -1.807000      7.066000     -4.125000
C          -3.960000      7.427000     -4.954000
S          -0.394000      7.714000     -3.349000
C          -2.878000      7.879000     -4.234000
C          -5.160000      8.126000     -5.232000
C          -1.280000      9.285000     -3.305000
C          -2.610000      9.204000     -3.763000
N          -6.060000      7.466000     -5.941000
S          -5.642000      9.713000     -4.836000
C          -7.146000      8.137000     -6.258000
C          -7.096000      9.452000     -5.857000
C           4.793000     -1.495000     -3.613000
H           3.126000     -0.367000     -1.754000
H           1.512000      1.562000     -2.140000
H           2.895000      1.742000     -6.116000
H           1.870000      4.123000     -3.429000
H          -0.727000     10.105000     -2.867000
H          -3.237000     10.082000     -3.865000
H          -7.875000      7.585000     -6.837000
H          -7.795000     10.186000     -6.234000
H           5.703000     -1.042000     -4.025000
C           4.682000     -2.750000     -4.365000
H           5.047000     -1.532000     -2.547000
H           4.919000     -2.561000     -5.419000
H           3.649000     -3.105000     -4.256000
C           5.790000     -3.631000     -3.762000
H           6.753000     -3.269000     -4.141000
C           5.679000     -5.112000     -4.309000
H           5.827000     -3.624000     -2.665000
H           4.879000     -5.628000     -3.765000
H           6.526000     -5.756000     -4.044000
C           5.398000     -5.241000     -5.836000
H           4.402000     -4.884000     -6.125000
C           5.683000     -6.750000     -6.302000
H           6.073000     -4.570000     -6.381000
H           5.368000     -6.834000     -7.349000
H           5.095000     -7.405000     -5.647000
H           6.739000     -7.023000     -6.193000
$end

--------------------------------------------------------------

             Standard Nuclear Orientation (Angstroms)
    I     Atom           X                Y                Z
 ----------------------------------------------------------------
    1      C       6.8822078395    -1.6586965629    -0.9908321428
    2      C       6.2503405285    -0.4039795708    -0.9701930721
    3      N       6.2394610329    -2.8428561900    -0.9931816123
    4      C       4.8827913220    -0.3419083863    -0.9392522260
    5      C       4.8481360569    -2.8183315141    -1.0103964769
    6      C       4.1583528390    -1.5686675376    -0.9272576882
    7      C       2.6795102491    -1.5665099968    -1.0206918319
    8      C       1.8995616343    -0.7390548473    -1.8019319576
    9      C       1.8318306114    -2.4876825536    -0.3138379910
   10      N       0.5965631979    -0.6579025235    -1.9020487638
   11      N       2.3034952602    -3.5187302041     0.3480367717
   12      C       0.4186290753    -2.5098499236    -0.3664119983
   13      C      -0.2015846336    -1.4547635313    -1.1356614117
   14      S       1.0430018632    -4.3896882200     0.9517581732
   15      N      -0.1725652119    -3.4378145628     0.3880142360
   16      C      -1.6979967379    -1.2667984151    -1.1623059070
   17      S      -2.9022882235    -2.3225339492    -0.4051549974
   18      C      -2.3331900891    -0.3413137639    -1.9650664983
   19      C      -4.2419991435    -1.4570384586    -1.0367452179
   20      S      -1.7639137195     0.9101753902    -3.0574402037
   21      C      -3.7639935707    -0.4915770102    -1.9088672644
   22      C      -5.6192850578    -1.8914987000    -1.1297871913
   23      C      -3.4233401131     1.3258338154    -3.3285271227
   24      C      -4.3377846814     0.5079254158    -2.7201210236
   25      N      -5.7783887410    -3.1609857142    -0.8583839144
   26      S      -7.0802838876    -1.0572096230    -1.7223082081
   27      C      -7.0722091944    -3.5998883492    -1.2219786220
   28      C      -7.9699170776    -2.6138228421    -1.5408114498
   29      C       8.4201680353    -1.6587819959    -1.1933622114
   30      H       6.8317274234     0.4929539118    -1.1629976523
   31      H       4.4062551389     0.6344110101    -0.9549589871
   32      H       4.4081096018    -3.8137049025    -1.0565433792
   33      H       2.4361636324    -0.1611632986    -2.5536171667
   34      H      -3.5749150898     2.2604402036    -3.8532498356
   35      H      -5.3969815724     0.6812111524    -2.8752854513
   36      H      -7.2821489286    -4.6500254187    -1.0632132502
   37      H      -9.0461787080    -2.6081651783    -1.6560932514
   38      H       8.5794080251    -2.5487769670    -1.8143030918
   39      C       9.3979826269    -1.7766773556     0.0514800712
   40      H       8.6417625215    -0.8260259082    -1.8723608728
   41      H       8.9471560036    -2.5110596131     0.7300130885
   42      H       9.4478334163    -0.8272587157     0.5981318297
   43      C      10.8162277425    -2.1505906486    -0.2913604771
   44      H      10.7770376743    -3.0967975987    -0.8440977980
   45      C      11.6225561762    -2.4119566074     1.0165903219
   46      H      11.3311298260    -1.4516485237    -0.9624549193
   47      H      10.9891490637    -3.0127339143     1.6812639692
   48      H      11.7613413459    -1.3890460668     1.3872744227
   49      C      13.0256323539    -3.1329057019     0.8025327531
   50      H      12.8447293512    -4.0176941114     0.1792177653
   51      C      13.6614501713    -3.5160063672     2.1792133927
   52      H      13.7693911892    -2.6162494732     0.1819401844
   53      H      14.0195517967    -2.5556833512     2.5706120780
   54      H      14.4730489817    -4.2397217074     2.0306453031
   55      H      12.9938295482    -4.0636138236     2.8553936772
   56      C       3.8079913357     4.1716704150     0.1339552998
   57      C       2.9115646418     4.7255513115     1.0299018022
   58      N       3.4847518422     3.1590704946    -0.7432229209
   59      C       1.5787036657     4.3086291167     1.0714289254
   60      C       2.1879640604     2.7672338352    -0.6702881463
   61      C       1.2359991926     3.2011803101     0.2658733502
   62      C      -0.1007828737     2.5033048402     0.3941407885
   63      C      -1.3039887603     3.2049501146     0.0075576750
   64      C      -0.3692528351     1.2880991702     1.0609736456
   65      N      -2.5806022320     2.8420486661     0.2584552289
   66      N       0.5565129514     0.4762983394     1.6210005377
   67      C      -1.6922558138     0.8869570130     1.2368801211
   68      C      -2.7999200617     1.6134272573     0.7384376487
   69      S      -0.2319216825    -0.6401536600     2.4089343933
   70      N      -1.7521655299    -0.2644612068     1.9752376963
   71      C      -4.2347088026     1.2725267930     0.8995157119
   72      S      -4.8838480269    -0.1310701551     1.8022736389
   73      C      -5.3029314640     2.1341712529     0.4747908946
   74      C      -6.5178946048     0.3599018063     1.3851773496
   75      S      -5.3090945638     3.6319499024    -0.4057033605
   76      C      -6.5006231609     1.6046245527     0.7988370203
   77      C      -7.6541581289    -0.3968500201     1.7621612709
   78      C      -7.1023239798     3.4478957768    -0.4793602724
   79      C      -7.5944875275     2.3488117232     0.2520864348
   80      N      -7.4059051087    -1.5689091736     2.3215616452
   81      S      -9.3184965626    -0.0710371741     1.5845871519
   82      C      -8.4591253166    -2.3021900181     2.6099232180
   83      C      -9.6371918681    -1.7334098130     2.1842774984
   84      C       5.2002865056     4.7022812175     0.0274783722
   85      H       3.1881126805     5.5465874598     1.6844205761
   86      H       0.7977739074     4.6752231418     1.7295622959
   87      H       1.8140932321     2.1236113184    -1.4657525764
   88      H      -1.1009169641     4.1963123976    -0.3950608410
   89      H      -7.6171703061     4.2356391401    -1.0126956770
   90      H      -8.6417574252     2.0706244578     0.2361300356
   91      H      -8.2422208914    -3.2582368758     3.0685220364
   92      H     -10.5561098685    -2.3016721850     2.1378707621
   93      H       5.2856118962     4.9128419145    -1.0455718459
   94      C       6.3437269655     3.8182244575     0.2801393304
   95      H       5.2108306201     5.7191971354     0.4373708430
   96      H       6.4289884086     3.0955078868    -0.5403588383
   97      H       6.1551832886     3.3055484534     1.2322998194
   98      C       7.5528905103     4.7682146192     0.2265089815
   99      H       7.7381789363     5.0199454376    -0.8243734069
  100      C       8.8666376172     4.0191884637     0.6933273161
  101      H       7.4191941323     5.7029560244     0.7861613594
  102      H       8.8704587895     3.9669174989     1.7885191463
  103      H       9.7911182690     4.5867913586     0.5335384607
  104      C       9.0493259578     2.5775794382     0.1314381920
  105      H       8.3088416718     1.8656034563     0.5158328112
  106      C      10.5624460334     2.1014166576     0.3747459050
  107      H       8.8516674775     2.5873280183    -0.9473236401
  108      H      10.6264809719     1.0488580422     0.0738972923
  109      H      10.7723776912     2.2319477069     1.4437100505
  110      H      11.2814683562     2.7085015568    -0.1873936014
 ----------------------------------------------------------------

   10   -5663.4923185415      4.56E-06 Convergence criterion met
 Total energy in the final basis set = -5663.4923185415

                    Orbital Energies (a.u.)
 --------------------------------------------------------------

 Alpha MOs
 -- Occupied --
-88.984 -88.981 -88.932 -88.922 -88.922 -88.918 -88.914 -88.908
-14.381 -14.374 -14.370 -14.368 -14.347 -14.345 -14.338 -14.337
-14.329 -14.325 -10.267 -10.264 -10.262 -10.260 -10.250 -10.248
-10.247 -10.246 -10.240 -10.237 -10.236 -10.234 -10.234 -10.233
-10.232 -10.229 -10.229 -10.229 -10.228 -10.225 -10.225 -10.225
-10.225 -10.224 -10.223 -10.220 -10.218 -10.215 -10.214 -10.213
-10.213 -10.209 -10.204 -10.203 -10.201 -10.199 -10.195 -10.187
-10.185 -10.184 -10.181 -10.180 -10.180 -10.179 -10.178 -10.178
-10.178 -10.178 -10.172 -10.172  -8.039  -8.036  -7.993  -7.982
 -7.979  -7.977  -7.972  -7.968  -6.004  -6.001  -5.999  -5.997
 -5.996  -5.994  -5.957  -5.953  -5.950  -5.946  -5.944  -5.943
 -5.941  -5.940  -5.939  -5.937  -5.937  -5.936  -5.933  -5.933
 -5.932  -5.929  -5.928  -5.924  -1.038  -1.033  -0.979  -0.959
 -0.957  -0.955  -0.936  -0.921  -0.913  -0.909  -0.901  -0.893
 -0.846  -0.841  -0.832  -0.822  -0.817  -0.806  -0.803  -0.802
 -0.797  -0.793  -0.792  -0.789  -0.781  -0.775  -0.766  -0.759
 -0.752  -0.743  -0.741  -0.737  -0.723  -0.720  -0.708  -0.705
 -0.692  -0.690  -0.674  -0.670  -0.652  -0.648  -0.637  -0.636
 -0.631  -0.628  -0.626  -0.617  -0.613  -0.609  -0.604  -0.595
 -0.595  -0.588  -0.588  -0.575  -0.574  -0.570  -0.568  -0.567
 -0.542  -0.540  -0.537  -0.533  -0.521  -0.517  -0.517  -0.511
 -0.504  -0.500  -0.497  -0.496  -0.495  -0.481  -0.477  -0.475
 -0.471  -0.470  -0.468  -0.465  -0.462  -0.457  -0.447  -0.445
 -0.443  -0.441  -0.438  -0.436  -0.434  -0.433  -0.430  -0.429
 -0.424  -0.422  -0.421  -0.418  -0.417  -0.413  -0.412  -0.410
 -0.410  -0.406  -0.402  -0.401  -0.398  -0.397  -0.395  -0.393
 -0.392  -0.388  -0.386  -0.384  -0.384  -0.382  -0.380  -0.377
 -0.377  -0.376  -0.366  -0.363  -0.360  -0.359  -0.356  -0.352
 -0.351  -0.350  -0.349  -0.348  -0.343  -0.343  -0.339  -0.337
 -0.336  -0.333  -0.329  -0.329  -0.325  -0.325  -0.322  -0.320
 -0.312  -0.310  -0.307  -0.304  -0.301  -0.299  -0.299  -0.296
 -0.293  -0.290  -0.288  -0.285  -0.282  -0.277  -0.275  -0.274
 -0.272  -0.269  -0.265  -0.263  -0.256  -0.254  -0.250  -0.247
 -0.243  -0.239  -0.234  -0.225  -0.195  -0.186

          Ground-State Mulliken Net Atomic Charges

     Atom                 Charge (a.u.)
  ----------------------------------------
      1 C                     0.267393
      2 C                    -0.120389
      3 N                    -0.487569
      4 C                    -0.074035
      5 C                     0.088326
      6 C                     0.007700
      7 C                     0.072065
      8 C                     0.046678
      9 C                     0.222658
     10 N                    -0.520865
     11 N                    -0.553409
     12 C                     0.211060
     13 C                     0.290785
     14 S                     0.584905
     15 N                    -0.572019
     16 C                    -0.249896
     17 S                     0.386434
     18 C                    -0.111957
     19 C                    -0.211128
     20 S                     0.289189
     21 C                     0.112062
     22 C                     0.077491
     23 C                    -0.303720
     24 C                    -0.076147
     25 N                    -0.419067
     26 S                     0.253706
     27 C                     0.115529
     28 C                    -0.307624
     29 C                    -0.236714
     30 H                     0.094941
     31 H                     0.135723
     32 H                     0.127275
     33 H                     0.103150
     34 H                     0.131700
     35 H                     0.110702
     36 H                     0.113990
     37 H                     0.140177
     38 H                     0.115102
     39 C                    -0.178447
     40 H                     0.093795
     41 H                     0.108928
     42 H                     0.096021
     43 C                    -0.182435
     44 H                     0.091990
     45 C                    -0.169548
     46 H                     0.091977
     47 H                     0.097076
     48 H                     0.094451
     49 C                    -0.190210
     50 H                     0.091598
     51 C                    -0.314881
     52 H                     0.092841
     53 H                     0.108356
     54 H                     0.097640
     55 H                     0.104378
     56 C                     0.264654
     57 C                    -0.121929
     58 N                    -0.493556
     59 C                    -0.053809
     60 C                     0.086935
     61 C                     0.018856
     62 C                    -0.027050
     63 C                     0.075164
     64 C                     0.251964
     65 N                    -0.523532
     66 N                    -0.553300
     67 C                     0.200338
     68 C                     0.329642
     69 S                     0.618269
     70 N                    -0.565935
     71 C                    -0.244703
     72 S                     0.379767
     73 C                    -0.102962
     74 C                    -0.211009
     75 S                     0.284446
     76 C                     0.138808
     77 C                     0.071599
     78 C                    -0.317685
     79 C                    -0.082101
     80 N                    -0.421870
     81 S                     0.256585
     82 C                     0.147795
     83 C                    -0.338971
     84 C                    -0.234580
     85 H                     0.091643
     86 H                     0.106332
     87 H                     0.117991
     88 H                     0.103064
     89 H                     0.126968
     90 H                     0.116536
     91 H                     0.118827
     92 H                     0.125742
     93 H                     0.120500
     94 C                    -0.162581
     95 H                     0.093689
     96 H                     0.121572
     97 H                     0.100396
     98 C                    -0.188712
     99 H                     0.100605
    100 C                    -0.182671
    101 H                     0.094719
    102 H                     0.090788
    103 H                     0.085903
    104 C                    -0.190365
    105 H                     0.109052
    106 C                    -0.335550
    107 H                     0.090476
    108 H                     0.110857
    109 H                     0.107201
    110 H                     0.107456
  ----------------------------------------
  Sum of atomic charges =     0.000000

                    Cartesian Multipole Moments
 -----------------------------------------------------------------
    Charge (ESU x 10^10)
                 0.0000
    Dipole Moment (Debye)
         X      -4.0098      Y       3.0159      Z       0.2854
       Tot       5.0255
    Quadrupole Moments (Debye-Ang)
        XX    -384.2193     XY      22.6647     YY    -426.0505
        XZ       9.2890     YZ      -6.7543     ZZ    -447.0842

 Total job time:  124.16s(wall), 1321.84s(cpu)
        *  Thank you very much for using Q-Chem.  Have a nice day.  *
