 Q-Chem 4.4, Q-Chem, Inc., Pleasanton, CA (2016)
 Q-Chem 4.4.2 for Intel X86 Linux

User input:
--------------------------------------------------------------
$comment
SP
$end

$rem
MEM_STATIC 5000
MEM_TOTAL 20000
JOBTYPE SP
EXCHANGE B3LYP
BASIS 6-31g(d,p)
$end

$molecule
0 1
C           5.474000    -21.715000     -4.396000
C           6.478000    -22.584000     -4.493000
N           5.679000    -20.484000     -3.906000
C           7.760000    -22.259000     -4.036000
C           6.910000    -20.085000     -3.587000
C           8.036000    -20.907000     -3.694000
C           9.502000    -20.417000     -3.419000
C          10.524000    -21.222000     -2.795000
C           9.971000    -19.125000     -3.669000
N          11.799000    -20.900000     -2.602000
N           9.130000    -18.068000     -3.886000
C          11.312000    -18.724000     -3.560000
C          12.208000    -19.703000     -3.062000
S          10.107000    -16.786000     -4.047000
N          11.579000    -17.467000     -3.750000
C          13.633000    -19.528000     -2.671000
S          14.462000    -20.393000     -1.335000
C          14.556000    -18.856000     -3.437000
C          16.031000    -19.810000     -1.872000
S          14.251000    -18.224000     -4.941000
C          15.895000    -19.003000     -2.943000
C          17.276000    -20.011000     -1.119000
C          15.977000    -17.846000     -4.932000
C          16.719000    -18.335000     -3.867000
N          18.329000    -19.259000     -1.286000
S          17.442000    -21.242000      0.069000
C          19.314000    -19.495000     -0.385000
C          18.935000    -20.439000      0.524000
C           4.073000    -22.137000     -4.784000
H           6.299000    -23.543000     -4.971000
H           8.494000    -23.057000     -4.095000
H           7.085000    -19.067000     -3.241000
H          10.194000    -22.219000     -2.508000
H          16.401000    -17.290000     -5.758000
H          17.802000    -18.351000     -3.813000
H          20.111000    -18.763000     -0.401000
H          19.428000    -20.686000      1.455000
H           4.106000    -22.968000     -5.499000
C           3.163000    -21.018000     -5.480000
H           3.598000    -22.657000     -3.943000
H           3.832000    -20.521000     -6.194000
H           2.818000    -20.337000     -4.692000
C           1.893000    -21.654000     -5.979000
H           2.141000    -22.416000     -6.729000
C           0.925000    -20.679000     -6.713000
H           1.323000    -22.089000     -5.148000
H           1.539000    -20.031000     -7.350000
H           0.544000    -20.015000     -5.927000
C          -0.190000    -21.429000     -7.607000
H          -0.931000    -20.687000     -7.929000
C          -0.996000    -22.491000     -6.792000
H           0.309000    -21.865000     -8.481000
H          -1.891000    -22.894000     -7.281000
H          -1.335000    -22.021000     -5.860000
H          -0.367000    -23.328000     -6.465000
C           4.009000    -27.750000     -3.696000
C           5.390000    -27.771000     -3.938000
N           3.445000    -26.963000     -2.768000
C           6.201000    -26.745000     -3.391000
C           4.223000    -26.022000     -2.170000
C           5.591000    -25.814000     -2.405000
C           6.480000    -24.762000     -1.684000
C           7.884000    -24.944000     -1.534000
C           5.997000    -23.572000     -1.059000
N           8.663000    -24.052000     -0.882000
N           4.685000    -23.205000     -1.143000
C           6.784000    -22.663000     -0.437000
C           8.197000    -22.898000     -0.378000
S           4.555000    -21.747000     -0.474000
N           6.158000    -21.517000     -0.098000
C           9.192000    -21.939000      0.193000
S           8.887000    -20.297000      0.746000
C          10.531000    -22.185000      0.478000
C          10.552000    -19.924000      1.122000
S          11.412000    -23.614000      0.278000
C          11.195000    -21.110000      0.961000
C          11.078000    -18.753000      1.660000
C          12.855000    -22.820000      0.968000
C          12.524000    -21.437000      1.194000
N          10.437000    -17.613000      1.389000
S          12.415000    -18.565000      2.743000
C          11.028000    -16.555000      2.073000
C          12.120000    -16.849000      2.761000
C           3.103000    -28.896000     -4.091000
H           5.816000    -28.588000     -4.512000
H           7.265000    -26.787000     -3.604000
H           3.722000    -25.514000     -1.348000
H           8.438000    -25.857000     -1.746000
H          13.740000    -23.429000      1.102000
H          13.301000    -20.793000      1.589000
H          10.587000    -15.571000      1.987000
H          12.829000    -16.196000      3.253000
H           3.814000    -29.644000     -4.464000
C           1.962000    -28.590000     -5.148000
H           2.690000    -29.324000     -3.169000
H           2.456000    -28.302000     -6.084000
H           1.477000    -27.673000     -4.792000
C           0.987000    -29.754000     -5.433000
H           1.559000    -30.689000     -5.398000
C           0.264000    -29.674000     -6.831000
H           0.276000    -29.669000     -4.602000
H          -0.225000    -28.694000     -6.897000
H          -0.472000    -30.487000     -6.848000
C           1.214000    -29.958000     -7.989000
H           2.082000    -29.292000     -8.062000
C           0.316000    -29.964000     -9.278000
H           1.606000    -30.963000     -7.791000
H           0.908000    -30.027000    -10.199000
H          -0.161000    -28.990000     -9.443000
H          -0.508000    -30.687000     -9.240000
$end

--------------------------------------------------------------

             Standard Nuclear Orientation (Angstroms)
    I     Atom           X                Y                Z
 ----------------------------------------------------------------
    1      C      -3.4705827808     1.9913777960    -0.1117363355
    2      C      -3.0464530397     0.9942108624    -0.8852724169
    3      N      -2.5971271250     2.7615316221     0.5526613628
    4      C      -1.6850372521     0.6860151579    -0.9830500264
    5      C      -1.2864242314     2.5914999589     0.3809926169
    6      C      -0.7414456295     1.6019118344    -0.4428536474
    7      C       0.7948728374     1.4576351668    -0.7323200726
    8      C       1.4780209991     0.1957773206    -0.8836751686
    9      C       1.6972505227     2.5220955835    -0.7983771278
   10      N       2.7534609579     0.0019681272    -1.2034390004
   11      N       1.4013542569     3.7664301657    -0.3128919608
   12      C       3.0387762938     2.4120442239    -1.1973261267
   13      C       3.4999083784     1.0951644357    -1.4472177512
   14      S       2.7531840725     4.6310197011    -0.5342854682
   15      N       3.7733158688     3.4814064048    -1.1313402288
   16      C       4.8943483151     0.6453771526    -1.7067551531
   17      S       5.6004119233    -0.9190975353    -1.1830614143
   18      C       5.7453711328     1.2715676632    -2.5864793191
   19      C       7.0231418938    -0.6622024201    -2.1829930773
   20      S       5.3250640492     2.5538613137    -3.5526728554
   21      C       6.9530387335     0.5295065539    -2.8088534997
   22      C       8.2046245005    -1.5345038458    -2.1580116312
   23      C       6.9503275008     2.3520774405    -4.2158794456
   24      C       7.6718417943     1.2507782283    -3.7794540002
   25      N       9.3797261618    -1.1400179865    -2.5650976081
   26      S       8.1437559471    -3.1460173363    -1.5633854553
   27      C      10.3708158327    -2.0282630747    -2.3072528338
   28      C       9.8975498941    -3.1110214592    -1.6255552234
   29      C      -4.9552635718     2.2229896642     0.0713152733
   30      H      -3.7718577055     0.4419017730    -1.4759912507
   31      H      -1.4447434296    -0.1862700203    -1.5833986308
   32      H      -0.5771594532     3.2525059796     0.8776610325
   33      H       0.8365917142    -0.6761499143    -0.7671017174
   34      H       7.3113283071     3.0558693084    -4.9544885605
   35      H       8.5919396456     0.8882308820    -4.2244712647
   36      H      11.3665455848    -1.6394956418    -2.4765783896
   37      H      10.4786741729    -3.8737895044    -1.1242584231
   38      H      -5.5152868355     1.8187011933    -0.7806235604
   39      C      -5.4241242456     3.7490331810     0.1979559200
   40      H      -5.3384747584     1.5585580505     0.8555255876
   41      H      -4.8501778596     4.2803985711    -0.5718507884
   42      H      -5.1724459276     4.0880137862     1.2106158696
   43      C      -6.9281441590     3.8079087763     0.1687195678
   44      H      -7.2866110475     3.4127973847    -0.7904657522
   45      C      -7.5220413228     5.2456821218     0.2493357317
   46      H      -7.3559565208     3.2485269156     1.0105951625
   47      H      -6.9033471356     5.8882563511    -0.3886179206
   48      H      -7.3089111113     5.5819219913     1.2717697213
   49      C      -9.0648339713     5.3330186974    -0.2166301106
   50      H      -9.4498854221     6.3255933265     0.0476802860
   51      C      -9.9785846526     4.3193141899     0.5444006798
   52      H      -9.1021623674     5.1931224066    -1.3038323083
   53      H     -11.0590897700     4.4589141717     0.4195986909
   54      H      -9.7740147068     4.4147571514     1.6184056976
   55      H      -9.7290942096     3.2775870059     0.3083964576
   56      C      -7.2145370209    -2.9954197076    -0.5265945106
   57      C      -6.1342418331    -3.3230223982    -1.3583425399
   58      N      -7.0575894364    -2.5615418410     0.7326776810
   59      C      -4.8263141098    -2.9337923574    -0.9743750334
   60      C      -5.8005283780    -2.2567265082     1.1513113017
   61      C      -4.6258679101    -2.3890879513     0.3946302372
   62      C      -3.1887015625    -2.0769132372     0.8985804701
   63      C      -2.0447130118    -2.7185916937     0.3450653806
   64      C      -2.8723269916    -1.1935128883     1.9753928746
   65      N      -0.7927912908    -2.4791567074     0.7955893997
   66      N      -3.8358422348    -0.4511597949     2.5947790715
   67      C      -1.6149590731    -0.9290035165     2.4015321827
   68      C      -0.5144258711    -1.5787927790     1.7520126792
   69      S      -3.0885477469     0.5344966634     3.6244670313
   70      N      -1.5240275728     0.0844236062     3.2874271704
   71      C       0.9252733368    -1.3121707590     2.0552055046
   72      S       1.5736655843    -0.0672832927     3.1157905741
   73      C       2.0259882736    -2.0473582513     1.6279023581
   74      C       3.2548040761    -0.4146086832     2.7904162597
   75      S       2.0635065658    -3.4380960254     0.6673593755
   76      C       3.2132328276    -1.5445202864     2.0370653453
   77      C       4.3856117338     0.1872666401     3.3348252389
   78      C       3.8412607107    -3.4979281969     0.8248246458
   79      C       4.2535173063    -2.3228387105     1.5476906074
   80      N       4.2792949278     1.4654339715     3.7075275458
   81      S       5.9182491064    -0.5260307699     3.7063511315
   82      C       5.4574023750     1.8883542518     4.3155590247
   83      C       6.4488527543     1.0113669469     4.3283423124
   84      C      -8.6111499503    -3.5240707993    -0.7719052294
   85      H      -6.3152450581    -3.8948666001    -2.2631480667
   86      H      -4.0135498617    -3.1965646887    -1.6448927282
   87      H      -5.7479389274    -2.0324964718     2.2151271883
   88      H      -2.0533290155    -3.5678458884    -0.3361996759
   89      H       4.3513474725    -4.3391148015     0.3728527533
   90      H       5.3153306819    -2.1815246825     1.7122284475
   91      H       5.5042205345     2.8935319053     4.7124959779
   92      H       7.4864382135     1.1385656072     4.6083260899
   93      H      -8.4613173528    -4.2104256776    -1.6148887249
   94      C      -9.7484675846    -2.4616715856    -1.0728745126
   95      H      -8.8765726251    -4.1642760897     0.0786974921
   96      H      -9.4821703083    -1.9585544668    -2.0104431370
   97      H      -9.6370482431    -1.6923931016    -0.2991521176
   98      C     -11.1784422531    -3.0327100302    -1.1987059165
   99      H     -11.1081654073    -4.0134827225    -1.6842778380
  100      C     -12.1676282950    -2.1394455802    -2.0396117358
  101      H     -11.4905122068    -3.1083319068    -0.1498014043
  102      H     -12.1570341283    -1.1319367377    -1.6052263126
  103      H     -13.1583847025    -2.6009460938    -1.9481075448
  104      C     -11.8416873459    -2.1623342328    -3.5286915213
  105      H     -10.8329673443    -1.8261339520    -3.7965764397
  106      C     -12.9843678117    -1.3368850904    -4.2221438025
  107      H     -11.9057955233    -3.2193262906    -3.8142627581
  108      H     -12.7893462617    -1.1676793575    -5.2879815083
  109      H     -12.9959068032    -0.2950145995    -3.8789197769
  110      H     -13.9921969042    -1.7194678530    -4.0195112532
 ----------------------------------------------------------------

   10   -5663.4770909777      4.02E-06 Convergence criterion met
 Total energy in the final basis set = -5663.4770909777

                    Orbital Energies (a.u.)
 --------------------------------------------------------------

 Alpha MOs
 -- Occupied --
-88.988 -88.984 -88.924 -88.922 -88.920 -88.916 -88.908 -88.905
-14.382 -14.382 -14.380 -14.378 -14.350 -14.345 -14.337 -14.331
-14.330 -14.321 -10.269 -10.263 -10.262 -10.257 -10.253 -10.252
-10.251 -10.250 -10.245 -10.241 -10.237 -10.233 -10.232 -10.232
-10.230 -10.230 -10.229 -10.228 -10.226 -10.225 -10.225 -10.225
-10.225 -10.224 -10.222 -10.221 -10.220 -10.220 -10.218 -10.217
-10.217 -10.210 -10.206 -10.200 -10.199 -10.197 -10.193 -10.186
-10.185 -10.184 -10.183 -10.181 -10.180 -10.179 -10.179 -10.176
-10.176 -10.175 -10.171 -10.170  -8.043  -8.039  -7.986  -7.984
 -7.979  -7.974  -7.970  -7.965  -6.008  -6.004  -6.003  -6.001
 -5.999  -5.997  -5.950  -5.947  -5.946  -5.944  -5.943  -5.943
 -5.941  -5.939  -5.939  -5.936  -5.935  -5.934  -5.931  -5.931
 -5.930  -5.926  -5.926  -5.922  -1.042  -1.036  -0.973  -0.967
 -0.959  -0.958  -0.941  -0.936  -0.924  -0.915  -0.909  -0.896
 -0.846  -0.844  -0.827  -0.824  -0.809  -0.803  -0.803  -0.802
 -0.801  -0.799  -0.797  -0.795  -0.785  -0.780  -0.769  -0.759
 -0.751  -0.751  -0.742  -0.742  -0.720  -0.715  -0.707  -0.703
 -0.694  -0.690  -0.677  -0.671  -0.655  -0.653  -0.642  -0.638
 -0.638  -0.633  -0.624  -0.623  -0.612  -0.607  -0.600  -0.596
 -0.596  -0.588  -0.587  -0.582  -0.581  -0.578  -0.563  -0.557
 -0.549  -0.548  -0.541  -0.539  -0.525  -0.517  -0.516  -0.510
 -0.506  -0.505  -0.500  -0.500  -0.482  -0.481  -0.475  -0.474
 -0.471  -0.469  -0.467  -0.466  -0.465  -0.456  -0.451  -0.451
 -0.442  -0.439  -0.437  -0.436  -0.434  -0.434  -0.430  -0.429
 -0.428  -0.423  -0.422  -0.420  -0.417  -0.415  -0.413  -0.409
 -0.407  -0.405  -0.403  -0.403  -0.399  -0.399  -0.396  -0.394
 -0.392  -0.391  -0.390  -0.385  -0.385  -0.384  -0.382  -0.378
 -0.375  -0.373  -0.373  -0.372  -0.361  -0.359  -0.358  -0.353
 -0.352  -0.350  -0.346  -0.345  -0.344  -0.344  -0.342  -0.340
 -0.336  -0.332  -0.331  -0.329  -0.327  -0.327  -0.323  -0.317
 -0.314  -0.313  -0.307  -0.305  -0.303  -0.302  -0.301  -0.299
 -0.295  -0.293  -0.286  -0.284  -0.283  -0.279  -0.278  -0.276
 -0.273  -0.271  -0.270  -0.263  -0.257  -0.254  -0.253  -0.243
 -0.242  -0.238  -0.231  -0.227  -0.194  -0.190

          Ground-State Mulliken Net Atomic Charges

     Atom                 Charge (a.u.)
  ----------------------------------------
      1 C                     0.299190
      2 C                    -0.115895
      3 N                    -0.510399
      4 C                    -0.092651
      5 C                     0.091792
      6 C                     0.026810
      7 C                     0.032642
      8 C                     0.065185
      9 C                     0.196745
     10 N                    -0.496214
     11 N                    -0.531624
     12 C                     0.257133
     13 C                     0.229034
     14 S                     0.600470
     15 N                    -0.551264
     16 C                    -0.211776
     17 S                     0.323515
     18 C                    -0.110702
     19 C                    -0.261579
     20 S                     0.280554
     21 C                     0.190539
     22 C                     0.081984
     23 C                    -0.297247
     24 C                    -0.071757
     25 N                    -0.434178
     26 S                     0.241702
     27 C                     0.128946
     28 C                    -0.318900
     29 C                    -0.254646
     30 H                     0.088959
     31 H                     0.102179
     32 H                     0.130225
     33 H                     0.116981
     34 H                     0.116197
     35 H                     0.120598
     36 H                     0.117634
     37 H                     0.126199
     38 H                     0.096608
     39 C                    -0.164435
     40 H                     0.130782
     41 H                     0.099925
     42 H                     0.109282
     43 C                    -0.173691
     44 H                     0.084279
     45 C                    -0.188551
     46 H                     0.098759
     47 H                     0.089535
     48 H                     0.088901
     49 C                    -0.178556
     50 H                     0.096137
     51 C                    -0.322957
     52 H                     0.096840
     53 H                     0.099023
     54 H                     0.103257
     55 H                     0.107623
     56 C                     0.262025
     57 C                    -0.118994
     58 N                    -0.468713
     59 C                    -0.096181
     60 C                     0.076180
     61 C                     0.035948
     62 C                     0.053756
     63 C                     0.031573
     64 C                     0.219344
     65 N                    -0.536636
     66 N                    -0.552263
     67 C                     0.228474
     68 C                     0.316347
     69 S                     0.629591
     70 N                    -0.576094
     71 C                    -0.231207
     72 S                     0.346658
     73 C                    -0.111745
     74 C                    -0.184624
     75 S                     0.277656
     76 C                     0.183859
     77 C                     0.031711
     78 C                    -0.307668
     79 C                    -0.119339
     80 N                    -0.436760
     81 S                     0.274392
     82 C                     0.128924
     83 C                    -0.299440
     84 C                    -0.220966
     85 H                     0.097311
     86 H                     0.100628
     87 H                     0.118136
     88 H                     0.120056
     89 H                     0.136767
     90 H                     0.116378
     91 H                     0.113636
     92 H                     0.137193
     93 H                     0.081330
     94 C                    -0.183372
     95 H                     0.122091
     96 H                     0.087246
     97 H                     0.113571
     98 C                    -0.183707
     99 H                     0.089011
    100 C                    -0.169159
    101 H                     0.095856
    102 H                     0.094562
    103 H                     0.094318
    104 C                    -0.171547
    105 H                     0.097880
    106 C                    -0.323702
    107 H                     0.095297
    108 H                     0.095226
    109 H                     0.103527
    110 H                     0.106515
  ----------------------------------------
  Sum of atomic charges =     0.000000

                    Cartesian Multipole Moments
 -----------------------------------------------------------------
    Charge (ESU x 10^10)
                 0.0000
    Dipole Moment (Debye)
         X       1.9406      Y      -1.7930      Z      -1.3377
       Tot       2.9615
    Quadrupole Moments (Debye-Ang)
        XX    -403.2545     XY      -0.4464     YY    -432.8315
        XZ      19.8243     YZ       3.7540     ZZ    -436.2082

 Total job time:  109.02s(wall), 1178.02s(cpu)
        *  Thank you very much for using Q-Chem.  Have a nice day.  *
