 Q-Chem 4.4, Q-Chem, Inc., Pleasanton, CA (2016)
 Q-Chem 4.4.2 for Intel X86 Linux

User input:
--------------------------------------------------------------
$comment
SP
$end

$rem
MEM_STATIC 5000
MEM_TOTAL 20000
JOBTYPE SP
EXCHANGE B3LYP
BASIS 6-31g(d,p)
$end

$molecule
0 1
C           2.851000    -30.692000     -0.724000
C           2.110000    -30.274000      0.352000
N           3.962000    -30.042000     -1.126000
C           2.444000    -29.064000      1.036000
C           4.302000    -28.899000     -0.477000
C           3.624000    -28.342000      0.656000
C           3.984000    -27.010000      1.217000
C           2.924000    -26.217000      1.783000
C           5.299000    -26.459000      1.386000
N           3.115000    -24.906000      2.179000
N           6.436000    -27.106000      1.052000
C           5.492000    -25.212000      1.983000
C           4.381000    -24.419000      2.336000
S           7.659000    -26.150000      1.574000
N           6.778000    -24.812000      2.005000
C           4.596000    -23.017000      2.808000
S           6.201000    -22.145000      3.124000
C           3.631000    -22.241000      3.357000
C           5.387000    -20.753000      3.842000
S           1.855000    -22.408000      3.197000
C           4.037000    -20.983000      3.772000
C           6.164000    -19.698000      4.497000
C           1.671000    -20.819000      3.902000
C           2.896000    -20.204000      4.127000
N           5.627000    -19.158000      5.555000
S           7.739000    -19.155000      3.931000
C           6.448000    -18.155000      5.942000
C           7.602000    -18.025000      5.245000
C           2.540000    -31.963000     -1.364000
H           1.324000    -30.856000      0.825000
H           1.898000    -28.607000      1.855000
H           5.217000    -28.445000     -0.856000
H           1.941000    -26.667000      1.918000
H           0.739000    -20.418000      4.277000
H           2.979000    -19.220000      4.574000
H           6.131000    -17.407000      6.657000
H           8.357000    -17.306000      5.536000
H           1.466000    -32.165000     -1.266000
C           3.371000    -33.203000     -0.751000
H           2.615000    -31.917000     -2.458000
H           3.130000    -33.157000      0.319000
H           4.465000    -33.245000     -0.819000
C           2.790000    -34.532000     -1.169000
H           1.700000    -34.479000     -1.065000
C           3.409000    -35.751000     -0.429000
H           3.006000    -34.670000     -2.236000
H           3.269000    -35.673000      0.656000
H           4.487000    -35.873000     -0.595000
C           2.701000    -37.011000     -0.945000
H           1.625000    -36.797000     -0.949000
C           3.074000    -38.312000     -0.150000
H           2.882000    -37.218000     -2.007000
H           4.150000    -38.395000      0.047000
H           2.742000    -39.067000     -0.873000
H           2.502000    -38.345000      0.785000
C           4.009000    -27.750000     -3.696000
C           5.390000    -27.771000     -3.938000
N           3.445000    -26.963000     -2.768000
C           6.201000    -26.745000     -3.391000
C           4.223000    -26.022000     -2.170000
C           5.591000    -25.814000     -2.405000
C           6.480000    -24.762000     -1.684000
C           7.884000    -24.944000     -1.534000
C           5.997000    -23.572000     -1.059000
N           8.663000    -24.052000     -0.882000
N           4.685000    -23.205000     -1.143000
C           6.784000    -22.663000     -0.437000
C           8.197000    -22.898000     -0.378000
S           4.555000    -21.747000     -0.474000
N           6.158000    -21.517000     -0.098000
C           9.192000    -21.939000      0.193000
S           8.887000    -20.297000      0.746000
C          10.531000    -22.185000      0.478000
C          10.552000    -19.924000      1.122000
S          11.412000    -23.614000      0.278000
C          11.195000    -21.110000      0.961000
C          11.078000    -18.753000      1.660000
C          12.855000    -22.820000      0.968000
C          12.524000    -21.437000      1.194000
N          10.437000    -17.613000      1.389000
S          12.415000    -18.565000      2.743000
C          11.028000    -16.555000      2.073000
C          12.120000    -16.849000      2.761000
C           3.103000    -28.896000     -4.091000
H           5.816000    -28.588000     -4.512000
H           7.265000    -26.787000     -3.604000
H           3.722000    -25.514000     -1.348000
H           8.438000    -25.857000     -1.746000
H          13.740000    -23.429000      1.102000
H          13.301000    -20.793000      1.589000
H          10.587000    -15.571000      1.987000
H          12.829000    -16.196000      3.253000
H           3.814000    -29.644000     -4.464000
C           1.962000    -28.590000     -5.148000
H           2.690000    -29.324000     -3.169000
H           2.456000    -28.302000     -6.084000
H           1.477000    -27.673000     -4.792000
C           0.987000    -29.754000     -5.433000
H           1.559000    -30.689000     -5.398000
C           0.264000    -29.674000     -6.831000
H           0.276000    -29.669000     -4.602000
H          -0.225000    -28.694000     -6.897000
H          -0.472000    -30.487000     -6.848000
C           1.214000    -29.958000     -7.989000
H           2.082000    -29.292000     -8.062000
C           0.316000    -29.964000     -9.278000
H           1.606000    -30.963000     -7.791000
H           0.908000    -30.027000    -10.199000
H          -0.161000    -28.990000     -9.443000
H          -0.508000    -30.687000     -9.240000
$end

--------------------------------------------------------------

             Standard Nuclear Orientation (Angstroms)
    I     Atom           X                Y                Z
 ----------------------------------------------------------------
    1      C       6.5504677773     0.8583590943    -1.2042488971
    2      C       6.1355025291     2.1539483120    -1.3798433781
    3      N       5.6792131255    -0.1623632855    -1.0720893150
    4      C       4.7448846835     2.4820749800    -1.3348223026
    5      C       4.3538176666     0.1304108240    -1.0427601762
    6      C       3.7762725669     1.4312837297    -1.2094735256
    7      C       2.3195261243     1.6797185800    -1.0231541030
    8      C       1.9244854196     2.9575715957    -0.4903881958
    9      C       1.2298264059     0.8408123677    -1.4356803333
   10      N       0.6197141049     3.2319486711    -0.1239089512
   11      N       1.3859459915    -0.3334217793    -2.0835497979
   12      C      -0.0973787125     1.2292893913    -1.2452094017
   13      C      -0.3916268679     2.4148956163    -0.5412670019
   14      S      -0.1257239547    -0.8280208099    -2.4739019115
   15      N      -0.9963786598     0.3014976281    -1.6263675566
   16      C      -1.8095399174     2.7300041263    -0.1879368292
   17      S      -3.3435998326     1.8009362243    -0.6567203721
   18      C      -2.2259504593     3.9215039892     0.3037259995
   19      C      -4.3936032516     3.0633840899    -0.0090304720
   20      S      -1.2527701547     5.1747816822     1.1343162227
   21      C      -3.5883447608     4.0340289915     0.5292141172
   22      C      -5.8402825792     3.0096801932    -0.2326681579
   23      C      -2.7352815510     5.9681488779     1.6123648110
   24      C      -3.8587174991     5.2422016239     1.2377086287
   25      N      -6.4379611155     4.1527218302    -0.4212660988
   26      S      -6.7664229500     1.5138751777    -0.2583852592
   27      C      -7.7625107656     3.8921832540    -0.5079083204
   28      C      -8.1173951268     2.5853986832    -0.4796917317
   29      C       7.9648419383     0.5313878539    -1.3242386492
   30      H       6.7825907347     2.9761922860    -1.6721457927
   31      H       4.3072733509     3.4730510347    -1.3995430905
   32      H       3.7206281918    -0.7508742681    -0.9458598385
   33      H       2.6740475044     3.7411393615    -0.3845948241
   34      H      -2.7944533311     6.9757714657     2.0012676534
   35      H      -4.8668053477     5.5874909092     1.4364250067
   36      H      -8.5007073415     4.6809334987    -0.4434345523
   37      H      -9.1447541033     2.2781664481    -0.6273700549
   38      H       8.5644504817     1.3960631012    -1.0132879919
   39      C       8.3923726651     0.0994752334    -2.8190961561
   40      H       8.2973361019    -0.1970142106    -0.5736022102
   41      H       8.0659109276     0.9539812262    -3.4260057393
   42      H       7.9730886342    -0.7951337843    -3.2956458460
   43      C       9.8906948177     0.1109600753    -3.0019207317
   44      H      10.2859430399     1.0262241745    -2.5460748461
   45      C      10.3469934118    -0.0754599954    -4.4762887829
   46      H      10.3024512815    -0.7347822711    -2.4367964109
   47      H       9.9445566263     0.7144660380    -5.1220213092
   48      H      10.0364328467    -1.0291109356    -4.9219635742
   49      C      11.8804072744    -0.0169366075    -4.4946446773
   50      H      12.1772644366     0.8424768004    -3.8807453211
   51      C      12.4913607234     0.0099960756    -5.9402468058
   52      H      12.3622333895    -0.8418262682    -3.9553352647
   53      H      12.0159524871    -0.7123400020    -6.6152961372
   54      H      13.5222784209    -0.2822522349    -5.7062006011
   55      H      12.4242921794     1.0265574744    -6.3459594294
   56      C       4.7255638520    -1.4780932969     1.9643198472
   57      C       4.2275554486    -2.6996382316     1.4889446240
   58      N       3.9850053064    -0.3611366762     2.0156028661
   59      C       2.8295710050    -2.8503752934     1.3086009695
   60      C       2.6523913616    -0.4662855694     1.7677061451
   61      C       1.9696666013    -1.6424624279     1.4207077312
   62      C       0.4521160648    -1.7424556395     1.0983605165
   63      C      -0.0683243130    -2.7611568062     0.2508761531
   64      C      -0.5428042309    -0.8210753961     1.5469204925
   65      N      -1.3810803410    -2.8403123791    -0.0621973309
   66      N      -0.2386805970     0.1922483998     2.4093430687
   67      C      -1.8619524277    -0.9226773354     1.2604609300
   68      C      -2.3093349287    -2.0117919480     0.4425653019
   69      S      -1.6241151144     0.9038304614     2.8148639282
   70      N      -2.6528333624    -0.0734232112     1.9484927459
   71      C      -3.7417345436    -2.2991852670     0.1241576646
   72      S      -5.1587623731    -1.4989838144     0.7925196666
   73      C      -4.2309709800    -3.1927378361    -0.8228763978
   74      C      -6.3319039363    -2.5048893347    -0.0227244422
   75      S      -3.3707817411    -4.1917072569    -1.8813359245
   76      C      -5.5812328408    -3.2626327475    -0.8643204419
   77      C      -7.7207731410    -2.4209580520     0.0141384421
   78      C      -4.9077545820    -4.7746261884    -2.5789783872
   79      C      -5.9804986169    -4.1915592176    -1.8157096646
   80      N      -8.2754344336    -1.9381482590     1.1291126813
   81      S      -8.8590989850    -2.7607476459    -1.2446543544
   82      C      -9.6538562501    -1.8295276584     0.9720908327
   83      C     -10.1440958873    -2.2891395441    -0.1683766210
   84      C       6.2075500067    -1.1760458504     2.0159083854
   85      H       4.9226960600    -3.4949004381     1.2383881370
   86      H       2.4768366701    -3.8114339047     0.9464216843
   87      H       2.1521502708     0.4986094181     1.7086679028
   88      H       0.5161706578    -3.4446174017    -0.3628634036
   89      H      -4.8449345948    -5.4592181692    -3.4153093439
   90      H      -6.9942857242    -4.4616496206    -2.0873286538
   91      H     -10.2362518125    -1.4082306451     1.7804578505
   92      H     -11.1712412423    -2.4453851644    -0.4712193620
   93      H       6.6473157420    -2.0582905276     1.5338249615
   94      C       6.8453373323    -0.9050814030     3.4415912377
   95      H       6.3996659328    -0.3440368866     1.3269312049
   96      H       6.7377585290    -1.8273882720     4.0254172738
   97      H       6.1743120626    -0.1854388098     3.9260389909
   98      C       8.3317590015    -0.4840275806     3.4383818862
   99      H       8.8354221051    -1.0316449032     2.6327313751
  100      C       9.0976062961    -0.7780960079     4.7839429890
  101      H       8.2670543935     0.5917790372     3.2340281856
  102      H       8.5321302493    -0.3078141899     5.5981596998
  103      H      10.0928032576    -0.3288359710     4.6804904533
  104      C       9.3414061905    -2.2680599070     4.9953411702
  105      H       8.4421674406    -2.8950451609     5.0191773202
  106      C      10.2142218197    -2.3708829225     6.2974860565
  107      H       9.9212081258    -2.5850016371     4.1199723020
  108      H      10.3461192555    -3.4072538380     6.6309712765
  109      H       9.6848884241    -1.9719268975     7.1715971744
  110      H      11.1538503563    -1.8073136928     6.2461349469
 ----------------------------------------------------------------

   10   -5663.4914336389      4.18E-06 Convergence criterion met
 Total energy in the final basis set = -5663.4914336389

                    Orbital Energies (a.u.)
 --------------------------------------------------------------

 Alpha MOs
 -- Occupied --
-88.986 -88.985 -88.929 -88.929 -88.923 -88.918 -88.908 -88.903
-14.384 -14.380 -14.379 -14.375 -14.354 -14.348 -14.342 -14.341
-14.324 -14.322 -10.268 -10.267 -10.267 -10.264 -10.255 -10.251
-10.250 -10.248 -10.245 -10.243 -10.242 -10.240 -10.238 -10.235
-10.234 -10.232 -10.229 -10.228 -10.226 -10.226 -10.223 -10.222
-10.222 -10.222 -10.221 -10.221 -10.220 -10.219 -10.218 -10.216
-10.215 -10.214 -10.205 -10.202 -10.200 -10.198 -10.197 -10.190
-10.185 -10.183 -10.179 -10.178 -10.177 -10.176 -10.175 -10.174
-10.174 -10.173 -10.172 -10.172  -8.041  -8.039  -7.990  -7.989
 -7.981  -7.976  -7.969  -7.963  -6.006  -6.005  -6.000  -5.999
 -5.999  -5.997  -5.954  -5.953  -5.951  -5.950  -5.947  -5.946
 -5.946  -5.942  -5.940  -5.938  -5.936  -5.933  -5.932  -5.929
 -5.927  -5.925  -5.924  -5.919  -1.034  -1.032  -0.980  -0.971
 -0.956  -0.944  -0.932  -0.929  -0.926  -0.907  -0.899  -0.893
 -0.849  -0.834  -0.826  -0.824  -0.810  -0.810  -0.808  -0.806
 -0.802  -0.797  -0.793  -0.789  -0.784  -0.778  -0.767  -0.761
 -0.752  -0.747  -0.739  -0.736  -0.722  -0.719  -0.705  -0.705
 -0.692  -0.687  -0.675  -0.669  -0.656  -0.651  -0.644  -0.640
 -0.634  -0.633  -0.621  -0.619  -0.610  -0.609  -0.601  -0.597
 -0.588  -0.587  -0.584  -0.578  -0.578  -0.577  -0.576  -0.557
 -0.550  -0.549  -0.540  -0.533  -0.525  -0.520  -0.519  -0.511
 -0.503  -0.501  -0.497  -0.492  -0.483  -0.481  -0.479  -0.473
 -0.469  -0.468  -0.464  -0.462  -0.459  -0.457  -0.451  -0.447
 -0.445  -0.444  -0.441  -0.437  -0.436  -0.432  -0.431  -0.430
 -0.428  -0.428  -0.424  -0.421  -0.418  -0.414  -0.413  -0.409
 -0.408  -0.407  -0.401  -0.400  -0.398  -0.397  -0.396  -0.394
 -0.392  -0.391  -0.389  -0.387  -0.386  -0.381  -0.379  -0.378
 -0.378  -0.375  -0.371  -0.370  -0.358  -0.355  -0.354  -0.350
 -0.350  -0.348  -0.347  -0.346  -0.343  -0.342  -0.341  -0.337
 -0.336  -0.334  -0.332  -0.331  -0.321  -0.321  -0.319  -0.317
 -0.315  -0.310  -0.307  -0.304  -0.303  -0.300  -0.298  -0.298
 -0.297  -0.291  -0.290  -0.288  -0.287  -0.282  -0.278  -0.275
 -0.272  -0.269  -0.266  -0.261  -0.259  -0.250  -0.248  -0.248
 -0.244  -0.241  -0.230  -0.225  -0.195  -0.191

          Ground-State Mulliken Net Atomic Charges

     Atom                 Charge (a.u.)
  ----------------------------------------
      1 C                     0.282004
      2 C                    -0.117122
      3 N                    -0.485593
      4 C                    -0.087290
      5 C                     0.085567
      6 C                     0.051256
      7 C                     0.030208
      8 C                     0.061245
      9 C                     0.229754
     10 N                    -0.536338
     11 N                    -0.554509
     12 C                     0.228150
     13 C                     0.301348
     14 S                     0.619048
     15 N                    -0.588284
     16 C                    -0.236798
     17 S                     0.326146
     18 C                    -0.139520
     19 C                    -0.245724
     20 S                     0.279920
     21 C                     0.193990
     22 C                     0.038131
     23 C                    -0.314853
     24 C                    -0.062028
     25 N                    -0.403647
     26 S                     0.319366
     27 C                     0.118120
     28 C                    -0.308578
     29 C                    -0.239110
     30 H                     0.091760
     31 H                     0.093851
     32 H                     0.118642
     33 H                     0.116878
     34 H                     0.129626
     35 H                     0.107142
     36 H                     0.109140
     37 H                     0.123486
     38 H                     0.095431
     39 C                    -0.170297
     40 H                     0.112049
     41 H                     0.091855
     42 H                     0.108848
     43 C                    -0.175600
     44 H                     0.088568
     45 C                    -0.170620
     46 H                     0.093451
     47 H                     0.090859
     48 H                     0.092733
     49 C                    -0.183079
     50 H                     0.090671
     51 C                    -0.319239
     52 H                     0.091867
     53 H                     0.104796
     54 H                     0.101812
     55 H                     0.106563
     56 C                     0.268639
     57 C                    -0.113285
     58 N                    -0.465066
     59 C                    -0.092906
     60 C                     0.063949
     61 C                     0.041901
     62 C                     0.053890
     63 C                     0.025553
     64 C                     0.197576
     65 N                    -0.528878
     66 N                    -0.545226
     67 C                     0.251137
     68 C                     0.314765
     69 S                     0.630794
     70 N                    -0.580531
     71 C                    -0.218112
     72 S                     0.358648
     73 C                    -0.118884
     74 C                    -0.189786
     75 S                     0.274158
     76 C                     0.178161
     77 C                     0.031883
     78 C                    -0.312824
     79 C                    -0.125373
     80 N                    -0.436165
     81 S                     0.267953
     82 C                     0.124239
     83 C                    -0.302328
     84 C                    -0.218368
     85 H                     0.098948
     86 H                     0.101112
     87 H                     0.119555
     88 H                     0.120862
     89 H                     0.136671
     90 H                     0.108383
     91 H                     0.114475
     92 H                     0.136783
     93 H                     0.082637
     94 C                    -0.187518
     95 H                     0.133821
     96 H                     0.085180
     97 H                     0.111202
     98 C                    -0.184798
     99 H                     0.088077
    100 C                    -0.167803
    101 H                     0.092961
    102 H                     0.094083
    103 H                     0.091719
    104 C                    -0.171438
    105 H                     0.099463
    106 C                    -0.323539
    107 H                     0.094647
    108 H                     0.094525
    109 H                     0.103125
    110 H                     0.105297
  ----------------------------------------
  Sum of atomic charges =     0.000000

                    Cartesian Multipole Moments
 -----------------------------------------------------------------
    Charge (ESU x 10^10)
                 0.0000
    Dipole Moment (Debye)
         X      -2.2476      Y      -0.9610      Z      -2.1780
       Tot       3.2739
    Quadrupole Moments (Debye-Ang)
        XX    -370.8755     XY       6.8678     YY    -432.1134
        XZ       4.0937     YZ      11.8792     ZZ    -446.5795

 Total job time:  114.64s(wall), 1223.16s(cpu)
        *  Thank you very much for using Q-Chem.  Have a nice day.  *
