 Q-Chem 4.4, Q-Chem, Inc., Pleasanton, CA (2016)
 Q-Chem 4.4.2 for Intel X86 Linux

User input:
--------------------------------------------------------------
$comment
SP
$end

$rem
MEM_STATIC 5000
MEM_TOTAL 20000
JOBTYPE SP
EXCHANGE B3LYP
BASIS 6-31g(d,p)
$end

$molecule
0 1
C          -1.098000    -17.778000     12.009000
C          -0.302000    -17.043000     12.912000
N          -0.579000    -18.160000     10.807000
C           0.959000    -16.510000     12.578000
C           0.768000    -17.867000     10.569000
C           1.568000    -16.988000     11.395000
C           2.921000    -16.471000     11.001000
C           3.290000    -15.128000     11.238000
C           3.866000    -17.246000     10.298000
N           4.348000    -14.503000     10.679000
N           3.863000    -18.598000     10.136000
C           5.076000    -16.671000      9.928000
C           5.220000    -15.265000     10.013000
S           5.348000    -19.034000      9.531000
N           6.006000    -17.547000      9.376000
C           6.302000    -14.594000      9.279000
S           7.311000    -15.320000      7.921000
C           6.582000    -13.217000      9.320000
C           7.979000    -13.762000      7.590000
S           5.794000    -12.035000     10.343000
C           7.496000    -12.813000      8.373000
C           8.733000    -13.511000      6.451000
C           6.843000    -10.834000      9.508000
C           7.670000    -11.390000      8.461000
N           9.029000    -14.588000      5.776000
S           8.569000    -12.028000      5.485000
C           9.122000    -14.284000      4.453000
C           9.032000    -12.980000      4.103000
C          -2.340000    -18.440000     12.424000
H          -0.788000    -16.670000     13.808000
H           1.503000    -15.911000     13.302000
H           1.149000    -18.269000      9.631000
H           2.584000    -14.430000     11.686000
H           6.904000     -9.816000      9.869000
H           8.412000    -10.817000      7.916000
H           9.208000    -15.096000      3.744000
H           8.969000    -12.601000      3.091000
H          -2.099000    -19.392000     12.912000
C          -3.464000    -18.602000     11.314000
H          -2.667000    -17.845000     13.286000
H          -3.015000    -19.102000     10.447000
H          -3.854000    -17.610000     11.052000
C          -4.565000    -19.550000     11.770000
H          -4.158000    -20.447000     12.252000
C          -5.618000    -19.934000     10.650000
H          -5.212000    -19.244000     12.601000
H          -6.442000    -20.510000     11.090000
H          -5.136000    -20.717000     10.051000
C          -6.240000    -18.853000      9.800000
H          -5.468000    -18.255000      9.299000
C          -7.144000    -17.983000     10.580000
H          -6.687000    -19.338000      8.924000
H          -7.556000    -17.182000      9.953000
H          -6.559000    -17.540000     11.395000
H          -8.029000    -18.535000     10.917000
C           4.009000    -27.750000     -3.696000
C           5.390000    -27.771000     -3.938000
N           3.445000    -26.963000     -2.768000
C           6.201000    -26.745000     -3.391000
C           4.223000    -26.022000     -2.170000
C           5.591000    -25.814000     -2.405000
C           6.480000    -24.762000     -1.684000
C           7.884000    -24.944000     -1.534000
C           5.997000    -23.572000     -1.059000
N           8.663000    -24.052000     -0.882000
N           4.685000    -23.205000     -1.143000
C           6.784000    -22.663000     -0.437000
C           8.197000    -22.898000     -0.378000
S           4.555000    -21.747000     -0.474000
N           6.158000    -21.517000     -0.098000
C           9.192000    -21.939000      0.193000
S           8.887000    -20.297000      0.746000
C          10.531000    -22.185000      0.478000
C          10.552000    -19.924000      1.122000
S          11.412000    -23.614000      0.278000
C          11.195000    -21.110000      0.961000
C          11.078000    -18.753000      1.660000
C          12.855000    -22.820000      0.968000
C          12.524000    -21.437000      1.194000
N          10.437000    -17.613000      1.389000
S          12.415000    -18.565000      2.743000
C          11.028000    -16.555000      2.073000
C          12.120000    -16.849000      2.761000
C           3.103000    -28.896000     -4.091000
H           5.816000    -28.588000     -4.512000
H           7.265000    -26.787000     -3.604000
H           3.722000    -25.514000     -1.348000
H           8.438000    -25.857000     -1.746000
H          13.740000    -23.429000      1.102000
H          13.301000    -20.793000      1.589000
H          10.587000    -15.571000      1.987000
H          12.829000    -16.196000      3.253000
H           3.814000    -29.644000     -4.464000
C           1.962000    -28.590000     -5.148000
H           2.690000    -29.324000     -3.169000
H           2.456000    -28.302000     -6.084000
H           1.477000    -27.673000     -4.792000
C           0.987000    -29.754000     -5.433000
H           1.559000    -30.689000     -5.398000
C           0.264000    -29.674000     -6.831000
H           0.276000    -29.669000     -4.602000
H          -0.225000    -28.694000     -6.897000
H          -0.472000    -30.487000     -6.848000
C           1.214000    -29.958000     -7.989000
H           2.082000    -29.292000     -8.062000
C           0.316000    -29.964000     -9.278000
H           1.606000    -30.963000     -7.791000
H           0.908000    -30.027000    -10.199000
H          -0.161000    -28.990000     -9.443000
H          -0.508000    -30.687000     -9.240000
$end

--------------------------------------------------------------

             Standard Nuclear Orientation (Angstroms)
    I     Atom           X                Y                Z
 ----------------------------------------------------------------
    1      C       8.1295181951    -6.3804827274    -1.0435846550
    2      C       9.1893111002    -5.5161779558    -1.3886444471
    3      N       6.8965485405    -5.8636399382    -0.7738656126
    4      C       9.1065029635    -4.1124253517    -1.2970614843
    5      C       6.7299233730    -4.4847130718    -0.9402950295
    6      C       7.8182191322    -3.5516216637    -1.1399691761
    7      C       7.6677918642    -2.0603816614    -1.0580613474
    8      C       8.6363569762    -1.2604035132    -0.4116129070
    9      C       6.5289841765    -1.3749745608    -1.5283731131
   10      N       8.4598281231     0.0257473528    -0.0413109845
   11      N       5.5690697342    -1.8544030770    -2.3667462767
   12      C       6.4502472216     0.0031108094    -1.3661812374
   13      C       7.3666131580     0.6434632696    -0.4972628309
   14      S       4.6505712750    -0.5634954411    -2.8680087389
   15      N       5.3683403090     0.6143315176    -1.9929720145
   16      C       7.0794962676     1.9953050572     0.0025458052
   17      S       5.4538789444     2.8572470977    -0.0586525366
   18      C       7.9273590651     2.7561981681     0.8261842880
   19      C       6.0773970471     4.0973617645     0.9692043547
   20      S       9.5472319674     2.3168239321     1.3237373618
   21      C       7.3300992127     3.8875520672     1.3348492304
   22      C       5.2557077895     5.0546326804     1.5499772512
   23      C       9.5126113524     3.8503454800     2.2656184981
   24      C       8.2556724042     4.5612358095     2.2022669397
   25      N       4.0305400432     5.0292153537     1.1011031565
   26      S       5.4394494193     5.6013954474     3.2312358542
   27      C       3.1781508656     5.4285884136     2.0836141482
   28      C       3.7215200152     5.8829751854     3.2365662847
   29      C       8.1934179129    -7.8269975550    -1.2813759073
   30      H      10.1748014896    -5.9595332016    -1.4905552829
   31      H       9.9735551468    -3.5021638033    -1.5309724802
   32      H       5.7065341654    -4.1419110781    -0.7927473328
   33      H       9.5005509872    -1.7165795891     0.0694443652
   34      H      10.4141709794     4.2287563977     2.7286103085
   35      H       8.0960307326     5.5364726721     2.6487482926
   36      H       2.1153854352     5.3142258359     1.9196878208
   37      H       3.1760518740     6.1198883762     4.1410499203
   38      H       7.9563728206    -8.0335315278    -2.3319387766
   39      C       7.3657877661    -8.7477983964    -0.2869543918
   40      H       9.2702981341    -8.0371881427    -1.2692554279
   41      H       6.3289375626    -8.3898498403    -0.2767325239
   42      H       7.8212154381    -8.6973476547     0.7104664613
   43      C       7.2680865231   -10.1774345560    -0.8021591262
   44      H       7.0403067288   -10.2105809447    -1.8743529903
   45      C       6.2871286160   -11.1139886492     0.0171411942
   46      H       8.1810937653   -10.7832358747    -0.8493665180
   47      H       6.3731541989   -12.1494737565    -0.3360190974
   48      H       5.2800633986   -10.8715555256    -0.3451567890
   49      C       6.3682084435   -11.1535488126     1.5237287472
   50      H       6.2545926286   -10.1482568843     1.9492502925
   51      C       7.6205733283   -11.7778906920     1.9973271139
   52      H       5.4416161005   -11.6095277087     1.8924018765
   53      H       7.6769622646   -11.7628455038     3.0932595617
   54      H       8.4571799883   -11.2017710456     1.5839574859
   55      H       7.6486681770   -12.8446775608     1.7469784451
   56      C     -10.8519848865    -3.0082823507    -0.3364330585
   57      C     -11.2195844946    -1.7140347393    -0.7313503264
   58      N      -9.5767346320    -3.3744499352    -0.1407110912
   59      C     -10.2588550115    -0.6738742351    -0.6630057164
   60      C      -8.6248220303    -2.4038069652    -0.1498556743
   61      C      -8.8440981511    -1.0376175519    -0.3851373562
   62      C      -7.7414225064     0.0571493531    -0.4347140259
   63      C      -7.9063236833     1.2530794501    -1.1892992132
   64      C      -6.4628639364    -0.0392355992     0.1945807571
   65      N      -6.9427781686     2.1982462738    -1.2657761162
   66      N      -6.1435685949    -1.0923288573     1.0021289444
   67      C      -5.5131204172     0.9241321236     0.1451451594
   68      C      -5.7825743587     2.1225099776    -0.5941518665
   69      S      -4.7079646904    -0.7726371103     1.6556299897
   70      N      -4.4668727826     0.7239704403     0.9730426094
   71      C      -4.8667058060     3.3027408235    -0.6572941239
   72      S      -3.3866662932     3.5480013961     0.2615792580
   73      C      -4.9582888612     4.3948340892    -1.5138026428
   74      C      -3.0648039400     5.1544365812    -0.3454632626
   75      S      -6.1018217607     4.7025049550    -2.7203983274
   76      C      -3.9993701488     5.3282371448    -1.3162080105
   77      C      -1.9872424071     5.9886366617    -0.0620336090
   78      C      -5.2492375620     6.2138615490    -3.1419270097
   79      C      -4.1801675898     6.3890503783    -2.1933890459
   80      N      -1.4172296339     5.8653881440     1.1395558556
   81      S      -1.1902374583     7.1183273731    -1.1033712143
   82      C      -0.3037032810     6.6950044025     1.2306433133
   83      C      -0.0817585805     7.4816503640     0.1894071820
   84      C     -11.7571178125    -4.2031181413    -0.5444686798
   85      H     -12.2214405431    -1.5393197647    -1.1110872559
   86      H     -10.5786530507     0.3177546703    -0.9689964487
   87      H      -7.6117595836    -2.7995763603    -0.1071934543
   88      H      -8.7013550106     1.4543425324    -1.9054328322
   89      H      -5.6275192208     6.7784124608    -3.9846886928
   90      H      -3.5692639981     7.2795534079    -2.2844448310
   91      H       0.2897938637     6.6689673243     2.1346434294
   92      H       0.6183231305     8.2984238753     0.0714214663
   93      H     -12.5944483917    -3.7723219898    -1.1078923011
   94      C     -12.2526882418    -4.9740201868     0.7489322580
   95      H     -11.2544966550    -4.8805797344    -1.2460773755
   96      H     -12.8623516861    -4.2721342921     1.3309483020
   97      H     -11.3515300938    -5.1325122456     1.3536175146
   98      C     -13.0750750100    -6.2554931472     0.4876794011
   99      H     -13.6937829599    -6.0835064287    -0.4012835010
  100      C     -14.0256554144    -6.6753327569     1.6724429205
  101      H     -12.2907300469    -7.0018782217     0.3115564341
  102      H     -13.4132887666    -6.7498730079     2.5798170658
  103      H     -14.4518534261    -7.6484976804     1.3999373490
  104      C     -15.2158865699    -5.7339936132     1.8185607260
  105      H     -14.9662959299    -4.6807051007     1.9934801982
  106      C     -16.1136836581    -6.3626444699     2.9440470603
  107      H     -15.7293443222    -5.7776879155     0.8503949631
  108      H     -16.9400935681    -5.7034182398     3.2358371189
  109      H     -15.5834490786    -6.4133419778     3.9030627293
  110      H     -16.4309681661    -7.3914303548     2.7340967233
 ----------------------------------------------------------------

    9   -5663.4795717115      7.77E-06 Convergence criterion met
 Total energy in the final basis set = -5663.4795717115

                    Orbital Energies (a.u.)
 --------------------------------------------------------------

 Alpha MOs
 -- Occupied --
-88.990 -88.990 -88.927 -88.927 -88.922 -88.920 -88.916 -88.907
-14.389 -14.383 -14.380 -14.379 -14.352 -14.350 -14.341 -14.340
-14.332 -14.327 -10.269 -10.265 -10.261 -10.260 -10.254 -10.253
-10.253 -10.252 -10.244 -10.243 -10.241 -10.239 -10.237 -10.236
-10.233 -10.233 -10.231 -10.230 -10.228 -10.228 -10.227 -10.227
-10.227 -10.226 -10.226 -10.226 -10.225 -10.223 -10.223 -10.222
-10.221 -10.213 -10.212 -10.204 -10.203 -10.201 -10.199 -10.198
-10.187 -10.183 -10.182 -10.182 -10.179 -10.178 -10.177 -10.175
-10.174 -10.170 -10.169 -10.167  -8.046  -8.045  -7.988  -7.988
 -7.981  -7.978  -7.975  -7.968  -6.011  -6.010  -6.005  -6.004
 -6.004  -6.003  -5.952  -5.952  -5.949  -5.948  -5.945  -5.945
 -5.945  -5.943  -5.941  -5.940  -5.939  -5.938  -5.936  -5.935
 -5.932  -5.931  -5.928  -5.924  -1.038  -1.025  -0.982  -0.969
 -0.962  -0.957  -0.934  -0.925  -0.923  -0.914  -0.897  -0.892
 -0.848  -0.840  -0.830  -0.827  -0.811  -0.810  -0.810  -0.806
 -0.803  -0.801  -0.796  -0.795  -0.783  -0.783  -0.769  -0.768
 -0.752  -0.750  -0.742  -0.742  -0.721  -0.720  -0.708  -0.707
 -0.694  -0.692  -0.678  -0.675  -0.658  -0.655  -0.644  -0.642
 -0.638  -0.637  -0.625  -0.623  -0.612  -0.612  -0.605  -0.601
 -0.598  -0.595  -0.588  -0.586  -0.582  -0.575  -0.561  -0.550
 -0.549  -0.542  -0.541  -0.540  -0.526  -0.522  -0.520  -0.518
 -0.505  -0.504  -0.500  -0.495  -0.482  -0.481  -0.476  -0.475
 -0.471  -0.470  -0.466  -0.466  -0.463  -0.460  -0.452  -0.450
 -0.449  -0.448  -0.443  -0.440  -0.440  -0.437  -0.435  -0.435
 -0.430  -0.429  -0.422  -0.418  -0.416  -0.414  -0.413  -0.411
 -0.411  -0.409  -0.403  -0.401  -0.400  -0.398  -0.397  -0.397
 -0.395  -0.394  -0.392  -0.391  -0.389  -0.385  -0.383  -0.381
 -0.377  -0.375  -0.373  -0.370  -0.365  -0.362  -0.358  -0.357
 -0.350  -0.350  -0.347  -0.346  -0.345  -0.344  -0.341  -0.339
 -0.337  -0.335  -0.333  -0.333  -0.332  -0.325  -0.321  -0.315
 -0.311  -0.308  -0.306  -0.306  -0.304  -0.301  -0.300  -0.298
 -0.295  -0.295  -0.293  -0.287  -0.286  -0.285  -0.281  -0.280
 -0.279  -0.273  -0.268  -0.265  -0.260  -0.255  -0.251  -0.251
 -0.244  -0.243  -0.232  -0.230  -0.195  -0.193

          Ground-State Mulliken Net Atomic Charges

     Atom                 Charge (a.u.)
  ----------------------------------------
      1 C                     0.275291
      2 C                    -0.126476
      3 N                    -0.481136
      4 C                    -0.085854
      5 C                     0.076731
      6 C                     0.043197
      7 C                     0.027516
      8 C                     0.057288
      9 C                     0.245728
     10 N                    -0.530937
     11 N                    -0.559313
     12 C                     0.172752
     13 C                     0.310110
     14 S                     0.618707
     15 N                    -0.549885
     16 C                    -0.233929
     17 S                     0.359838
     18 C                    -0.128065
     19 C                    -0.220848
     20 S                     0.303481
     21 C                     0.190326
     22 C                     0.049165
     23 C                    -0.307461
     24 C                    -0.105317
     25 N                    -0.418383
     26 S                     0.269235
     27 C                     0.109036
     28 C                    -0.311779
     29 C                    -0.234580
     30 H                     0.081516
     31 H                     0.106110
     32 H                     0.116849
     33 H                     0.112772
     34 H                     0.126438
     35 H                     0.116603
     36 H                     0.115117
     37 H                     0.138501
     38 H                     0.126149
     39 C                    -0.163585
     40 H                     0.092874
     41 H                     0.131893
     42 H                     0.101085
     43 C                    -0.191361
     44 H                     0.088441
     45 C                    -0.184077
     46 H                     0.087787
     47 H                     0.082294
     48 H                     0.085882
     49 C                    -0.173981
     50 H                     0.094592
     51 C                    -0.306168
     52 H                     0.089803
     53 H                     0.096356
     54 H                     0.108009
     55 H                     0.100971
     56 C                     0.264122
     57 C                    -0.119605
     58 N                    -0.469551
     59 C                    -0.090301
     60 C                     0.079029
     61 C                     0.035047
     62 C                     0.049980
     63 C                     0.043323
     64 C                     0.212553
     65 N                    -0.530779
     66 N                    -0.541569
     67 C                     0.221448
     68 C                     0.315046
     69 S                     0.613228
     70 N                    -0.572953
     71 C                    -0.226094
     72 S                     0.351150
     73 C                    -0.114437
     74 C                    -0.182052
     75 S                     0.278250
     76 C                     0.177919
     77 C                     0.031169
     78 C                    -0.314411
     79 C                    -0.123620
     80 N                    -0.436563
     81 S                     0.274836
     82 C                     0.127158
     83 C                    -0.298039
     84 C                    -0.221207
     85 H                     0.096537
     86 H                     0.102038
     87 H                     0.116427
     88 H                     0.120039
     89 H                     0.136688
     90 H                     0.108471
     91 H                     0.107528
     92 H                     0.140173
     93 H                     0.080947
     94 C                    -0.183267
     95 H                     0.121449
     96 H                     0.087820
     97 H                     0.114024
     98 C                    -0.183576
     99 H                     0.088722
    100 C                    -0.169211
    101 H                     0.095509
    102 H                     0.094543
    103 H                     0.093918
    104 C                    -0.172165
    105 H                     0.098619
    106 C                    -0.323820
    107 H                     0.095282
    108 H                     0.095167
    109 H                     0.103466
    110 H                     0.106287
  ----------------------------------------
  Sum of atomic charges =     0.000000

                    Cartesian Multipole Moments
 -----------------------------------------------------------------
    Charge (ESU x 10^10)
                 0.0000
    Dipole Moment (Debye)
         X       0.8011      Y       2.7576      Z      -0.2394
       Tot       2.8816
    Quadrupole Moments (Debye-Ang)
        XX    -390.1157     XY      -1.8132     YY    -420.1795
        XZ      16.8722     YZ       5.2971     ZZ    -433.4424

 Total job time:  81.30s(wall), 872.16s(cpu)
        *  Thank you very much for using Q-Chem.  Have a nice day.  *
