 Q-Chem 4.4, Q-Chem, Inc., Pleasanton, CA (2016)
 Q-Chem 4.4.2 for Intel X86 Linux

User input:
--------------------------------------------------------------
$comment
SP
$end

$rem
MEM_STATIC 5000
MEM_TOTAL 20000
JOBTYPE SP
EXCHANGE B3LYP
BASIS 6-31g(d,p)
$end

$molecule
0 1
C         -26.085000     20.023000     -5.619000
C         -24.721000     19.739000     -5.707000
N         -26.958000     19.027000     -5.521000
C         -24.311000     18.428000     -5.558000
C         -26.554000     17.705000     -5.472000
C         -25.216000     17.323000     -5.414000
C         -24.747000     15.953000     -5.408000
C         -23.823000     15.565000     -4.452000
C         -25.426000     14.877000     -6.123000
N         -23.518000     14.257000     -4.288000
N         -26.502000     15.059000     -6.927000
C         -25.117000     13.503000     -5.838000
C         -24.142000     13.227000     -4.917000
S         -26.985000     13.532000     -7.317000
N         -25.902000     12.648000     -6.491000
C         -23.629000     11.882000     -4.497000
S         -22.909000     11.591000     -2.903000
C         -23.490000     10.750000     -5.225000
C         -22.634000      9.865000     -3.268000
S         -23.711000     10.554000     -6.926000
C         -22.992000      9.631000     -4.531000
C         -22.143000      8.880000     -2.297000
C         -23.183000      8.899000     -6.834000
C         -22.781000      8.576000     -5.511000
N         -22.123000      7.558000     -2.593000
S         -21.401000      9.460000     -0.755000
C         -21.545000      6.917000     -1.519000
C         -21.078000      7.705000     -0.424000
C         -26.744000     21.440000     -5.631000
H         -24.030000     20.559000     -5.879000
H         -23.269000     18.181000     -5.376000
H         -27.373000     17.005000     -5.314000
H         -23.242000     16.241000     -3.827000
H         -23.248000      8.311000     -7.740000
H         -22.214000      7.714000     -5.179000
H         -21.458000      5.839000     -1.547000
H         -20.618000      7.336000      0.484000
H         -26.038000     22.067000     -6.190000
C         -27.029000     22.086000     -4.255000
H         -27.649000     21.296000     -6.234000
H         -26.191000     21.939000     -3.562000
H         -27.881000     21.528000     -3.849000
C         -27.409000     23.598000     -4.429000
H         -26.638000     24.085000     -5.040000
C         -27.922000     24.194000     -3.075000
H         -28.223000     23.596000     -5.165000
H         -28.273000     23.382000     -2.425000
H         -28.815000     24.813000     -3.225000
C         -26.871000     25.002000     -2.205000
H         -25.954000     24.401000     -2.171000
C         -27.373000     25.369000     -0.796000
H         -26.536000     25.909000     -2.723000
H         -28.402000     25.750000     -0.796000
H         -26.765000     26.136000     -0.300000
H         -27.305000     24.531000     -0.092000
C         -23.767000     18.935000     -9.326000
C         -22.652000     19.517000     -8.663000
N         -24.109000     17.644000     -9.108000
C         -21.897000     18.729000     -7.765000
C         -23.315000     16.839000     -8.260000
C         -22.241000     17.406000     -7.511000
C         -21.550000     16.560000     -6.504000
C         -21.454000     15.179000     -6.783000
C         -20.884000     17.036000     -5.373000
N         -20.966000     14.282000     -5.920000
N         -20.792000     18.341000     -4.926000
C         -20.212000     16.104000     -4.565000
C         -20.362000     14.695000     -4.789000
S         -19.850000     18.259000     -3.592000
N         -19.654000     16.662000     -3.417000
C         -19.949000     13.504000     -3.904000
S         -19.711000     11.882000     -4.565000
C         -19.790000     13.514000     -2.579000
C         -19.225000     11.306000     -2.973000
S         -20.341000     14.633000     -1.343000
C         -19.347000     12.267000     -2.102000
C         -18.765000      9.994000     -2.750000
C         -19.863000     13.440000     -0.081000
C         -19.407000     12.276000     -0.648000
N         -19.174000      9.109000     -3.614000
S         -17.552000      9.532000     -1.574000
C         -18.579000      7.898000     -3.295000
C         -17.778000      7.831000     -2.165000
C         -24.758000     19.731000    -10.123000
H         -22.411000     20.552000     -8.889000
H         -21.029000     19.191000     -7.304000
H         -23.659000     15.834000     -8.022000
H         -21.956000     14.802000     -7.672000
H         -19.973000     13.685000      0.968000
H         -19.081000     11.413000     -0.080000
H         -18.903000      7.014000     -3.828000
H         -17.287000      6.966000     -1.740000
H         -24.280000     20.712000    -10.238000
C         -26.132000     20.064000     -9.460000
H         -24.922000     19.311000    -11.123000
H         -26.006000     20.391000     -8.420000
H         -26.818000     19.219000     -9.323000
C         -26.925000     21.210000    -10.198000
H         -26.340000     22.116000    -10.403000
C         -28.276000     21.480000     -9.533000
H         -27.057000     20.807000    -11.210000
H         -28.211000     21.947000     -8.542000
H         -28.706000     20.500000     -9.291000
C         -29.382000     22.216000    -10.291000
H         -29.074000     23.210000    -10.638000
C         -30.736000     22.384000     -9.501000
H         -29.569000     21.573000    -11.161000
H         -30.609000     23.022000     -8.617000
H         -31.168000     21.422000     -9.197000
H         -31.429000     22.866000    -10.202000
$end

--------------------------------------------------------------

             Standard Nuclear Orientation (Angstroms)
    I     Atom           X                Y                Z
 ----------------------------------------------------------------
    1      C      -5.7295976286     0.5552522065     0.7887690042
    2      C      -4.8876801929     0.9935881502    -0.2349168030
    3      N      -5.2686146754    -0.2944771981     1.6993752067
    4      C      -3.5559023264     0.6279888310    -0.1933613928
    5      C      -3.9593313911    -0.7404070328     1.6843797368
    6      C      -3.0049469950    -0.2592767060     0.7915213868
    7      C      -1.6378722492    -0.7297505069     0.7099245604
    8      C      -0.6094420890     0.1978278186     0.6962916703
    9      C      -1.2556849784    -2.1127740670     0.9767966686
   10      N       0.6757262586    -0.2051960222     0.8255166758
   11      N      -2.1374574187    -3.1078667906     1.2405841493
   12      C       0.1217135244    -2.4604880517     1.1923200999
   13      C       1.0696046880    -1.4769396726     1.0965238169
   14      S      -1.1925171429    -4.3938301806     1.6535054917
   15      N       0.2876057560    -3.7367210628     1.5349103346
   16      C       2.5558719238    -1.6162187045     1.2386683040
   17      S       3.5935608233    -0.2772469939     1.7623795852
   18      C       3.3586033817    -2.6496202415     0.8945281148
   19      C       5.0623001798    -1.2874346594     1.6611294846
   20      S       2.9285595628    -4.0769021772     0.0235593496
   21      C       4.7277391033    -2.4840493292     1.1771137635
   22      C       6.3960217067    -0.8578692014     2.0979445552
   23      C       4.5867730406    -4.6025850034     0.0074774242
   24      C       5.4261461745    -3.6253459943     0.6047367156
   25      N       7.4282811802    -1.7337152940     2.1530263244
   26      S       6.6983155611     0.8972267981     2.4028780864
   27      C       8.5434512840    -1.0138948671     2.5227494539
   28      C       8.4150265492     0.3953955637     2.7110724981
   29      C      -7.2254740489     0.9553260195     0.9999766726
   30      H      -5.3064367951     1.6143771057    -1.0215100783
   31      H      -2.8153829558     1.1267381016    -0.8120513206
   32      H      -3.7043156338    -1.3708443606     2.5348153541
   33      H      -0.7274224642     1.2662443175     0.5238712075
   34      H       4.7876238699    -5.5838435334    -0.4019070427
   35      H       6.5067641210    -3.5566050674     0.5568145014
   36      H       9.4795723679    -1.5412074412     2.6494608010
   37      H       9.1995823340     1.0783515063     3.0115195004
   38      H      -7.5874915487     1.2068137543    -0.0048831430
   39      C      -7.5003470333     2.1382036953     1.9576625536
   40      H      -7.6967614666     0.0198939084     1.3258983434
   41      H      -6.7898543135     2.9585687428     1.7954796819
   42      H      -7.3078448021     1.7426664956     2.9619519614
   43      C      -8.9940982678     2.6022907712     1.8387069506
   44      H      -9.2237716430     2.7759627159     0.7794528751
   45      C      -9.3385828675     3.6359214113     2.9632686698
   46      H      -9.5810062904     1.6865817091     1.9846928632
   47      H      -8.6313025120     3.5238945634     3.7952839845
   48      H     -10.3130922436     3.4199942887     3.4180399899
   49      C      -9.2795255073     5.1702463820     2.5673847063
   50      H      -8.3426257827     5.3233026709     2.0178042495
   51      C      -9.4109548528     6.1321333131     3.7629907697
   52      H     -10.0356440661     5.4179206239     1.8123084221
   53      H     -10.2051670886     5.8385537627     4.4608732613
   54      H      -9.6301482626     7.1668898702     3.4710967536
   55      H      -8.4729506656     6.2441666157     4.3198396576
   56      C      -4.8210864811    -1.5653392772    -3.0811684958
   57      C      -4.6028959826    -0.2644866712    -3.6119164621
   58      N      -3.8330014498    -2.2273525981    -2.4357265278
   59      C      -3.3337463871     0.3378602225    -3.4576098712
   60      C      -2.5460798208    -1.6511273218    -2.3389683160
   61      C      -2.3093234505    -0.3154978229    -2.7816942616
   62      C      -0.9894956779     0.3053924447    -2.4992125342
   63      C       0.1322263448    -0.5522475288    -2.4789300397
   64      C      -0.7540317390     1.6761050290    -2.3767513366
   65      N       1.3594918937    -0.1569805536    -2.1252277769
   66      N      -1.6766503814     2.7049112174    -2.4171328578
   67      C       0.5715426881     2.1011800039    -2.1890395785
   68      C       1.6191920442     1.1523161156    -1.9439984636
   69      S      -0.7871127829     4.0684357087    -2.2649230611
   70      N       0.6933367052     3.4746731605    -1.9907600633
   71      C       3.0648010131     1.3783135482    -1.4629424693
   72      S       4.3435511746     0.1907039648    -1.7437101703
   73      C       3.5133779667     2.4112914303    -0.7468828267
   74      C       5.5117404218     1.2724179487    -0.9902748780
   75      S       2.6785718430     3.6081457345     0.2298958128
   76      C       4.9016666699     2.3296886184    -0.5352641660
   77      C       6.8888465461     0.9831936497    -0.9392746098
   78      C       4.2649925370     4.1349493286     0.9008088882
   79      C       5.2874063728     3.3511672969     0.4268081760
   80      N       7.1922580333    -0.2818972309    -1.0062711269
   81      S       8.1763490297     2.1681797369    -1.0163091991
   82      C       8.5747271222    -0.3867802027    -1.0155329005
   83      C       9.3275789025     0.7709274197    -0.8893692842
   84      C      -6.1765701293    -2.2027891908    -2.9961526904
   85      H      -5.4251867845     0.2137051144    -4.1368473655
   86      H      -3.1873387683     1.3154495031    -3.9073575866
   87      H      -1.7929888116    -2.1542178684    -1.7350156409
   88      H      -0.0405493390    -1.6209366379    -2.5907609443
   89      H       4.3124827344     4.9616353705     1.5985630492
   90      H       6.3260174124     3.4749136460     0.7090190006
   91      H       9.0123422326    -1.3731361836    -0.9373287179
   92      H      10.4025798028     0.8690040822    -0.8209219859
   93      H      -6.8121076292    -1.5600089146    -3.6182423967
   94      C      -6.8977203319    -2.2075517941    -1.6111423284
   95      H      -6.1895008317    -3.2130558860    -3.4233411753
   96      H      -6.8127410223    -1.2338373814    -1.1120794472
   97      H      -6.4658235782    -2.8638526795    -0.8455547488
   98      C      -8.4383223476    -2.5307507228    -1.7054656112
   99      H      -8.9876571111    -1.9401453786    -2.4501149548
  100      C      -9.0954469373    -2.5552300736    -0.3241929969
  101      H      -8.4542232980    -3.5258392435    -2.1675510966
  102      H      -9.1702083307    -1.5744168593     0.1624394852
  103      H      -8.4018364400    -3.0834620942     0.3419446844
  104      C     -10.4423678409    -3.2496357226    -0.1165854968
  105      H     -11.2343980841    -2.8475559109    -0.7602693624
  106      C     -10.9791408698    -3.2375587690     1.3657669791
  107      H     -10.2412453120    -4.2907788482    -0.4009949207
  108      H     -11.1996945930    -2.2173139731     1.7050096822
  109      H     -10.2835987766    -3.7130078222     2.0690829780
  110      H     -11.9060186062    -3.8245757374     1.3489520894
 ----------------------------------------------------------------

   10   -5663.4840644953      9.85E-06 Convergence criterion met
 Total energy in the final basis set = -5663.4840644953

                    Orbital Energies (a.u.)
 --------------------------------------------------------------

 Alpha MOs
 -- Occupied --
-88.999 -88.986 -88.925 -88.922 -88.916 -88.913 -88.905 -88.897
-14.396 -14.392 -14.384 -14.382 -14.349 -14.345 -14.342 -14.339
-14.332 -14.316 -10.271 -10.270 -10.266 -10.265 -10.262 -10.260
-10.259 -10.253 -10.240 -10.237 -10.235 -10.234 -10.233 -10.232
-10.231 -10.231 -10.230 -10.230 -10.230 -10.227 -10.226 -10.224
-10.223 -10.223 -10.222 -10.221 -10.218 -10.217 -10.217 -10.210
-10.205 -10.204 -10.203 -10.202 -10.200 -10.197 -10.194 -10.191
-10.187 -10.184 -10.183 -10.183 -10.182 -10.182 -10.179 -10.179
-10.177 -10.174 -10.173 -10.172  -8.054  -8.042  -7.985  -7.981
 -7.974  -7.972  -7.965  -7.959  -6.019  -6.014  -6.013  -6.007
 -6.001  -6.000  -5.949  -5.946  -5.945  -5.942  -5.942  -5.938
 -5.938  -5.936  -5.935  -5.932  -5.930  -5.930  -5.928  -5.926
 -5.924  -5.921  -5.920  -5.915  -1.039  -1.036  -0.970  -0.961
 -0.950  -0.947  -0.926  -0.922  -0.916  -0.909  -0.904  -0.903
 -0.842  -0.837  -0.836  -0.827  -0.811  -0.806  -0.800  -0.797
 -0.795  -0.795  -0.787  -0.785  -0.780  -0.773  -0.768  -0.762
 -0.745  -0.744  -0.738  -0.731  -0.723  -0.714  -0.708  -0.705
 -0.692  -0.686  -0.676  -0.670  -0.656  -0.652  -0.648  -0.644
 -0.634  -0.629  -0.626  -0.621  -0.612  -0.607  -0.599  -0.593
 -0.593  -0.585  -0.580  -0.579  -0.574  -0.573  -0.572  -0.567
 -0.548  -0.544  -0.537  -0.536  -0.521  -0.521  -0.516  -0.506
 -0.505  -0.501  -0.499  -0.493  -0.485  -0.479  -0.476  -0.473
 -0.471  -0.468  -0.465  -0.463  -0.461  -0.452  -0.450  -0.446
 -0.445  -0.442  -0.441  -0.436  -0.435  -0.435  -0.429  -0.428
 -0.425  -0.419  -0.418  -0.417  -0.415  -0.414  -0.411  -0.409
 -0.407  -0.405  -0.402  -0.400  -0.399  -0.398  -0.395  -0.394
 -0.390  -0.387  -0.386  -0.384  -0.384  -0.382  -0.379  -0.373
 -0.370  -0.369  -0.367  -0.367  -0.363  -0.361  -0.359  -0.357
 -0.353  -0.350  -0.349  -0.343  -0.340  -0.339  -0.338  -0.336
 -0.335  -0.334  -0.330  -0.329  -0.326  -0.323  -0.320  -0.319
 -0.318  -0.314  -0.311  -0.307  -0.306  -0.305  -0.301  -0.300
 -0.296  -0.291  -0.290  -0.289  -0.286  -0.284  -0.277  -0.275
 -0.272  -0.267  -0.264  -0.259  -0.252  -0.248  -0.242  -0.240
 -0.239  -0.235  -0.231  -0.225  -0.197  -0.184

          Ground-State Mulliken Net Atomic Charges

     Atom                 Charge (a.u.)
  ----------------------------------------
      1 C                     0.257074
      2 C                    -0.116226
      3 N                    -0.492590
      4 C                    -0.065605
      5 C                     0.079440
      6 C                     0.047838
      7 C                     0.021662
      8 C                     0.061714
      9 C                     0.204345
     10 N                    -0.511199
     11 N                    -0.535694
     12 C                     0.223121
     13 C                     0.288028
     14 S                     0.607732
     15 N                    -0.553990
     16 C                    -0.203973
     17 S                     0.306864
     18 C                    -0.116996
     19 C                    -0.247935
     20 S                     0.272682
     21 C                     0.192958
     22 C                     0.077599
     23 C                    -0.305015
     24 C                    -0.067580
     25 N                    -0.439159
     26 S                     0.256327
     27 C                     0.123955
     28 C                    -0.310343
     29 C                    -0.221649
     30 H                     0.085619
     31 H                     0.100479
     32 H                     0.104596
     33 H                     0.117891
     34 H                     0.136780
     35 H                     0.117516
     36 H                     0.105982
     37 H                     0.126155
     38 H                     0.084335
     39 C                    -0.177612
     40 H                     0.129914
     41 H                     0.095578
     42 H                     0.115046
     43 C                    -0.184140
     44 H                     0.092771
     45 C                    -0.182236
     46 H                     0.096055
     47 H                     0.100351
     48 H                     0.091773
     49 C                    -0.174151
     50 H                     0.093169
     51 C                    -0.325120
     52 H                     0.094188
     53 H                     0.104815
     54 H                     0.100183
     55 H                     0.104750
     56 C                     0.275586
     57 C                    -0.119939
     58 N                    -0.487872
     59 C                    -0.072508
     60 C                     0.060749
     61 C                     0.029782
     62 C                     0.034727
     63 C                     0.061844
     64 C                     0.234124
     65 N                    -0.488455
     66 N                    -0.574702
     67 C                     0.162366
     68 C                     0.290067
     69 S                     0.626762
     70 N                    -0.519759
     71 C                    -0.221109
     72 S                     0.347535
     73 C                    -0.100632
     74 C                    -0.215276
     75 S                     0.263162
     76 C                     0.144670
     77 C                     0.062545
     78 C                    -0.303725
     79 C                    -0.062568
     80 N                    -0.423707
     81 S                     0.243055
     82 C                     0.123536
     83 C                    -0.293795
     84 C                    -0.217694
     85 H                     0.090737
     86 H                     0.113733
     87 H                     0.106245
     88 H                     0.117867
     89 H                     0.133496
     90 H                     0.104467
     91 H                     0.111833
     92 H                     0.131819
     93 H                     0.088360
     94 C                    -0.182398
     95 H                     0.117460
     96 H                     0.101608
     97 H                     0.119804
     98 C                    -0.181858
     99 H                     0.085750
    100 C                    -0.175196
    101 H                     0.090933
    102 H                     0.090198
    103 H                     0.096277
    104 C                    -0.181326
    105 H                     0.089558
    106 C                    -0.322298
    107 H                     0.092824
    108 H                     0.103516
    109 H                     0.106915
    110 H                     0.102838
  ----------------------------------------
  Sum of atomic charges =     0.000000

                    Cartesian Multipole Moments
 -----------------------------------------------------------------
    Charge (ESU x 10^10)
                 0.0000
    Dipole Moment (Debye)
         X       1.6410      Y       3.5812      Z      -1.3582
       Tot       4.1668
    Quadrupole Moments (Debye-Ang)
        XX    -395.8432     XY       1.8539     YY    -427.4516
        XZ      14.9601     YZ       2.4452     ZZ    -447.9933

 Total job time:  133.06s(wall), 1433.60s(cpu)
        *  Thank you very much for using Q-Chem.  Have a nice day.  *
