 Q-Chem 4.4, Q-Chem, Inc., Pleasanton, CA (2016)
 Q-Chem 4.4.2 for Intel X86 Linux

User input:
--------------------------------------------------------------
$comment
SP
$end

$rem
MEM_STATIC 5000
MEM_TOTAL 20000
JOBTYPE SP
EXCHANGE B3LYP
BASIS 6-31g(d,p)
$end

$molecule
0 1
C          27.431000     30.342000      1.328000
C          26.153000     30.439000      1.857000
N          27.708000     29.654000      0.215000
C          25.130000     29.794000      1.136000
C          26.771000     29.023000     -0.428000
C          25.419000     29.025000     -0.009000
C          24.352000     28.249000     -0.714000
C          24.734000     27.131000     -1.427000
C          22.906000     28.564000     -0.816000
N          23.971000     26.368000     -2.201000
N          22.200000     29.444000     -0.080000
C          22.110000     27.754000     -1.613000
C          22.676000     26.679000     -2.398000
S          20.703000     29.213000     -0.460000
N          20.770000     27.944000     -1.435000
C          21.964000     25.787000     -3.343000
S          20.225000     25.552000     -3.656000
C          22.605000     24.793000     -4.042000
C          20.425000     24.188000     -4.665000
S          24.319000     24.527000     -4.364000
C          21.785000     23.936000     -4.826000
C          19.410000     23.690000     -5.485000
C          23.879000     23.138000     -5.363000
C          22.543000     23.000000     -5.565000
N          18.503000     24.606000     -5.867000
S          19.402000     22.112000     -6.130000
C          17.712000     24.012000     -6.811000
C          18.141000     22.760000     -7.166000
C          28.506000     31.039000      2.159000
H          26.000000     30.963000      2.796000
H          24.143000     29.905000      1.576000
H          27.119000     28.461000     -1.294000
H          25.760000     26.789000     -1.297000
H          24.602000     22.530000     -5.891000
H          22.122000     22.193000     -6.154000
H          16.953000     24.566000     -7.347000
H          17.778000     22.144000     -7.979000
H          29.022000     31.696000      1.447000
C          29.665000     30.136000      2.777000
H          28.227000     31.729000      2.965000
H          30.240000     29.655000      1.975000
H          29.223000     29.305000      3.339000
C          30.632000     30.994000      3.684000
H          31.295000     31.662000      3.120000
C          31.573000     30.159000      4.501000
H          30.149000     31.576000      4.479000
H          32.272000     29.546000      3.919000
H          31.061000     29.547000      5.254000
C          32.539000     30.916000      5.449000
H          33.479000     30.361000      5.553000
C          31.970000     31.046000      6.913000
H          32.745000     31.896000      5.000000
H          32.671000     31.668000      7.484000
H          31.873000     30.042000      7.343000
H          30.990000     31.540000      6.921000
C          31.657000     24.318000      7.783000
C          30.511000     23.683000      7.211000
N          31.615000     25.557000      8.342000
C          29.274000     24.309000      7.468000
C          30.436000     26.185000      8.466000
C          29.221000     25.657000      8.004000
C          27.892000     26.430000      7.888000
C          26.667000     25.817000      8.183000
C          27.824000     27.738000      7.374000
N          25.444000     26.477000      8.048000
N          28.968000     28.515000      7.234000
C          26.612000     28.408000      7.269000
C          25.394000     27.726000      7.581000
S          28.423000     30.023000      6.915000
N          26.730000     29.706000      6.982000
C          24.053000     28.277000      7.368000
S          22.698000     27.751000      8.325000
C          23.659000     29.030000      6.302000
C          21.574000     28.718000      7.254000
S          24.591000     29.561000      4.943000
C          22.305000     29.261000      6.215000
C          20.183000     28.816000      7.397000
C          23.073000     30.230000      4.241000
C          21.949000     30.002000      5.031000
N          19.588000     29.732000      6.704000
S          19.181000     27.878000      8.455000
C          18.222000     29.666000      6.911000
C          17.827000     28.847000      7.948000
C          32.941000     23.639000      7.882000
H          30.555000     22.694000      6.764000
H          28.401000     23.770000      7.113000
H          30.468000     27.180000      8.906000
H          26.591000     24.807000      8.584000
H          23.098000     30.832000      3.342000
H          20.968000     30.396000      4.792000
H          17.543000     30.389000      6.479000
H          16.825000     28.709000      8.330000
H          33.081000     22.978000      7.018000
C          33.095000     22.788000      9.194000
H          33.759000     24.348000      8.064000
H          32.928000     23.454000     10.050000
H          34.147000     22.500000      9.311000
C          32.263000     21.491000      9.407000
H          31.287000     21.621000      8.924000
C          31.925000     21.165000     10.852000
H          32.749000     20.634000      8.925000
H          31.324000     20.249000     10.909000
H          31.269000     21.913000     11.315000
C          33.152000     20.926000     11.784000
H          33.843000     20.189000     11.357000
C          32.597000     20.571000     13.154000
H          33.749000     21.844000     11.852000
H          33.500000     20.386000     13.748000
H          31.957000     19.680000     13.175000
H          32.041000     21.342000     13.702000
$end

--------------------------------------------------------------

             Standard Nuclear Orientation (Angstroms)
    I     Atom           X                Y                Z
 ----------------------------------------------------------------
    1      C      -0.0474211176     0.6025052324    -4.4205440929
    2      C       0.2722581621    -0.5852092751    -3.7804867464
    3      N       0.7184281960     1.6967234701    -4.3498102460
    4      C       1.4837126852    -0.5995294519    -3.0631528834
    5      C       1.8157178274     1.6972644453    -3.6530074244
    6      C       2.2718343843     0.5622800636    -2.9408015976
    7      C       3.5018445328     0.5812786765    -2.0896822831
    8      C       3.9012692236     1.7925622624    -1.5629290288
    9      C       4.4206904702    -0.5420496048    -1.7824352885
   10      N       5.0077748925     2.0474802310    -0.8743972328
   11      N       4.2033384209    -1.8587323745    -1.9658380437
   12      C       5.5671902646    -0.2734511011    -1.0487336699
   13      C       5.9147829441     1.0758358761    -0.6603910604
   14      S       5.4001679130    -2.5881200311    -1.2770980251
   15      N       6.2028870238    -1.3882029651    -0.5833285647
   16      C       7.1349897664     1.5173945653     0.0549789383
   17      S       8.4201101114     0.5910187927     0.8720521460
   18      C       7.3655467393     2.8336516296     0.3740852261
   19      C       9.1761944666     1.9507929582     1.5776920448
   20      S       6.6296072927     4.3167847944    -0.2349674369
   21      C       8.5176671247     3.1050794519     1.1617720641
   22      C      10.4566211164     1.9089104873     2.1339136312
   23      C       7.7548747293     5.2427577565     0.7636662645
   24      C       8.7092792032     4.4896497462     1.3692109986
   25      N      11.2590722548     0.9639094103     1.6136501068
   26      S      11.0500802726     3.0686990823     3.2333997134
   27      C      12.5121260086     1.1880619076     2.1129145137
   28      C      12.6004535361     2.3350157305     2.8574043899
   29      C      -1.3805371499     0.5722960144    -5.1647779590
   30      H      -0.4188743699    -1.4218105748    -3.8267478366
   31      H       1.7036433734    -1.5513741540    -2.5880611497
   32      H       2.3348852991     2.6548102580    -3.6312094244
   33      H       3.2078353026     2.6268091119    -1.6615271589
   34      H       7.7825310344     6.3244059859     0.7848614690
   35      H       9.4671895184     4.9173299102     2.0157963615
   36      H      13.3675215303     0.6156210576     1.7798935310
   37      H      13.4970429473     2.8050479153     3.2413199703
   38      H      -1.1368140258     0.9091329368    -6.1806465167
   39      C      -2.5223281313     1.5725750755    -4.6785998489
   40      H      -1.8972801429    -0.3787718660    -5.3437292545
   41      H      -2.1917682157     2.6126612524    -4.7975153099
   42      H      -2.6809046816     1.4528330422    -3.6005069387
   43      C      -3.8602656221     1.3439350087    -5.4857856953
   44      H      -3.8229852832     1.7062551899    -6.5207848560
   45      C      -5.0375999283     2.0620022033    -4.8954820146
   46      H      -4.2435795345     0.3157992805    -5.4925213490
   47      H      -4.9519970135     3.1553876362    -4.8789159009
   48      H      -5.3187269940     1.6839771806    -3.9046431503
   49      C      -6.4037405009     1.8682265908    -5.6033096404
   50      H      -7.0164838142     2.7713210135    -5.4965056345
   51      C      -7.2575837908     0.7094292690    -4.9613615090
   52      H      -6.2041240634     1.6899877434    -6.6676503712
   53      H      -8.1576007794     0.5847067068    -5.5767798242
   54      H      -7.5048911062     0.9851435887    -3.9293025448
   55      H      -6.7091939581    -0.2412381436    -4.9611120695
   56      C      -7.4878905650     3.7442955357     1.1096679368
   57      C      -6.3249388401     3.5687763377     1.9223556363
   58      N      -7.9679434071     2.7753343794     0.2850288968
   59      C      -5.8323067825     2.2503504995     2.0069781218
   60      C      -7.4020424162     1.5590240068     0.2971179753
   61      C      -6.2919877897     1.2253298623     1.0876114567
   62      C      -5.4502472347    -0.0598562506     0.9572446920
   63      C      -4.9422276514    -0.7132532058     2.0879115403
   64      C      -5.0511307881    -0.5754094312    -0.2895892905
   65      N      -4.1425974130    -1.8545698799     2.0010683995
   66      N      -5.6437928329    -0.1408748516    -1.4694182611
   67      C      -4.2826313443    -1.7287938741    -0.3789309481
   68      C      -3.7895007663    -2.3478358202     0.8125392790
   69      S      -5.1304104397    -1.1877732277    -2.6154079244
   70      N      -4.1758028901    -2.2179249196    -1.6160386644
   71      C      -2.8528216481    -3.4744107128     0.8392271227
   72      S      -2.8069307952    -4.5791195602     2.1831253301
   73      C      -1.7923349383    -3.6513631992     0.0009808845
   74      C      -1.3224918873    -5.3751672802     1.4702051689
   75      S      -1.2650381681    -2.6512709372    -1.3102168823
   76      C      -0.9360815950    -4.6724263920     0.3452281335
   77      C      -0.6245961839    -6.4584898827     2.0218279802
   78      C       0.1656689983    -3.7325816643    -1.4791343628
   79      C       0.1979123554    -4.7605877232    -0.5401860634
   80      N       0.2457105392    -7.0401677648     1.2618628170
   81      S      -0.8501218824    -7.1425722725     3.5980200507
   82      C       0.8842414625    -8.0472426817     1.9627475234
   83      C       0.3137849208    -8.3663233909     3.1772111232
   84      C      -8.2934780994     4.9552280634     1.1742367974
   85      H      -5.9472655781     4.3498457153     2.5759300654
   86      H      -5.0092488998     2.1084455530     2.7006017286
   87      H      -7.8189904259     0.8305748282    -0.3958215252
   88      H      -5.1781930797    -0.4059902071     3.1060405922
   89      H       0.8514309183    -3.6167030365    -2.3083102987
   90      H       0.9507231682    -5.5403248688    -0.5421517284
   91      H       1.6013463290    -8.7057176138     1.4909791754
   92      H       0.6000685964    -9.1654271500     3.8468728582
   93      H      -7.6494186963     5.8218715232     1.3669375993
   94      C      -9.4074269014     4.9028605942     2.2813215794
   95      H      -8.9517366757     5.0485707149     0.3007885757
   96      H     -10.0293672847     4.0186136374     2.0929642616
   97      H     -10.1079572328     5.7318493091     2.1220357819
   98      C      -9.0348292918     4.9326916294     3.7913159935
   99      H      -8.0765139985     4.4159254348     3.9230334894
  100      C      -9.9895462943     4.1910194899     4.7116327230
  101      H      -8.8943478686     5.9641971823     4.1366133497
  102      H      -9.6430426007     4.2471341331     5.7510038488
  103      H     -10.0100778465     3.1103024039     4.5223233583
  104      C     -11.4534577050     4.7277778556     4.7229392779
  105      H     -11.4830541734     5.8096367524     4.9009403354
  106      C     -12.2187887865     3.8873809080     5.7323704574
  107      H     -11.8986799130     4.6085146054     3.7272935263
  108      H     -13.2215097526     4.3309555722     5.7161784397
  109      H     -11.8213499125     3.9199816003     6.7545747111
  110      H     -12.3677554828     2.8229866879     5.5115654130
 ----------------------------------------------------------------

   10   -5663.5145991095      3.21E-06 Convergence criterion met
 Total energy in the final basis set = -5663.5145991095

                    Orbital Energies (a.u.)
 --------------------------------------------------------------

 Alpha MOs
 -- Occupied --
-88.989 -88.988 -88.935 -88.923 -88.923 -88.919 -88.908 -88.907
-14.391 -14.388 -14.385 -14.381 -14.353 -14.345 -14.344 -14.337
-14.328 -14.326 -10.266 -10.264 -10.264 -10.261 -10.260 -10.259
-10.257 -10.255 -10.243 -10.238 -10.237 -10.236 -10.232 -10.232
-10.232 -10.230 -10.229 -10.229 -10.228 -10.228 -10.228 -10.228
-10.227 -10.226 -10.226 -10.226 -10.225 -10.223 -10.219 -10.219
-10.217 -10.208 -10.207 -10.207 -10.205 -10.200 -10.196 -10.194
-10.186 -10.186 -10.185 -10.183 -10.181 -10.178 -10.176 -10.176
-10.174 -10.174 -10.170 -10.167  -8.045  -8.043  -7.997  -7.985
 -7.982  -7.978  -7.969  -7.966  -6.010  -6.008  -6.004  -6.003
 -6.003  -6.001  -5.960  -5.957  -5.954  -5.949  -5.947  -5.945
 -5.943  -5.942  -5.942  -5.939  -5.938  -5.935  -5.933  -5.930
 -5.930  -5.927  -5.924  -5.922  -1.057  -1.025  -0.977  -0.974
 -0.960  -0.953  -0.950  -0.935  -0.914  -0.912  -0.909  -0.898
 -0.846  -0.842  -0.831  -0.830  -0.818  -0.810  -0.807  -0.807
 -0.803  -0.801  -0.798  -0.795  -0.789  -0.787  -0.766  -0.766
 -0.748  -0.747  -0.741  -0.739  -0.726  -0.720  -0.713  -0.711
 -0.695  -0.694  -0.673  -0.673  -0.655  -0.649  -0.648  -0.646
 -0.634  -0.633  -0.628  -0.627  -0.613  -0.611  -0.601  -0.600
 -0.594  -0.592  -0.587  -0.584  -0.580  -0.577  -0.560  -0.559
 -0.552  -0.545  -0.542  -0.541  -0.526  -0.521  -0.521  -0.508
 -0.507  -0.505  -0.501  -0.501  -0.489  -0.483  -0.479  -0.478
 -0.473  -0.472  -0.468  -0.466  -0.464  -0.458  -0.448  -0.448
 -0.444  -0.444  -0.440  -0.439  -0.436  -0.435  -0.434  -0.432
 -0.430  -0.427  -0.425  -0.422  -0.421  -0.420  -0.416  -0.414
 -0.413  -0.412  -0.405  -0.404  -0.401  -0.399  -0.398  -0.396
 -0.394  -0.393  -0.392  -0.390  -0.390  -0.385  -0.384  -0.383
 -0.381  -0.376  -0.372  -0.371  -0.369  -0.362  -0.360  -0.356
 -0.354  -0.353  -0.351  -0.351  -0.348  -0.346  -0.345  -0.341
 -0.339  -0.334  -0.334  -0.333  -0.332  -0.326  -0.320  -0.320
 -0.317  -0.313  -0.309  -0.307  -0.305  -0.305  -0.300  -0.297
 -0.296  -0.295  -0.294  -0.291  -0.288  -0.287  -0.282  -0.281
 -0.277  -0.272  -0.268  -0.265  -0.253  -0.250  -0.250  -0.247
 -0.244  -0.242  -0.234  -0.231  -0.194  -0.194

          Ground-State Mulliken Net Atomic Charges

     Atom                 Charge (a.u.)
  ----------------------------------------
      1 C                     0.282527
      2 C                    -0.113455
      3 N                    -0.485365
      4 C                    -0.083882
      5 C                     0.076910
      6 C                     0.026102
      7 C                     0.059736
      8 C                     0.047420
      9 C                     0.216173
     10 N                    -0.521434
     11 N                    -0.523328
     12 C                     0.151941
     13 C                     0.305984
     14 S                     0.609488
     15 N                    -0.524500
     16 C                    -0.228677
     17 S                     0.353424
     18 C                    -0.118386
     19 C                    -0.232117
     20 S                     0.288168
     21 C                     0.139276
     22 C                     0.056184
     23 C                    -0.311393
     24 C                    -0.066203
     25 N                    -0.419741
     26 S                     0.283743
     27 C                     0.129480
     28 C                    -0.303003
     29 C                    -0.240571
     30 H                     0.100872
     31 H                     0.110868
     32 H                     0.103787
     33 H                     0.110859
     34 H                     0.122409
     35 H                     0.106533
     36 H                     0.118019
     37 H                     0.124018
     38 H                     0.115605
     39 C                    -0.176619
     40 H                     0.101309
     41 H                     0.116059
     42 H                     0.099403
     43 C                    -0.173613
     44 H                     0.097324
     45 C                    -0.186298
     46 H                     0.087026
     47 H                     0.089450
     48 H                     0.099852
     49 C                    -0.187738
     50 H                     0.098101
     51 C                    -0.339347
     52 H                     0.085850
     53 H                     0.103475
     54 H                     0.123064
     55 H                     0.098874
     56 C                     0.293118
     57 C                    -0.110558
     58 N                    -0.485485
     59 C                    -0.083786
     60 C                     0.094858
     61 C                     0.022403
     62 C                     0.018177
     63 C                     0.044572
     64 C                     0.219311
     65 N                    -0.514665
     66 N                    -0.533551
     67 C                     0.234050
     68 C                     0.287638
     69 S                     0.607085
     70 N                    -0.577161
     71 C                    -0.196724
     72 S                     0.307010
     73 C                    -0.113498
     74 C                    -0.239441
     75 S                     0.271948
     76 C                     0.164186
     77 C                     0.071231
     78 C                    -0.317441
     79 C                    -0.042925
     80 N                    -0.437508
     81 S                     0.259171
     82 C                     0.108209
     83 C                    -0.299578
     84 C                    -0.236372
     85 H                     0.099727
     86 H                     0.101255
     87 H                     0.113511
     88 H                     0.119902
     89 H                     0.133516
     90 H                     0.131177
     91 H                     0.110372
     92 H                     0.135054
     93 H                     0.096290
     94 C                    -0.187492
     95 H                     0.124232
     96 H                     0.109513
     97 H                     0.096246
     98 C                    -0.181466
     99 H                     0.084004
    100 C                    -0.172247
    101 H                     0.088692
    102 H                     0.085651
    103 H                     0.093042
    104 C                    -0.173668
    105 H                     0.092546
    106 C                    -0.318691
    107 H                     0.097485
    108 H                     0.094778
    109 H                     0.102456
    110 H                     0.106196
  ----------------------------------------
  Sum of atomic charges =     0.000000

                    Cartesian Multipole Moments
 -----------------------------------------------------------------
    Charge (ESU x 10^10)
                 0.0000
    Dipole Moment (Debye)
         X       2.3745      Y       0.3702      Z       2.7157
       Tot       3.6263
    Quadrupole Moments (Debye-Ang)
        XX    -408.9099     XY       3.5679     YY    -410.2359
        XZ      14.2065     YZ      10.5780     ZZ    -435.6770

 Total job time:  94.15s(wall), 1019.20s(cpu)
        *  Thank you very much for using Q-Chem.  Have a nice day.  *
