 Q-Chem 4.4, Q-Chem, Inc., Pleasanton, CA (2016)
 Q-Chem 4.4.2 for Intel X86 Linux

User input:
--------------------------------------------------------------
$comment
SP
$end

$rem
MEM_STATIC 5000
MEM_TOTAL 20000
JOBTYPE SP
EXCHANGE B3LYP
BASIS 6-31g(d,p)
$end

$molecule
0 1
C           2.931000     -3.502000     -9.682000
C           3.285000     -2.761000     -8.542000
N           2.004000     -3.127000    -10.585000
C           2.655000     -1.571000     -8.293000
C           1.377000     -1.900000    -10.390000
C           1.657000     -1.138000     -9.213000
C           1.031000      0.197000     -9.066000
C           1.656000      1.369000     -8.693000
C          -0.354000      0.466000     -9.342000
N           1.159000      2.566000     -8.507000
N          -1.147000     -0.414000     -9.908000
C          -0.991000      1.721000     -9.202000
C          -0.179000      2.784000     -8.654000
S          -2.626000      0.271000    -10.143000
N          -2.293000      1.743000     -9.492000
C          -0.762000      4.133000     -8.314000
S          -2.421000      4.669000     -8.628000
C          -0.002000      5.204000     -7.890000
C          -2.144000      6.267000     -8.069000
S           1.700000      5.408000     -7.509000
C          -0.792000      6.404000     -7.796000
C          -2.954000      7.444000     -8.299000
C           1.334000      7.048000     -7.089000
C           0.042000      7.437000     -7.323000
N          -3.893000      7.257000     -9.190000
S          -2.778000      9.125000     -7.729000
C          -4.475000      8.485000     -9.580000
C          -4.148000      9.572000     -8.811000
C           3.795000     -4.752000     -9.994000
H           4.169000     -3.038000     -7.975000
H           2.960000     -0.993000     -7.425000
H           0.676000     -1.652000    -11.186000
H           2.745000      1.338000     -8.686000
H           2.129000      7.570000     -6.572000
H          -0.253000      8.461000     -7.122000
H          -5.242000      8.429000    -10.342000
H          -4.568000     10.566000     -8.726000
H           3.837000     -4.746000    -11.090000
C           3.311000     -6.198000     -9.553000
H           4.820000     -4.501000     -9.694000
H           2.231000     -6.233000     -9.741000
H           3.451000     -6.343000     -8.475000
C           4.020000     -7.338000    -10.236000
H           3.891000     -7.199000    -11.316000
C           3.335000     -8.686000     -9.858000
H           5.106000     -7.368000    -10.082000
H           2.250000     -8.534000     -9.918000
H           3.680000     -8.816000     -8.825000
C           3.762000     -9.927000    -10.759000
H           3.649000     -9.622000    -11.807000
C           2.884000    -11.177000    -10.423000
H           4.823000    -10.209000    -10.760000
H           3.284000    -11.518000     -9.460000
H           2.986000    -11.932000    -11.213000
H           1.803000    -10.992000    -10.428000
C           4.268000      6.441000    -10.124000
C           4.393000      5.121000     -9.715000
N           3.369000      6.915000    -10.988000
C           3.446000      4.205000    -10.275000
C           2.498000      6.021000    -11.552000
C           2.479000      4.658000    -11.193000
C           1.565000      3.720000    -11.865000
C           0.211000      4.139000    -12.128000
C           1.897000      2.374000    -12.161000
N          -0.752000      3.277000    -12.612000
N           3.107000      1.804000    -12.128000
C           0.930000      1.514000    -12.673000
C          -0.416000      2.009000    -12.894000
S           2.967000      0.246000    -12.416000
N           1.387000      0.259000    -12.887000
C          -1.367000      1.227000    -13.707000
S          -0.997000     -0.134000    -14.802000
C          -2.712000      1.538000    -13.786000
C          -2.791000     -0.372000    -15.142000
S          -3.677000      2.539000    -12.742000
C          -3.489000      0.647000    -14.534000
C          -3.367000     -1.514000    -15.757000
C          -5.100000      2.007000    -13.634000
C          -4.862000      0.905000    -14.384000
N          -2.676000     -2.628000    -15.762000
S          -4.953000     -1.689000    -16.460000
C          -3.267000     -3.627000    -16.431000
C          -4.512000     -3.346000    -16.866000
C           5.365000      7.353000     -9.552000
H           5.198000      4.874000     -9.030000
H           3.592000      3.172000     -9.973000
H           1.739000      6.513000    -12.157000
H          -0.133000      5.135000    -11.855000
H          -6.006000      2.550000    -13.398000
H          -5.659000      0.323000    -14.833000
H          -2.728000     -4.533000    -16.676000
H          -5.194000     -3.937000    -17.462000
H           5.111000      8.420000     -9.557000
C           6.714000      6.996000    -10.339000
H           5.544000      7.033000     -8.518000
H           6.538000      7.283000    -11.383000
H           6.979000      5.940000    -10.198000
C           7.918000      7.749000     -9.691000
H           8.645000      7.886000    -10.502000
C           8.573000      7.043000     -8.467000
H           7.655000      8.797000     -9.501000
H           8.746000      6.010000     -8.793000
H           7.856000      7.164000     -7.646000
C           9.932000      7.619000     -7.953000
H          10.746000      7.511000     -8.680000
C          10.454000      7.017000     -6.584000
H           9.812000      8.702000     -7.827000
H          10.797000      5.999000     -6.809000
H           9.690000      6.897000     -5.806000
H          11.325000      7.540000     -6.170000
$end

--------------------------------------------------------------

             Standard Nuclear Orientation (Angstroms)
    I     Atom           X                Y                Z
 ----------------------------------------------------------------
    1      C       4.2429923831     4.0333443683     1.3251236959
    2      C       3.1248255698     4.4928488746     2.0410535713
    3      N       4.3543328951     2.8071642773     0.7779046585
    4      C       2.0559424034     3.6569472735     2.2247878628
    5      C       3.2677452444     1.9467924998     0.9034860336
    6      C       2.1319463571     2.3445033351     1.6756000011
    7      C       0.9601202805     1.4393618792     1.7326314918
    8      C      -0.3639274217     1.7856274757     1.5584596826
    9      C       1.0545900641     0.0206321071     1.9448655464
   10      N      -1.4438230449     1.0490523620     1.6339351421
   11      N       2.1999599865    -0.6210225517     1.9413957139
   12      C      -0.0386116901    -0.8737376847     2.0183951331
   13      C      -1.3518356738    -0.2727705073     1.9559594050
   14      S       1.9121027270    -2.2315632359     2.1289801017
   15      N       0.2745300136    -2.1507278855     2.2442851514
   16      C      -2.6062476681    -1.0835733288     2.1665284750
   17      S      -2.6970821899    -2.8390833378     2.3858608669
   18      C      -3.8776949700    -0.5702017481     2.0106811828
   19      C      -4.4120249987    -2.8734231874     2.4104766579
   20      S      -4.5039787809     1.0330470466     1.6629127388
   21      C      -4.8767722524    -1.6018092303     2.1134750850
   22      C      -5.2825877724    -4.0161875033     2.2357220431
   23      C      -6.0945590170     0.3604403395     1.7956181647
   24      C      -6.1422425520    -0.9953414756     1.9824949968
   25      N      -4.6505240522    -5.0886561321     1.8346266755
   26      S      -7.0594883156    -4.1625671309     2.2889617275
   27      C      -5.5596118189    -6.0882969859     1.4185911051
   28      C      -6.8759190394    -5.8664014384     1.7315714034
   29      C       5.3444384311     5.0794123156     1.0106424516
   30      H       3.0376283766     5.5486663843     2.2804696017
   31      H       1.1851758715     4.0350467792     2.7533135583
   32      H       3.4211286247     0.9949576979     0.3965293799
   33      H      -0.5389301839     2.7849098557     1.1612950338
   34      H      -6.8919244533     1.0913512669     1.8377557642
   35      H      -7.1035288916    -1.4944595687     2.0355204833
   36      H      -5.1223227805    -7.0025332008     1.0377769244
   37      H      -7.7491520760    -6.5060224797     1.7347316976
   38      H       5.6809813737     4.7789158671     0.0109141224
   39      C       6.6371803222     5.1897653663     1.9251333522
   40      H       4.8256474112     6.0299363245     0.8346140845
   41      H       6.9296422902     4.1619110723     2.1720149989
   42      H       6.4018836904     5.6896904603     2.8724555759
   43      C       7.7835221190     5.9496377425     1.3109147781
   44      H       8.0229975895     5.4607981805     0.3590485156
   45      C       9.0424997880     5.8301609383     2.2219106738
   46      H       7.5612160574     6.9910968060     1.0464246379
   47      H       9.1212226052     4.7835722438     2.5418853958
   48      H       8.7696813204     6.4979940171     3.0480965261
   49      C      10.4045082592     6.2960303555     1.5421242290
   50      H      10.4765227782     5.7840175210     0.5742633059
   51      C      11.6215366904     5.9604386695     2.4654335043
   52      H      10.4705263327     7.3393107002     1.2067830050
   53      H      11.5569918426     6.7170805599     3.2572523045
   54      H      12.5565710167     6.0263417667     1.8945599716
   55      H      11.6512897489     4.9249374451     2.8255209517
   56      C      -5.1045897789     2.2638972069    -1.8901440172
   57      C      -4.0314679803     2.8809978041    -1.2633246987
   58      N      -5.1028952057     1.0467689356    -2.4360092933
   59      C      -2.8260482267     2.1117418329    -1.1949619283
   60      C      -3.9307136877     0.3389534620    -2.4050134194
   61      C      -2.7750093983     0.8223183680    -1.7587031511
   62      C      -1.5194953547     0.0548815591    -1.7980634179
   63      C      -1.5743267404    -1.3746683154    -1.6207877130
   64      C      -0.2354569442     0.6505707635    -1.8752368090
   65      N      -0.4403965820    -2.1505442674    -1.4908342482
   66      N       0.0597983966     1.9219785276    -2.1692360965
   67      C       0.9062936955    -0.1381145408    -1.7693407872
   68      C       0.7659373574    -1.5692548128    -1.5751253906
   69      S       1.6256892874     2.1524925119    -2.0118924563
   70      N       2.0564386794     0.5701609360    -1.8413294325
   71      C       1.9283248263    -2.4582760144    -1.7632494855
   72      S       3.4743482440    -2.0694073670    -2.5675123575
   73      C       1.9134633212    -3.7921770837    -1.3992796063
   74      C       4.1361728846    -3.7338073995    -2.1403816080
   75      S       0.8284497596    -4.6336020833    -0.3325502398
   76      C       3.1241979683    -4.4721063082    -1.5693732978
   77      C       5.5005254650    -4.1185826812    -2.2086093057
   78      C       1.8710730328    -6.0468214824    -0.4717071299
   79      C       3.0906711817    -5.7458510369    -0.9772218637
   80      N       6.4095853408    -3.1740830017    -2.2143099681
   81      S       6.1811811968    -5.7238438576    -2.1999877982
   82      C       7.6610470336    -3.6300133333    -2.3585811164
   83      C       7.7692091711    -4.9740046861    -2.3444674498
   84      C      -6.3378886552     3.1741103142    -2.0033826198
   85      H      -4.1695954273     3.8928054237    -0.8953231372
   86      H      -1.9893972530     2.6328352948    -0.7387977559
   87      H      -4.0543481991    -0.6766677455    -2.7756858767
   88      H      -2.5235049325    -1.8881046715    -1.4782224024
   89      H       1.4587626353    -6.9519357956    -0.0449177016
   90      H       3.9224631623    -6.4404955256    -0.9436788285
   91      H       8.4815431225    -2.9567789484    -2.5705330710
   92      H       8.6350079679    -5.6068965999    -2.4839711017
   93      H      -7.2809645702     2.6365662788    -2.1604947726
   94      C      -6.0045470972     4.2586174556    -3.1344646973
   95      H      -6.4037094267     3.7460088195    -1.0694678884
   96      H      -5.9054183872     3.6958161848    -4.0707922193
   97      H      -5.1171484308     4.8447985691    -2.8621463007
   98      C      -7.1341375307     5.3348181293    -3.1829060261
   99      H      -7.1371308557     5.7060475029    -4.2159591671
  100      C      -6.9899700190     6.5076041566    -2.1682998647
  101      H      -8.1201415719     4.8544867178    -3.1573959139
  102      H      -5.9578302541     6.8601625566    -2.2852788379
  103      H      -7.2318100473     6.0746525471    -1.1901192553
  104      C      -7.9409658435     7.7339549504    -2.3541053338
  105      H      -7.7591726388     8.2801048516    -3.2876258297
  106      C      -7.9151294613     8.8008382983    -1.1835749399
  107      H      -8.9655378541     7.3537005213    -2.4480402271
  108      H      -6.9606427882     9.3344206795    -1.2776123440
  109      H      -7.9105522085     8.3810207157    -0.1701094762
  110      H      -8.6946099776     9.5687714452    -1.2626622755
 ----------------------------------------------------------------

    9   -5663.5111875126      7.47E-06 Convergence criterion met
 Total energy in the final basis set = -5663.5111875126

                    Orbital Energies (a.u.)
 --------------------------------------------------------------

 Alpha MOs
 -- Occupied --
-88.987 -88.980 -88.926 -88.922 -88.922 -88.921 -88.909 -88.902
-14.379 -14.377 -14.372 -14.369 -14.349 -14.349 -14.341 -14.331
-14.330 -14.324 -10.271 -10.268 -10.262 -10.262 -10.250 -10.250
-10.249 -10.247 -10.241 -10.240 -10.237 -10.237 -10.237 -10.236
-10.232 -10.231 -10.230 -10.229 -10.227 -10.224 -10.224 -10.223
-10.223 -10.222 -10.221 -10.221 -10.220 -10.219 -10.219 -10.213
-10.210 -10.207 -10.206 -10.205 -10.198 -10.197 -10.196 -10.191
-10.187 -10.186 -10.186 -10.186 -10.184 -10.183 -10.182 -10.181
-10.178 -10.178 -10.175 -10.173  -8.042  -8.035  -7.986  -7.983
 -7.981  -7.978  -7.969  -7.963  -6.007  -6.001  -6.000  -6.000
 -5.994  -5.993  -5.950  -5.947  -5.946  -5.945  -5.944  -5.943
 -5.943  -5.941  -5.940  -5.939  -5.938  -5.935  -5.933  -5.929
 -5.927  -5.925  -5.924  -5.919  -1.038  -1.033  -0.974  -0.963
 -0.959  -0.948  -0.930  -0.928  -0.911  -0.910  -0.901  -0.895
 -0.849  -0.839  -0.831  -0.828  -0.804  -0.803  -0.801  -0.800
 -0.798  -0.797  -0.794  -0.793  -0.780  -0.779  -0.763  -0.760
 -0.748  -0.747  -0.740  -0.737  -0.724  -0.720  -0.709  -0.706
 -0.694  -0.689  -0.676  -0.672  -0.652  -0.651  -0.646  -0.636
 -0.631  -0.630  -0.623  -0.623  -0.607  -0.605  -0.598  -0.598
 -0.592  -0.591  -0.584  -0.579  -0.574  -0.573  -0.571  -0.567
 -0.543  -0.541  -0.536  -0.535  -0.521  -0.520  -0.516  -0.514
 -0.508  -0.499  -0.497  -0.495  -0.486  -0.483  -0.477  -0.473
 -0.472  -0.468  -0.468  -0.465  -0.462  -0.460  -0.451  -0.446
 -0.444  -0.440  -0.439  -0.438  -0.434  -0.434  -0.430  -0.430
 -0.425  -0.424  -0.423  -0.418  -0.417  -0.415  -0.414  -0.413
 -0.411  -0.408  -0.403  -0.402  -0.400  -0.398  -0.394  -0.393
 -0.391  -0.390  -0.389  -0.387  -0.384  -0.384  -0.381  -0.378
 -0.371  -0.369  -0.369  -0.367  -0.363  -0.363  -0.355  -0.352
 -0.351  -0.350  -0.347  -0.345  -0.342  -0.340  -0.340  -0.339
 -0.335  -0.335  -0.332  -0.332  -0.327  -0.326  -0.323  -0.318
 -0.317  -0.309  -0.309  -0.304  -0.303  -0.302  -0.299  -0.297
 -0.295  -0.290  -0.288  -0.287  -0.284  -0.279  -0.278  -0.274
 -0.272  -0.269  -0.267  -0.261  -0.252  -0.250  -0.249  -0.247
 -0.242  -0.241  -0.230  -0.225  -0.195  -0.189

          Ground-State Mulliken Net Atomic Charges

     Atom                 Charge (a.u.)
  ----------------------------------------
      1 C                     0.264323
      2 C                    -0.107470
      3 N                    -0.481989
      4 C                    -0.067833
      5 C                     0.065438
      6 C                     0.011434
      7 C                     0.057027
      8 C                     0.041039
      9 C                     0.216828
     10 N                    -0.523235
     11 N                    -0.551153
     12 C                     0.219163
     13 C                     0.301726
     14 S                     0.612338
     15 N                    -0.574976
     16 C                    -0.245230
     17 S                     0.378000
     18 C                    -0.106554
     19 C                    -0.205689
     20 S                     0.303198
     21 C                     0.101445
     22 C                     0.067423
     23 C                    -0.304156
     24 C                    -0.082742
     25 N                    -0.422136
     26 S                     0.251358
     27 C                     0.113608
     28 C                    -0.305223
     29 C                    -0.236590
     30 H                     0.091630
     31 H                     0.104628
     32 H                     0.163572
     33 H                     0.090761
     34 H                     0.129449
     35 H                     0.107684
     36 H                     0.117414
     37 H                     0.144458
     38 H                     0.116363
     39 C                    -0.171299
     40 H                     0.092126
     41 H                     0.111403
     42 H                     0.090055
     43 C                    -0.181560
     44 H                     0.093154
     45 C                    -0.168114
     46 H                     0.090737
     47 H                     0.097950
     48 H                     0.092852
     49 C                    -0.190861
     50 H                     0.092203
     51 C                    -0.314838
     52 H                     0.093117
     53 H                     0.108458
     54 H                     0.098177
     55 H                     0.104794
     56 C                     0.293891
     57 C                    -0.109335
     58 N                    -0.489554
     59 C                    -0.050119
     60 C                     0.054960
     61 C                     0.048371
     62 C                     0.029000
     63 C                     0.052543
     64 C                     0.237944
     65 N                    -0.504731
     66 N                    -0.556253
     67 C                     0.197386
     68 C                     0.278305
     69 S                     0.620492
     70 N                    -0.580289
     71 C                    -0.201705
     72 S                     0.347187
     73 C                    -0.131232
     74 C                    -0.222209
     75 S                     0.287588
     76 C                     0.158901
     77 C                     0.041317
     78 C                    -0.310857
     79 C                    -0.069144
     80 N                    -0.420849
     81 S                     0.250715
     82 C                     0.138819
     83 C                    -0.314075
     84 C                    -0.235524
     85 H                     0.092060
     86 H                     0.106391
     87 H                     0.105601
     88 H                     0.131249
     89 H                     0.133895
     90 H                     0.112273
     91 H                     0.115790
     92 H                     0.131642
     93 H                     0.108346
     94 C                    -0.181048
     95 H                     0.096107
     96 H                     0.113672
     97 H                     0.097239
     98 C                    -0.190825
     99 H                     0.087560
    100 C                    -0.166883
    101 H                     0.090178
    102 H                     0.092170
    103 H                     0.096511
    104 C                    -0.183136
    105 H                     0.096356
    106 C                    -0.325415
    107 H                     0.094728
    108 H                     0.102541
    109 H                     0.102605
    110 H                     0.105165
  ----------------------------------------
  Sum of atomic charges =     0.000000

                    Cartesian Multipole Moments
 -----------------------------------------------------------------
    Charge (ESU x 10^10)
                 0.0000
    Dipole Moment (Debye)
         X      -0.8228      Y       0.5639      Z       1.2395
       Tot       1.5910
    Quadrupole Moments (Debye-Ang)
        XX    -406.8650     XY      -4.9453     YY    -389.6556
        XZ     -10.1989     YZ       3.4172     ZZ    -456.6337

 Total job time:  104.21s(wall), 1110.76s(cpu)
        *  Thank you very much for using Q-Chem.  Have a nice day.  *
