 Q-Chem 4.4, Q-Chem, Inc., Pleasanton, CA (2016)
 Q-Chem 4.4.2 for Intel X86 Linux

User input:
--------------------------------------------------------------
$comment
SP
$end

$rem
MEM_STATIC 5000
MEM_TOTAL 20000
JOBTYPE SP
EXCHANGE B3LYP
BASIS 6-31g(d,p)
$end

$molecule
0 1
C          27.952000     25.571000      3.414000
C          27.599000     24.604000      4.397000
N          27.133000     26.535000      2.951000
C          26.241000     24.589000      4.845000
C          25.829000     26.450000      3.314000
C          25.272000     25.424000      4.210000
C          23.851000     25.504000      4.519000
C          23.331000     25.193000      5.803000
C          22.794000     25.886000      3.576000
N          22.036000     25.238000      6.171000
N          23.099000     26.218000      2.379000
C          21.485000     26.022000      3.990000
C          21.093000     25.624000      5.324000
S          21.721000     26.751000      1.886000
N          20.707000     26.554000      3.102000
C          19.729000     25.628000      5.836000
S          18.209000     26.356000      5.031000
C          19.274000     24.953000      6.961000
C          17.118000     25.600000      6.238000
S          20.139000     23.926000      8.091000
C          17.860000     24.970000      7.172000
C          15.687000     25.774000      6.201000
C          18.598000     23.736000      8.959000
C          17.472000     24.223000      8.313000
N          14.838000     25.199000      7.018000
S          14.906000     26.837000      5.010000
C          13.466000     25.451000      6.702000
C          13.367000     26.361000      5.669000
C          29.487000     25.728000      2.993000
H          28.341000     23.987000      4.896000
H          25.926000     23.867000      5.593000
H          25.199000     27.196000      2.831000
H          23.997000     24.848000      6.593000
H          18.619000     23.140000      9.862000
H          16.446000     24.112000      8.644000
H          12.714000     24.945000      7.292000
H          12.478000     26.754000      5.193000
H          29.845000     24.864000      2.420000
C          30.486000     26.144000      4.085000
H          29.535000     26.559000      2.279000
H          30.442000     25.418000      4.907000
H          30.081000     27.071000      4.509000
C          31.989000     26.344000      3.696000
H          32.221000     25.447000      3.109000
C          32.986000     26.324000      4.833000
H          32.101000     27.221000      3.047000
H          32.970000     25.410000      5.439000
H          32.824000     27.166000      5.517000
C          34.413000     26.675000      4.232000
H          34.696000     26.035000      3.387000
C          35.427000     26.735000      5.345000
H          34.311000     27.642000      3.724000
H          35.238000     27.364000      6.224000
H          36.414000     26.954000      4.920000
H          35.439000     25.718000      5.757000
C          31.657000     24.318000      7.783000
C          30.511000     23.683000      7.211000
N          31.615000     25.557000      8.342000
C          29.274000     24.309000      7.468000
C          30.436000     26.185000      8.466000
C          29.221000     25.657000      8.004000
C          27.892000     26.430000      7.888000
C          26.667000     25.817000      8.183000
C          27.824000     27.738000      7.374000
N          25.444000     26.477000      8.048000
N          28.968000     28.515000      7.234000
C          26.612000     28.408000      7.269000
C          25.394000     27.726000      7.581000
S          28.423000     30.023000      6.915000
N          26.730000     29.706000      6.982000
C          24.053000     28.277000      7.368000
S          22.698000     27.751000      8.325000
C          23.659000     29.030000      6.302000
C          21.574000     28.718000      7.254000
S          24.591000     29.561000      4.943000
C          22.305000     29.261000      6.215000
C          20.183000     28.816000      7.397000
C          23.073000     30.230000      4.241000
C          21.949000     30.002000      5.031000
N          19.588000     29.732000      6.704000
S          19.181000     27.878000      8.455000
C          18.222000     29.666000      6.911000
C          17.827000     28.847000      7.948000
C          32.941000     23.639000      7.882000
H          30.555000     22.694000      6.764000
H          28.401000     23.770000      7.113000
H          30.468000     27.180000      8.906000
H          26.591000     24.807000      8.584000
H          23.098000     30.832000      3.342000
H          20.968000     30.396000      4.792000
H          17.543000     30.389000      6.479000
H          16.825000     28.709000      8.330000
H          33.081000     22.978000      7.018000
C          33.095000     22.788000      9.194000
H          33.759000     24.348000      8.064000
H          32.928000     23.454000     10.050000
H          34.147000     22.500000      9.311000
C          32.263000     21.491000      9.407000
H          31.287000     21.621000      8.924000
C          31.925000     21.165000     10.852000
H          32.749000     20.634000      8.925000
H          31.324000     20.249000     10.909000
H          31.269000     21.913000     11.315000
C          33.152000     20.926000     11.784000
H          33.843000     20.189000     11.357000
C          32.597000     20.571000     13.154000
H          33.749000     21.844000     11.852000
H          33.500000     20.386000     13.748000
H          31.957000     19.680000     13.175000
H          32.041000     21.342000     13.702000
$end

--------------------------------------------------------------

             Standard Nuclear Orientation (Angstroms)
    I     Atom           X                Y                Z
 ----------------------------------------------------------------
    1      C       3.2706397525    -2.2556425309     2.4223894827
    2      C       3.1377697381    -0.8396965676     2.4809521705
    3      N       2.2930337706    -3.1079370190     2.0586496725
    4      C       1.8388953461    -0.2918178127     2.2404377561
    5      C       1.0492348151    -2.5839798167     1.9250719477
    6      C       0.7151132141    -1.1607178479     2.0936813299
    7      C      -0.6708931950    -0.7677912048     1.8798662530
    8      C      -1.0291101266     0.4577066907     1.2588891698
    9      C      -1.8486485728    -1.5468052613     2.2779257587
   10      N      -2.2808549643     0.8974697573     1.0260430690
   11      N      -1.6977524122    -2.6893652604     2.8327635703
   12      C      -3.1222287089    -1.1317811393     1.9475901490
   13      C      -3.3380979221     0.1682484344     1.3518153675
   14      S      -3.1725732264    -3.1902613308     2.8274070223
   15      N      -4.0396224003    -2.0136366200     2.1875312377
   16      C      -4.6397483628     0.7511780940     1.0542332071
   17      S      -6.3083051815    -0.0853046331     1.1222316617
   18      C      -4.8995241943     2.0924998103     0.8059439186
   19      C      -7.1778877078     1.4684268239     0.9022071414
   20      S      -3.8090299223     3.4668356683     0.7626173435
   21      C      -6.2789339869     2.4546419578     0.7045156714
   22      C      -8.6169173922     1.5476216295     0.8539603780
   23      C      -5.2280832310     4.4663057665     0.3733202460
   24      C      -6.4615851553     3.8451419803     0.4957520776
   25      N      -9.3062170682     2.6585379054     0.7557464044
   26      S      -9.6346790027     0.0917538909     0.9089279319
   27      C     -10.7220924182     2.4728868270     0.8368307453
   28      C     -11.0322774469     1.1284202205     0.8712515523
   29      C       4.7277668456    -2.9056787860     2.5335132955
   30      H       3.9964475546    -0.1799178998     2.5682362874
   31      H       1.6901586690     0.7836272249     2.2766091818
   32      H       0.2853966234    -3.3352259940     1.7278781393
   33      H      -0.2558104336     1.1609815556     0.9521432664
   34      H      -5.0481392199     5.5190848148     0.1991294648
   35      H      -7.4303337187     4.3198960425     0.3923460748
   36      H     -11.3449215884     3.3570376463     0.8379047345
   37      H     -12.0042666346     0.6572047143     0.9386233994
   38      H       5.1451955741    -2.8052424959     3.5427976005
   39      C       5.7554383763    -2.5394933526     1.4503141203
   40      H       4.6014607366    -3.9873612770     2.4043980161
   41      H       5.8813121913    -1.4493571798     1.4289855617
   42      H       5.2700379973    -2.7833885103     0.4974071867
   43      C       7.1780984700    -3.1897842633     1.5093902520
   44      H       7.4742887474    -3.0580888632     2.5572116305
   45      C       8.2657159189    -2.5004700518     0.7162243156
   46      H       7.1146188157    -4.2644969657     1.3000175204
   47      H       8.4250690113    -1.4474547407     0.9782421521
   48      H       8.0545309683    -2.5355826208    -0.3595228778
   49      C       9.5745009341    -3.3942678466     0.8107668240
   50      H       9.8640250034    -3.6298724306     1.8424549034
   51      C      10.6661435360    -2.7783241823    -0.0255912524
   52      H       9.3003048000    -4.3926333568     0.4479448455
   53      H      10.4738874279    -2.5251442985    -1.0758010102
   54      H      11.5737124450    -3.3875227066     0.0635761939
   55      H      10.8496313154    -1.8028832333     0.4424089505
   56      C       7.4817393447     1.1947908143     0.2437786971
   57      C       6.3841349176     1.3769292594     1.1414507467
   58      N       7.3251864138     0.7857395372    -1.0436739166
   59      C       5.1026100420     1.3402355651     0.5545593037
   60      C       6.0888651658     0.6415566905    -1.5441957227
   61      C       4.9186769968     0.8436016330    -0.7970073326
   62      C       3.4937465185     0.4509232310    -1.2358726931
   63      C       2.3920642440     1.2640748196    -0.9383837688
   64      C       3.2072726759    -0.7838665752    -1.8465369807
   65      N       1.0851039754     0.9162220537    -1.2853813333
   66      N       4.2209392888    -1.5802810671    -2.3664109605
   67      C       1.9125010013    -1.1181587918    -2.2216156719
   68      C       0.8284035779    -0.2477878417    -1.8851945286
   69      S       3.4542943094    -2.7316354143    -3.2378974163
   70      N       1.8310844461    -2.2093096937    -2.9857217206
   71      C      -0.5874710266    -0.5618371124    -2.0947730581
   72      S      -1.7703797717     0.6972480324    -2.3044907228
   73      C      -1.1709326673    -1.7802535564    -1.9113749043
   74      C      -3.1033486141    -0.5539157392    -2.2471384622
   75      S      -0.4418826435    -3.2707428363    -1.4170129225
   76      C      -2.5459553687    -1.7874340581    -1.9705949267
   77      C      -4.4768423098    -0.2988841130    -2.3629311114
   78      C      -2.0914980603    -3.9930531078    -1.3754695935
   79      C      -3.1007671749    -3.0899693735    -1.6999316456
   80      N      -5.2473277736    -1.3220264448    -2.5442096784
   81      S      -5.2475884548     1.2532229894    -2.3517095913
   82      C      -6.5686797588    -0.9150552468    -2.5837618621
   83      C      -6.7578904508     0.4484333151    -2.6689279087
   84      C       8.8482509424     1.5195181462     0.6267881137
   85      H       6.5193691667     1.7012404161     2.1692639454
   86      H       4.2809754572     1.5747234725     1.2243406340
   87      H       6.0272377872     0.2963546011    -2.5745774887
   88      H       2.4867767336     2.2404727111    -0.4647238678
   89      H      -2.2264753154    -5.0540342229    -1.2101510701
   90      H      -4.1427059604    -3.3744399172    -1.7902537195
   91      H      -7.3733134066    -1.6061484232    -2.7967147077
   92      H      -7.6948400424     0.9746786888    -2.7879374442
   93      H       8.9977172224     1.3061763638     1.6922279829
   94      C       9.2296147295     3.0200439991     0.3580041356
   95      H       9.5776723807     1.0541229017    -0.0486973649
   96      H       9.0521217322     3.2284037876    -0.7046639379
   97      H      10.3167463070     3.1338844316     0.4503203806
   98      C       8.5995059687     4.1672045869     1.1987107046
   99      H       7.5759587322     3.8792653959     1.4674244499
  100      C       8.4372132863     5.4920701769     0.4728062662
  101      H       9.1504257017     4.3096145221     2.1363544846
  102      H       7.9706905197     6.2360697673     1.1303221349
  103      H       7.7312751395     5.4346312615    -0.3653829153
  104      C       9.7628108873     6.1415862853    -0.0293827670
  105      H      10.5050283844     6.2125818605     0.7750125434
  106      C       9.3835107224     7.4646004867    -0.6749172803
  107      H      10.2361964271     5.4881964024    -0.7728508507
  108      H      10.3521395449     7.8815284457    -0.9755820124
  109      H       8.8719765370     8.1717234864    -0.0099121370
  110      H       8.7807653352     7.4384543329    -1.5913753409
 ----------------------------------------------------------------

   10   -5663.5048806047      4.27E-06 Convergence criterion met
 Total energy in the final basis set = -5663.5048806047

                    Orbital Energies (a.u.)
 --------------------------------------------------------------

 Alpha MOs
 -- Occupied --
-88.987 -88.978 -88.923 -88.920 -88.919 -88.916 -88.910 -88.906
-14.389 -14.387 -14.384 -14.380 -14.352 -14.344 -14.343 -14.332
-14.332 -14.331 -10.272 -10.264 -10.259 -10.258 -10.256 -10.254
-10.250 -10.248 -10.246 -10.244 -10.240 -10.239 -10.236 -10.235
-10.235 -10.234 -10.233 -10.232 -10.232 -10.229 -10.229 -10.229
-10.226 -10.226 -10.224 -10.223 -10.222 -10.222 -10.221 -10.221
-10.220 -10.219 -10.210 -10.207 -10.206 -10.204 -10.198 -10.196
-10.189 -10.186 -10.181 -10.180 -10.179 -10.176 -10.174 -10.173
-10.172 -10.172 -10.171 -10.166  -8.042  -8.037  -7.984  -7.978
 -7.977  -7.977  -7.969  -7.966  -6.007  -6.002  -6.001  -6.000
 -5.996  -5.994  -5.948  -5.944  -5.942  -5.941  -5.941  -5.941
 -5.939  -5.938  -5.937  -5.934  -5.934  -5.934  -5.934  -5.930
 -5.930  -5.927  -5.926  -5.922  -1.085  -1.023  -0.970  -0.960
 -0.958  -0.953  -0.944  -0.939  -0.930  -0.911  -0.903  -0.897
 -0.839  -0.835  -0.830  -0.829  -0.810  -0.804  -0.804  -0.800
 -0.800  -0.796  -0.795  -0.793  -0.789  -0.776  -0.766  -0.760
 -0.748  -0.748  -0.740  -0.737  -0.722  -0.715  -0.714  -0.708
 -0.693  -0.691  -0.671  -0.670  -0.657  -0.653  -0.645  -0.642
 -0.633  -0.631  -0.630  -0.624  -0.614  -0.610  -0.599  -0.594
 -0.592  -0.589  -0.586  -0.581  -0.578  -0.575  -0.566  -0.562
 -0.557  -0.549  -0.541  -0.539  -0.525  -0.520  -0.510  -0.510
 -0.504  -0.502  -0.498  -0.498  -0.492  -0.484  -0.480  -0.479
 -0.470  -0.470  -0.468  -0.463  -0.461  -0.461  -0.449  -0.447
 -0.443  -0.440  -0.436  -0.433  -0.433  -0.430  -0.430  -0.427
 -0.426  -0.426  -0.425  -0.419  -0.418  -0.417  -0.415  -0.411
 -0.409  -0.407  -0.406  -0.403  -0.401  -0.398  -0.396  -0.395
 -0.393  -0.391  -0.389  -0.388  -0.387  -0.385  -0.383  -0.381
 -0.378  -0.378  -0.372  -0.368  -0.363  -0.363  -0.359  -0.358
 -0.356  -0.355  -0.352  -0.348  -0.344  -0.344  -0.343  -0.341
 -0.339  -0.335  -0.334  -0.330  -0.328  -0.324  -0.323  -0.315
 -0.313  -0.312  -0.312  -0.309  -0.307  -0.304  -0.297  -0.296
 -0.295  -0.291  -0.287  -0.286  -0.283  -0.280  -0.279  -0.275
 -0.274  -0.269  -0.267  -0.265  -0.256  -0.254  -0.251  -0.248
 -0.241  -0.238  -0.236  -0.227  -0.195  -0.188

          Ground-State Mulliken Net Atomic Charges

     Atom                 Charge (a.u.)
  ----------------------------------------
      1 C                     0.246549
      2 C                    -0.103337
      3 N                    -0.466206
      4 C                    -0.088757
      5 C                     0.087395
      6 C                     0.026500
      7 C                     0.049462
      8 C                     0.048412
      9 C                     0.199814
     10 N                    -0.529213
     11 N                    -0.498455
     12 C                     0.211322
     13 C                     0.316136
     14 S                     0.564342
     15 N                    -0.533459
     16 C                    -0.213477
     17 S                     0.285570
     18 C                    -0.105698
     19 C                    -0.223851
     20 S                     0.283286
     21 C                     0.164331
     22 C                     0.085365
     23 C                    -0.312900
     24 C                    -0.052490
     25 N                    -0.465303
     26 S                     0.251675
     27 C                     0.118423
     28 C                    -0.311214
     29 C                    -0.234236
     30 H                     0.089816
     31 H                     0.095873
     32 H                     0.127325
     33 H                     0.116655
     34 H                     0.123662
     35 H                     0.132118
     36 H                     0.124464
     37 H                     0.135834
     38 H                     0.095295
     39 C                    -0.193116
     40 H                     0.114612
     41 H                     0.092222
     42 H                     0.102704
     43 C                    -0.173380
     44 H                     0.087126
     45 C                    -0.174719
     46 H                     0.092547
     47 H                     0.096195
     48 H                     0.104228
     49 C                    -0.181697
     50 H                     0.090025
     51 C                    -0.315963
     52 H                     0.090626
     53 H                     0.109323
     54 H                     0.094147
     55 H                     0.099964
     56 C                     0.294279
     57 C                    -0.116811
     58 N                    -0.482478
     59 C                    -0.082420
     60 C                     0.097032
     61 C                     0.026509
     62 C                     0.020791
     63 C                     0.040813
     64 C                     0.228953
     65 N                    -0.524215
     66 N                    -0.529789
     67 C                     0.238181
     68 C                     0.296561
     69 S                     0.600467
     70 N                    -0.573610
     71 C                    -0.203656
     72 S                     0.325945
     73 C                    -0.109590
     74 C                    -0.239949
     75 S                     0.265132
     76 C                     0.160115
     77 C                     0.072850
     78 C                    -0.318824
     79 C                    -0.044319
     80 N                    -0.444479
     81 S                     0.274188
     82 C                     0.115388
     83 C                    -0.301331
     84 C                    -0.236793
     85 H                     0.099481
     86 H                     0.096133
     87 H                     0.116112
     88 H                     0.115814
     89 H                     0.128487
     90 H                     0.133748
     91 H                     0.107458
     92 H                     0.136801
     93 H                     0.096443
     94 C                    -0.191751
     95 H                     0.128404
     96 H                     0.110438
     97 H                     0.097821
     98 C                    -0.181864
     99 H                     0.082645
    100 C                    -0.172584
    101 H                     0.089660
    102 H                     0.086220
    103 H                     0.093261
    104 C                    -0.174217
    105 H                     0.093093
    106 C                    -0.319003
    107 H                     0.097859
    108 H                     0.095439
    109 H                     0.102751
    110 H                     0.106538
  ----------------------------------------
  Sum of atomic charges =     0.000000

                    Cartesian Multipole Moments
 -----------------------------------------------------------------
    Charge (ESU x 10^10)
                 0.0000
    Dipole Moment (Debye)
         X      -1.7242      Y       2.0071      Z       1.1438
       Tot       2.8826
    Quadrupole Moments (Debye-Ang)
        XX    -391.0798     XY       6.9579     YY    -434.8072
        XZ      10.3008     YZ       5.7109     ZZ    -451.7845

 Total job time:  122.93s(wall), 1329.98s(cpu)
        *  Thank you very much for using Q-Chem.  Have a nice day.  *
