 Q-Chem 4.4, Q-Chem, Inc., Pleasanton, CA (2016)
 Q-Chem 4.4.2 for Intel X86 Linux

User input:
--------------------------------------------------------------
$comment
SP
$end

$rem
MEM_STATIC 5000
MEM_TOTAL 20000
JOBTYPE SP
EXCHANGE B3LYP
BASIS 6-31g(d,p)
$end

$molecule
0 1
C          -4.771000    -15.077000      6.739000
C          -5.046000    -16.161000      5.844000
N          -3.957000    -15.190000      7.826000
C          -4.540000    -17.392000      6.115000
C          -3.361000    -16.366000      8.083000
C          -3.547000    -17.503000      7.183000
C          -2.697000    -18.734000      7.197000
C          -1.335000    -18.659000      7.472000
C          -3.231000    -20.036000      6.945000
N          -0.574000    -19.815000      7.468000
N          -4.528000    -20.235000      6.885000
C          -2.396000    -21.112000      6.862000
C          -1.042000    -21.013000      7.024000
S          -4.634000    -21.835000      6.600000
N          -3.061000    -22.273000      6.597000
C          -0.104000    -22.146000      7.019000
S          -0.370000    -23.682000      6.220000
C           1.247000    -22.043000      7.407000
C           1.258000    -24.230000      6.449000
S           2.186000    -20.724000      7.940000
C           1.901000    -23.249000      7.164000
C           1.796000    -25.366000      5.693000
C           3.582000    -21.751000      7.759000
C           3.315000    -23.027000      7.264000
N           3.075000    -25.681000      5.637000
S           0.739000    -26.479000      4.901000
C           3.259000    -26.938000      4.981000
C           2.114000    -27.572000      4.570000
C          -5.332000    -13.655000      6.550000
H          -5.702000    -16.098000      4.982000
H          -4.647000    -18.246000      5.453000
H          -2.600000    -16.371000      8.861000
H          -0.819000    -17.770000      7.833000
H           4.571000    -21.332000      7.894000
H           4.017000    -23.809000      7.001000
H           4.271000    -27.312000      4.900000
H           2.047000    -28.550000      4.112000
H          -6.323000    -13.470000      6.982000
C          -5.221000    -13.141000      5.049000
H          -4.651000    -13.012000      7.121000
H          -5.850000    -13.709000      4.353000
H          -4.207000    -13.415000      4.733000
C          -5.631000    -11.677000      4.760000
H          -6.671000    -11.483000      5.050000
C          -5.334000    -11.478000      3.277000
H          -5.041000    -10.963000      5.349000
H          -5.676000    -12.350000      2.705000
H          -4.258000    -11.559000      3.080000
C          -5.916000    -10.235000      2.600000
H          -5.333000     -9.368000      2.933000
C          -7.450000     -9.955000      2.851000
H          -5.660000    -10.294000      1.535000
H          -7.589000     -9.659000      3.898000
H          -8.054000    -10.852000      2.669000
H          -7.859000     -9.174000      2.198000
C         -12.028000    -20.527000     10.409000
C         -12.957000    -20.288000      9.353000
N         -10.745000    -20.847000     10.165000
C         -12.511000    -20.273000      8.029000
C         -10.402000    -20.856000      8.846000
C         -11.221000    -20.640000      7.702000
C         -10.709000    -20.498000      6.280000
C          -9.360000    -20.157000      5.987000
C         -11.483000    -20.833000      5.131000
N          -8.839000    -20.113000      4.756000
N         -12.751000    -21.347000      5.209000
C         -10.964000    -20.750000      3.849000
C          -9.583000    -20.370000      3.695000
S         -13.229000    -21.524000      3.628000
N         -11.832000    -21.144000      2.890000
C          -8.942000    -20.150000      2.325000
S          -9.490000    -20.512000      0.619000
C          -7.947000    -19.222000      2.131000
C          -7.976000    -19.917000     -0.027000
S          -7.226000    -18.135000      3.415000
C          -7.433000    -19.092000      0.872000
C          -7.524000    -20.152000     -1.388000
C          -6.052000    -17.650000      2.096000
C          -6.339000    -18.210000      0.849000
N          -8.390000    -20.883000     -2.073000
S          -5.975000    -19.928000     -2.019000
C          -7.759000    -21.390000     -3.195000
C          -6.394000    -21.157000     -3.250000
C         -12.439000    -20.300000     11.878000
H         -13.977000    -20.058000      9.648000
H         -13.174000    -20.093000      7.187000
H          -9.363000    -21.130000      8.669000
H          -8.598000    -20.106000      6.763000
H          -5.405000    -16.800000      2.269000
H          -5.819000    -17.947000     -0.065000
H          -8.282000    -21.936000     -3.969000
H          -5.707000    -21.560000     -3.982000
H         -11.672000    -20.597000     12.604000
C         -13.732000    -21.117000     12.312000
H         -12.549000    -19.226000     12.073000
H         -13.482000    -22.185000     12.300000
H         -14.621000    -20.968000     11.686000
C         -14.074000    -20.678000     13.761000
H         -13.238000    -21.043000     14.371000
C         -15.366000    -21.219000     14.259000
H         -14.028000    -19.582000     13.764000
H         -15.437000    -22.304000     14.115000
H         -16.060000    -20.695000     13.590000
C         -15.644000    -20.761000     15.727000
H         -14.731000    -20.932000     16.312000
C         -16.949000    -21.532000     16.205000
H         -15.940000    -19.708000     15.647000
H         -16.656000    -22.578000     16.352000
H         -17.776000    -21.555000     15.484000
H         -17.190000    -21.170000     17.212000
$end

--------------------------------------------------------------

             Standard Nuclear Orientation (Angstroms)
    I     Atom           X                Y                Z
 ----------------------------------------------------------------
    1      C      -0.0760489397    -1.2617659668    -5.0948719821
    2      C       0.0978545844    -1.5573859495    -3.7041626703
    3      N       0.4636006727    -0.1677713099    -5.7022334779
    4      C       0.7684399061    -0.6776709387    -2.9159654703
    5      C       1.2115991950     0.6837508773    -4.9813665169
    6      C       1.4821334322     0.4190884869    -3.5692298219
    7      C       2.5400393026     1.1136658615    -2.7714488744
    8      C       3.7529384635     1.4721396864    -3.3516782622
    9      C       2.3612053731     1.4532205447    -1.3942832915
   10      N       4.7151024841     2.1052282673    -2.5842720815
   11      N       1.1848652387     1.3486418628    -0.8192205232
   12      C       3.3957745295     1.9877163787    -0.6830372974
   13      C       4.6228002248     2.2353133177    -1.2330052046
   14      S       1.4817423463     1.8497914134     0.7016917395
   15      N       3.0665140923     2.2339624116     0.6174708555
   16      C       5.7485251358     2.8766400122    -0.5365847169
   17      S       6.0016064554     2.8809409116     1.1967312808
   18      C       6.9185230468     3.3190820245    -1.1859720851
   19      C       7.6065386383     3.5260341254     1.0910126259
   20      S       7.4120821817     3.2623870753    -2.8165413302
   21      C       7.8458268908     3.7554210653    -0.2420881820
   22      C       8.5303528289     3.4685267898     2.2288774015
   23      C       8.9923762662     3.7516712203    -2.2692044758
   24      C       9.1190751391     3.8971931086    -0.8881683519
   25      N       9.8230781632     3.7146021961     2.1481921835
   26      S       7.9433701550     3.1879112890     3.8288737394
   27      C      10.4121153870     3.7617870489     3.4501329420
   28      C       9.5527578292     3.5754242814     4.5030695529
   29      C      -0.8576418155    -2.1671324089    -6.0654131621
   30      H      -0.3345616776    -2.4134536934    -3.1967050915
   31      H       0.9993902876    -0.8605523760    -1.8708696368
   32      H       1.7515782579     1.4508522081    -5.5330984808
   33      H       3.9741932553     1.4222163804    -4.4172541537
   34      H       9.8131369350     3.7820151442    -2.9744265478
   35      H      10.0091635805     4.1196788257    -0.3121998872
   36      H      11.4693880246     3.9838888565     3.5086680321
   37      H       9.7991250860     3.6340118536     5.5550237682
   38      H      -1.9388262485    -1.9907789880    -6.1189826759
   39      C      -0.5039808399    -3.7082372850    -5.8938390516
   40      H      -0.4785101596    -1.8981078231    -7.0589603224
   41      H      -0.8197060969    -4.1160831135    -4.9260269095
   42      H       0.5900285703    -3.7384533685    -5.8206379669
   43      C      -1.1272514289    -4.7036930681    -6.9015684581
   44      H      -2.2232989684    -4.6610123721    -6.8876347078
   45      C      -0.5362040113    -6.0580603022    -6.5228187450
   46      H      -0.8534339069    -4.4630849172    -7.9369180040
   47      H      -0.5459319161    -6.1805185881    -5.4322036268
   48      H       0.5487487014    -6.0693533136    -6.6837413319
   49      C      -1.1855853550    -7.3061644306    -7.1250163499
   50      H      -0.8895589559    -7.3624392288    -8.1793732715
   51      C      -2.7592594103    -7.3944221552    -7.0234410489
   52      H      -0.6788976772    -8.1778253491    -6.6929089092
   53      H      -3.1995172148    -6.6380263068    -7.6846402519
   54      H      -3.1046820941    -7.1945617816    -6.0020263434
   55      H      -3.1546734827    -8.3820478865    -7.2915718493
   56      C      -6.7085016359     3.7108641628     0.1127157347
   57      C      -7.3906761195     2.5708865154     0.6327031743
   58      N      -5.3665634915     3.7958228064     0.1157233369
   59      C      -6.6577019805     1.4596619053     1.0570211889
   60      C      -4.7276207012     2.6887109932     0.5885304263
   61      C      -5.2798214473     1.4954065770     1.1337385574
   62      C      -4.4872542310     0.2457380390     1.4722023703
   63      C      -3.2075112131    -0.0192343829     0.9118645939
   64      C      -4.8818150839    -0.6845148329     2.4774154461
   65      N      -2.4312610151    -1.0546618868     1.2495974976
   66      N      -5.9981789919    -0.5154997326     3.2541197146
   67      C      -4.1034738663    -1.7832114592     2.8042558848
   68      C      -2.8342094841    -1.9419051600     2.1416389236
   69      S      -6.0422966747    -1.8641619011     4.2229014162
   70      N      -4.6199701540    -2.5303350770     3.8059439024
   71      C      -1.9475246509    -3.1687390313     2.3534163040
   72      S      -1.9904168950    -4.5462719076     3.5543940015
   73      C      -1.1484574523    -3.6669456064     1.3523534585
   74      C      -0.5230880945    -5.2213082813     2.8799986534
   75      S      -0.9913104887    -2.9829700980    -0.3380749888
   76      C      -0.3899948620    -4.7685261984     1.6306189766
   77      C       0.2759195843    -6.2451034023     3.5321338230
   78      C       0.3347525260    -4.2310796326    -0.5305365969
   79      C       0.4722041986    -5.0844888271     0.5666314780
   80      N      -0.2338042040    -6.5926173251     4.7038666138
   81      S       1.8495181817    -6.7264717763     3.1582221453
   82      C       0.7348944735    -7.2582099893     5.4337318600
   83      C       1.9959358104    -7.2623997985     4.8590178511
   84      C      -7.4924224639     4.8372986836    -0.5908639735
   85      H      -8.4763434338     2.6030558743     0.6078714410
   86      H      -7.1256361265     0.5645427282     1.4579355113
   87      H      -3.6426870418     2.7825468581     0.5948379773
   88      H      -2.6776691304     0.7195764667     0.3128262847
   89      H       0.7328320371    -4.4115403663    -1.5204884272
   90      H       1.1274655602    -5.9478396661     0.5815605360
   91      H       0.5336957030    -7.7325380868     6.3851796571
   92      H       2.9042735348    -7.6310467841     5.3164279279
   93      H      -6.8741996795     5.6987430977    -0.8724454188
   94      C      -8.6540281171     5.4581875916     0.2995647267
   95      H      -7.8645884155     4.4835929783    -1.5603926108
   96      H      -8.1933643423     5.9844933611     1.1445849179
   97      H      -9.3811569874     4.7405820615     0.7004685920
   98      C      -9.4114656692     6.4740746058    -0.5968436227
   99      H      -8.6863027076     7.2745504491    -0.7907459266
  100      C     -10.6441985674     7.0194957174     0.0299214153
  101      H      -9.5947143115     5.9601364700    -1.5484887917
  102      H     -10.4536724775     7.4024010326     1.0399141523
  103      H     -11.2534138711     6.1079660472     0.0716751466
  104      C     -11.3492714442     8.0501601693    -0.9095864483
  105      H     -10.5851330445     8.7452039516    -1.2811260111
  106      C     -12.5421538646     8.6861614661    -0.0738329668
  107      H     -11.8287997868     7.4455510719    -1.6888973028
  108      H     -12.0827362222     9.3455272488     0.6716508992
  109      H     -13.1524809547     7.9746184502     0.4966986971
  110      H     -13.0834464506     9.3646941113    -0.7444817465
 ----------------------------------------------------------------

   10   -5663.4839331879      3.18E-06 Convergence criterion met
 Total energy in the final basis set = -5663.4839331879

                    Orbital Energies (a.u.)
 --------------------------------------------------------------

 Alpha MOs
 -- Occupied --
-88.994 -88.985 -88.936 -88.922 -88.920 -88.920 -88.914 -88.909
-14.392 -14.386 -14.386 -14.382 -14.354 -14.346 -14.345 -14.341
-14.334 -14.331 -10.275 -10.271 -10.269 -10.260 -10.260 -10.256
-10.249 -10.246 -10.245 -10.244 -10.240 -10.239 -10.238 -10.238
-10.236 -10.236 -10.236 -10.235 -10.235 -10.233 -10.233 -10.232
-10.232 -10.232 -10.229 -10.225 -10.221 -10.220 -10.217 -10.215
-10.210 -10.208 -10.206 -10.203 -10.202 -10.200 -10.199 -10.190
-10.189 -10.186 -10.186 -10.185 -10.184 -10.181 -10.181 -10.177
-10.177 -10.175 -10.174 -10.174  -8.049  -8.041  -7.997  -7.982
 -7.982  -7.979  -7.971  -7.970  -6.014  -6.008  -6.007  -6.006
 -6.000  -5.999  -5.962  -5.958  -5.954  -5.946  -5.946  -5.943
 -5.942  -5.942  -5.940  -5.939  -5.939  -5.936  -5.935  -5.934
 -5.933  -5.930  -5.927  -5.926  -1.048  -1.037  -0.976  -0.969
 -0.957  -0.949  -0.937  -0.931  -0.919  -0.915  -0.911  -0.902
 -0.848  -0.836  -0.834  -0.825  -0.812  -0.810  -0.808  -0.806
 -0.805  -0.799  -0.796  -0.794  -0.780  -0.780  -0.769  -0.764
 -0.751  -0.748  -0.741  -0.737  -0.721  -0.720  -0.709  -0.707
 -0.695  -0.689  -0.679  -0.671  -0.658  -0.654  -0.646  -0.645
 -0.638  -0.635  -0.626  -0.622  -0.610  -0.607  -0.602  -0.597
 -0.595  -0.588  -0.587  -0.582  -0.579  -0.579  -0.572  -0.567
 -0.554  -0.550  -0.541  -0.535  -0.524  -0.519  -0.517  -0.509
 -0.508  -0.502  -0.498  -0.497  -0.488  -0.485  -0.482  -0.476
 -0.474  -0.473  -0.472  -0.468  -0.466  -0.465  -0.456  -0.448
 -0.447  -0.444  -0.440  -0.439  -0.437  -0.435  -0.434  -0.431
 -0.426  -0.426  -0.425  -0.424  -0.419  -0.418  -0.413  -0.409
 -0.408  -0.405  -0.404  -0.403  -0.400  -0.400  -0.399  -0.395
 -0.393  -0.390  -0.390  -0.388  -0.387  -0.385  -0.383  -0.381
 -0.380  -0.374  -0.373  -0.369  -0.362  -0.360  -0.359  -0.358
 -0.356  -0.353  -0.352  -0.351  -0.348  -0.347  -0.344  -0.344
 -0.342  -0.338  -0.335  -0.334  -0.328  -0.325  -0.324  -0.322
 -0.318  -0.317  -0.314  -0.311  -0.306  -0.305  -0.303  -0.300
 -0.296  -0.293  -0.293  -0.291  -0.288  -0.287  -0.280  -0.277
 -0.277  -0.271  -0.266  -0.261  -0.258  -0.256  -0.254  -0.250
 -0.244  -0.241  -0.234  -0.228  -0.199  -0.193

          Ground-State Mulliken Net Atomic Charges

     Atom                 Charge (a.u.)
  ----------------------------------------
      1 C                     0.254780
      2 C                    -0.111700
      3 N                    -0.470187
      4 C                    -0.046725
      5 C                     0.074955
      6 C                     0.008550
      7 C                     0.021544
      8 C                     0.054981
      9 C                     0.239063
     10 N                    -0.541442
     11 N                    -0.541026
     12 C                     0.199985
     13 C                     0.317276
     14 S                     0.600305
     15 N                    -0.551444
     16 C                    -0.235131
     17 S                     0.327465
     18 C                    -0.094778
     19 C                    -0.206060
     20 S                     0.305151
     21 C                     0.101714
     22 C                     0.088836
     23 C                    -0.314824
     24 C                    -0.062620
     25 N                    -0.452590
     26 S                     0.254342
     27 C                     0.113480
     28 C                    -0.305782
     29 C                    -0.235944
     30 H                     0.093409
     31 H                     0.119947
     32 H                     0.105681
     33 H                     0.122120
     34 H                     0.122402
     35 H                     0.129912
     36 H                     0.116995
     37 H                     0.138911
     38 H                     0.112627
     39 C                    -0.192344
     40 H                     0.125423
     41 H                     0.092576
     42 H                     0.098954
     43 C                    -0.170305
     44 H                     0.099424
     45 C                    -0.176475
     46 H                     0.095020
     47 H                     0.085189
     48 H                     0.092917
     49 C                    -0.182824
     50 H                     0.092168
     51 C                    -0.320924
     52 H                     0.089148
     53 H                     0.107952
     54 H                     0.103371
     55 H                     0.103421
     56 C                     0.262812
     57 C                    -0.104549
     58 N                    -0.475458
     59 C                    -0.077561
     60 C                     0.050359
     61 C                     0.073998
     62 C                     0.032989
     63 C                     0.041678
     64 C                     0.218904
     65 N                    -0.509453
     66 N                    -0.563047
     67 C                     0.226476
     68 C                     0.281953
     69 S                     0.610811
     70 N                    -0.553241
     71 C                    -0.205370
     72 S                     0.331946
     73 C                    -0.146585
     74 C                    -0.231871
     75 S                     0.269085
     76 C                     0.201619
     77 C                     0.068127
     78 C                    -0.312192
     79 C                    -0.085316
     80 N                    -0.428306
     81 S                     0.280663
     82 C                     0.124962
     83 C                    -0.315591
     84 C                    -0.238734
     85 H                     0.089883
     86 H                     0.115448
     87 H                     0.089792
     88 H                     0.122280
     89 H                     0.128932
     90 H                     0.108100
     91 H                     0.120542
     92 H                     0.135981
     93 H                     0.121938
     94 C                    -0.193228
     95 H                     0.114443
     96 H                     0.107204
     97 H                     0.090807
     98 C                    -0.174998
     99 H                     0.087694
    100 C                    -0.169732
    101 H                     0.090016
    102 H                     0.091373
    103 H                     0.089676
    104 C                    -0.178019
    105 H                     0.099099
    106 C                    -0.323778
    107 H                     0.099588
    108 H                     0.102969
    109 H                     0.108875
    110 H                     0.099144
  ----------------------------------------
  Sum of atomic charges =     0.000000

                    Cartesian Multipole Moments
 -----------------------------------------------------------------
    Charge (ESU x 10^10)
                 0.0000
    Dipole Moment (Debye)
         X      -0.5704      Y      -3.6657      Z       2.6060
       Tot       4.5337
    Quadrupole Moments (Debye-Ang)
        XX    -402.7383     XY     -15.9460     YY    -431.2876
        XZ      18.4661     YZ       1.6243     ZZ    -433.1365

 Total job time:  89.94s(wall), 971.87s(cpu)
        *  Thank you very much for using Q-Chem.  Have a nice day.  *
