 Q-Chem 4.4, Q-Chem, Inc., Pleasanton, CA (2016)
 Q-Chem 4.4.2 for Intel X86 Linux

User input:
--------------------------------------------------------------
$comment
SP
$end

$rem
MEM_STATIC 5000
MEM_TOTAL 20000
JOBTYPE SP
EXCHANGE B3LYP
BASIS 6-31g(d,p)
$end

$molecule
0 1
C          -7.523000    -19.074000     -6.136000
C          -7.191000    -17.930000     -5.412000
N          -8.624000    -19.853000     -5.964000
C          -8.131000    -17.585000     -4.434000
C          -9.495000    -19.473000     -4.994000
C          -9.242000    -18.377000     -4.176000
C         -10.038000    -18.111000     -2.950000
C          -9.434000    -17.608000     -1.768000
C         -11.403000    -18.338000     -2.866000
N         -10.059000    -17.377000     -0.605000
N         -12.195000    -18.818000     -3.928000
C         -12.062000    -18.123000     -1.639000
C         -11.380000    -17.669000     -0.501000
S         -13.681000    -18.924000     -3.275000
N         -13.397000    -18.412000     -1.725000
C         -12.014000    -17.513000      0.835000
S         -13.626000    -18.049000      1.293000
C         -11.486000    -16.916000      1.969000
C         -13.404000    -17.611000      2.995000
S          -9.981000    -16.067000      2.038000
C         -12.178000    -17.028000      3.175000
C         -14.408000    -17.628000      4.006000
C         -10.272000    -15.830000      3.745000
C         -11.509000    -16.359000      4.197000
N         -15.590000    -18.161000      3.608000
S         -14.254000    -17.470000      5.748000
C         -16.440000    -18.257000      4.620000
C         -15.936000    -17.903000      5.822000
C          -6.670000    -19.506000     -7.306000
H          -6.278000    -17.403000     -5.669000
H          -7.871000    -16.779000     -3.754000
H         -10.315000    -20.171000     -4.834000
H          -8.368000    -17.385000     -1.777000
H          -9.579000    -15.253000      4.344000
H         -11.922000    -16.149000      5.177000
H         -17.451000    -18.575000      4.401000
H         -16.389000    -17.962000      6.803000
H          -7.303000    -19.678000     -8.186000
C          -5.837000    -20.798000     -6.999000
H          -5.976000    -18.722000     -7.634000
H          -5.298000    -20.610000     -6.062000
H          -5.035000    -20.781000     -7.748000
C          -6.637000    -22.094000     -7.038000
H          -6.039000    -22.919000     -6.630000
C          -6.913000    -22.470000     -8.524000
H          -7.571000    -22.075000     -6.463000
H          -6.015000    -22.452000     -9.154000
H          -7.440000    -21.678000     -9.070000
C          -7.688000    -23.802000     -8.671000
H          -7.230000    -24.666000     -8.173000
C          -7.769000    -24.080000    -10.196000
H          -8.698000    -23.682000     -8.260000
H          -8.288000    -25.025000    -10.398000
H          -6.812000    -24.070000    -10.732000
H          -8.406000    -23.391000    -10.765000
C         -12.028000    -20.527000     10.409000
C         -12.957000    -20.288000      9.353000
N         -10.745000    -20.847000     10.165000
C         -12.511000    -20.273000      8.029000
C         -10.402000    -20.856000      8.846000
C         -11.221000    -20.640000      7.702000
C         -10.709000    -20.498000      6.280000
C          -9.360000    -20.157000      5.987000
C         -11.483000    -20.833000      5.131000
N          -8.839000    -20.113000      4.756000
N         -12.751000    -21.347000      5.209000
C         -10.964000    -20.750000      3.849000
C          -9.583000    -20.370000      3.695000
S         -13.229000    -21.524000      3.628000
N         -11.832000    -21.144000      2.890000
C          -8.942000    -20.150000      2.325000
S          -9.490000    -20.512000      0.619000
C          -7.947000    -19.222000      2.131000
C          -7.976000    -19.917000     -0.027000
S          -7.226000    -18.135000      3.415000
C          -7.433000    -19.092000      0.872000
C          -7.524000    -20.152000     -1.388000
C          -6.052000    -17.650000      2.096000
C          -6.339000    -18.210000      0.849000
N          -8.390000    -20.883000     -2.073000
S          -5.975000    -19.928000     -2.019000
C          -7.759000    -21.390000     -3.195000
C          -6.394000    -21.157000     -3.250000
C         -12.439000    -20.300000     11.878000
H         -13.977000    -20.058000      9.648000
H         -13.174000    -20.093000      7.187000
H          -9.363000    -21.130000      8.669000
H          -8.598000    -20.106000      6.763000
H          -5.405000    -16.800000      2.269000
H          -5.819000    -17.947000     -0.065000
H          -8.282000    -21.936000     -3.969000
H          -5.707000    -21.560000     -3.982000
H         -11.672000    -20.597000     12.604000
C         -13.732000    -21.117000     12.312000
H         -12.549000    -19.226000     12.073000
H         -13.482000    -22.185000     12.300000
H         -14.621000    -20.968000     11.686000
C         -14.074000    -20.678000     13.761000
H         -13.238000    -21.043000     14.371000
C         -15.366000    -21.219000     14.259000
H         -14.028000    -19.582000     13.764000
H         -15.437000    -22.304000     14.115000
H         -16.060000    -20.695000     13.590000
C         -15.644000    -20.761000     15.727000
H         -14.731000    -20.932000     16.312000
C         -16.949000    -21.532000     16.205000
H         -15.940000    -19.708000     15.647000
H         -16.656000    -22.578000     16.352000
H         -17.776000    -21.555000     15.484000
H         -17.190000    -21.170000     17.212000
$end

--------------------------------------------------------------

             Standard Nuclear Orientation (Angstroms)
    I     Atom           X                Y                Z
 ----------------------------------------------------------------
    1      C      -8.5493726936    -0.0509808145    -0.5286008337
    2      C      -7.9716427139    -0.2002897986    -1.7883908551
    3      N      -8.0189846425     0.6092303878     0.5350888220
    4      C      -6.7282463960     0.4287261377    -1.9203512597
    5      C      -6.8063448015     1.1913767465     0.3492092017
    6      C      -6.1137390920     1.0655194804    -0.8502933118
    7      C      -4.6871799303     1.4601785351    -0.9792165008
    8      C      -3.7778806888     0.7082403113    -1.7683380358
    9      C      -4.1441864474     2.5661049406    -0.3436892684
   10      N      -2.4692562627     0.9603407904    -1.9115248370
   11      N      -4.8762868599     3.4531405656     0.4703775508
   12      C      -2.7639507102     2.8221928063    -0.4677993598
   13      C      -1.9230993069     1.9992161201    -1.2306638902
   14      S      -3.7560775616     4.5214446445     0.9700759828
   15      N      -2.3915523731     3.9362201007     0.2346283345
   16      C      -0.4495104335     2.1781399875    -1.3184709605
   17      S       0.5264500975     3.2785647117    -0.3529812048
   18      C       0.4415091242     1.5403211284    -2.1672466970
   19      C       2.0543128400     2.6742502858    -1.0150775079
   20      S       0.0003019716     0.4673050846    -3.4496506186
   21      C       1.8102269881     1.7238375743    -1.9703276190
   22      C       3.3472024526     3.2289652581    -0.7889055620
   23      C       1.7061846841     0.2488336596    -3.7609919232
   24      C       2.5485039824     1.0214922299    -2.9196769208
   25      N       3.3718452240     4.2278871664     0.1282447828
   26      S       4.9332685351     2.5788536202    -1.1696853412
   27      C       4.6123444022     4.6196778510     0.3802801938
   28      C       5.5732012230     3.9002908782    -0.2388906657
   29      C      -9.9443166333    -0.5694518757    -0.2669671900
   30      H      -8.5200633401    -0.7501132683    -2.5462008371
   31      H      -6.1704340107     0.2452003929    -2.8340249672
   32      H      -6.3824441696     1.6335838612     1.2491898248
   33      H      -4.1483116650    -0.1586455763    -2.3137330758
   34      H       2.0378585444    -0.3678256739    -4.5866448266
   35      H       3.6125425939     1.1383870413    -3.0906343316
   36      H       4.7488242861     5.4804199894     1.0219204454
   37      H       6.6493300507     3.9629267261    -0.1436305122
   38      H     -10.5567944563     0.2199452663     0.1873411508
   39      C      -9.9523256287    -1.8359706829     0.6567578594
   40      H     -10.4822755893    -0.8169188663    -1.1906750715
   41      H      -9.2540258914    -2.5553492474     0.2109933949
   42      H     -10.9299939094    -2.2969886896     0.4667022616
   43      C      -9.7278617404    -1.5454208663     2.1353834939
   44      H      -9.5563343959    -2.4815703658     2.6820968417
   45      C     -11.0337008079    -0.9429089096     2.7333062915
   46      H      -8.8683082573    -0.8990078975     2.3513929462
   47      H     -11.9323052209    -1.5272781978     2.4995315200
   48      H     -11.3594801638    -0.0357305841     2.2098520938
   49      C     -10.9196123873    -0.6513477819     4.2493649781
   50      H     -10.6160523275    -1.5057438094     4.8675257325
   51      C     -12.3277855015    -0.1762686334     4.6974925079
   52      H     -10.1872936105     0.1492153409     4.4113183528
   53      H     -12.3492039572     0.0350432997     5.7736330734
   54      H     -13.1582697930    -0.8460910103     4.4427792869
   55      H     -12.6385756102     0.8015719508     4.3082775283
   56      C       8.5250833963    -1.9226177760     0.5217245063
   57      C       7.8521186184    -0.6774018249     0.7002003952
   58      N       7.8546168426    -3.0856227875     0.4447898347
   59      C       6.4556079277    -0.6369629944     0.6847216461
   60      C       6.4977572426    -2.9635803433     0.4838880151
   61      C       5.7043062674    -1.7947987034     0.6586393476
   62      C       4.1943373835    -1.7387597922     0.5128806082
   63      C       3.4614473176    -2.7247173931    -0.2031436655
   64      C       3.3756775284    -0.7912193769     1.1936633952
   65      N       2.1269979645    -2.7712837016    -0.2793965550
   66      N       3.8772270959     0.1354386248     2.0699378836
   67      C       1.9943437708    -0.8064829785     1.0866210084
   68      C       1.3815256430    -1.8530022345     0.3091067711
   69      S       2.5529468129     1.0137902596     2.5538326426
   70      N       1.3858034343     0.1429323539     1.8326975362
   71      C      -0.1228994451    -1.9021794952     0.0436491448
   72      S      -1.5424789140    -0.9826657164     0.7372430766
   73      C      -0.6363729518    -2.4118903415    -1.1248476720
   74      C      -2.6611087069    -1.9156101647    -0.2332305411
   75      S       0.3342814791    -3.1065976723    -2.5123914372
   76      C      -1.9939444622    -2.4145912103    -1.2770623219
   77      C      -4.0967750666    -1.9514977947    -0.0109150409
   78      C      -1.3017661275    -3.5562711539    -3.2011613473
   79      C      -2.3809460309    -3.0828238372    -2.4513637918
   80      N      -4.4516295551    -1.2048554288     1.0235633153
   81      S      -5.2167223358    -3.0435407693    -0.6440803083
   82      C      -5.7263454853    -1.5672723914     1.4208632555
   83      C      -6.2420278940    -2.6806322357     0.7766268777
   84      C      10.0481747484    -1.9607959209     0.2826718713
   85      H       8.4798586454     0.2062592559     0.7737568555
   86      H       5.8923737347     0.2835667847     0.8124916334
   87      H       5.9740178793    -3.9170357596     0.4334316129
   88      H       3.9309984174    -3.6347234213    -0.5730514828
   89      H      -1.3522029738    -3.9030489615    -4.2249969184
   90      H      -3.4150840062    -3.1588015847    -2.7671976564
   91      H      -6.2802577137    -1.0339580138     2.1820977909
   92      H      -7.1683642023    -3.1848581902     1.0171663354
   93      H      10.4657794155    -2.9745692464     0.2446720476
   94      C      10.8900144018    -1.2283643661     1.4151664698
   95      H      10.2790301481    -1.5700391492    -0.7161353822
   96      H      10.7833920866    -1.8005742719     2.3449382190
   97      H      10.6066763859    -0.1882317526     1.6206943638
   98      C      12.3727229739    -1.2507187605     0.9565145634
   99      H      12.6571083284    -2.3104691273     0.9731016100
  100      C      13.2769457433    -0.4482989482     1.8216461303
  101      H      12.3700600928    -0.9283743586    -0.0920215569
  102      H      13.1557330022    -0.6990215874     2.8825172957
  103      H      12.8900991651     0.5577100347     1.6165396914
  104      C      14.7558315277    -0.5271866131     1.3229021348
  105      H      14.9922348756    -1.5825504626     1.1348712802
  106      C      15.6435511328     0.2168475984     2.4111654278
  107      H      14.7915590837     0.1106757741     0.4314538094
  108      H      15.6718820835    -0.4378115842     3.2899103919
  109      H      15.2481503714     1.1758303679     2.7693682833
  110      H      16.6756432213     0.2231583717     2.0397894795
 ----------------------------------------------------------------

   10   -5663.4947878465      4.12E-06 Convergence criterion met
 Total energy in the final basis set = -5663.4947878465

                    Orbital Energies (a.u.)
 --------------------------------------------------------------

 Alpha MOs
 -- Occupied --
-88.989 -88.986 -88.933 -88.930 -88.919 -88.913 -88.909 -88.905
-14.385 -14.384 -14.383 -14.378 -14.351 -14.346 -14.339 -14.336
-14.332 -14.332 -10.268 -10.267 -10.264 -10.263 -10.254 -10.253
-10.253 -10.252 -10.239 -10.239 -10.238 -10.237 -10.235 -10.232
-10.229 -10.229 -10.229 -10.228 -10.228 -10.228 -10.227 -10.226
-10.226 -10.225 -10.224 -10.224 -10.223 -10.221 -10.214 -10.213
-10.212 -10.203 -10.203 -10.203 -10.203 -10.203 -10.198 -10.195
-10.190 -10.186 -10.185 -10.184 -10.184 -10.180 -10.176 -10.176
-10.175 -10.174 -10.174 -10.169  -8.044  -8.040  -7.994  -7.991
 -7.977  -7.971  -7.968  -7.963  -6.009  -6.005  -6.003  -6.002
 -6.000  -5.998  -5.957  -5.955  -5.954  -5.952  -5.951  -5.948
 -5.942  -5.938  -5.935  -5.934  -5.933  -5.932  -5.929  -5.927
 -5.927  -5.925  -5.924  -5.919  -1.029  -1.023  -0.973  -0.970
 -0.962  -0.957  -0.939  -0.935  -0.916  -0.911  -0.894  -0.893
 -0.844  -0.838  -0.829  -0.828  -0.810  -0.809  -0.807  -0.806
 -0.805  -0.803  -0.801  -0.793  -0.784  -0.778  -0.767  -0.764
 -0.751  -0.746  -0.744  -0.737  -0.717  -0.713  -0.707  -0.705
 -0.693  -0.690  -0.673  -0.672  -0.654  -0.650  -0.648  -0.642
 -0.634  -0.630  -0.627  -0.622  -0.613  -0.605  -0.601  -0.597
 -0.593  -0.591  -0.586  -0.582  -0.580  -0.576  -0.573  -0.570
 -0.543  -0.542  -0.540  -0.534  -0.526  -0.519  -0.518  -0.513
 -0.509  -0.506  -0.499  -0.491  -0.488  -0.486  -0.479  -0.477
 -0.471  -0.469  -0.468  -0.464  -0.462  -0.459  -0.452  -0.450
 -0.445  -0.444  -0.440  -0.435  -0.435  -0.432  -0.431  -0.430
 -0.428  -0.425  -0.425  -0.422  -0.419  -0.415  -0.413  -0.411
 -0.410  -0.404  -0.402  -0.399  -0.397  -0.396  -0.395  -0.393
 -0.392  -0.390  -0.388  -0.387  -0.386  -0.385  -0.385  -0.381
 -0.380  -0.377  -0.374  -0.373  -0.361  -0.361  -0.358  -0.354
 -0.352  -0.350  -0.347  -0.346  -0.344  -0.343  -0.341  -0.341
 -0.337  -0.336  -0.334  -0.333  -0.331  -0.327  -0.326  -0.319
 -0.316  -0.311  -0.308  -0.307  -0.304  -0.299  -0.298  -0.296
 -0.296  -0.294  -0.293  -0.292  -0.287  -0.283  -0.282  -0.279
 -0.278  -0.270  -0.265  -0.262  -0.258  -0.256  -0.255  -0.246
 -0.240  -0.238  -0.230  -0.227  -0.192  -0.188

          Ground-State Mulliken Net Atomic Charges

     Atom                 Charge (a.u.)
  ----------------------------------------
      1 C                     0.286004
      2 C                    -0.107495
      3 N                    -0.490243
      4 C                    -0.098718
      5 C                     0.088595
      6 C                     0.062719
      7 C                     0.049169
      8 C                     0.062081
      9 C                     0.203824
     10 N                    -0.534146
     11 N                    -0.553363
     12 C                     0.226525
     13 C                     0.323196
     14 S                     0.620266
     15 N                    -0.573154
     16 C                    -0.201083
     17 S                     0.360740
     18 C                    -0.155525
     19 C                    -0.255488
     20 S                     0.315601
     21 C                     0.190833
     22 C                     0.042777
     23 C                    -0.298262
     24 C                    -0.111930
     25 N                    -0.431761
     26 S                     0.279069
     27 C                     0.147135
     28 C                    -0.328199
     29 C                    -0.234301
     30 H                     0.100023
     31 H                     0.094913
     32 H                     0.124476
     33 H                     0.100890
     34 H                     0.126439
     35 H                     0.111278
     36 H                     0.114050
     37 H                     0.129866
     38 H                     0.119973
     39 C                    -0.183667
     40 H                     0.084574
     41 H                     0.074961
     42 H                     0.092830
     43 C                    -0.171420
     44 H                     0.081296
     45 C                    -0.171470
     46 H                     0.124854
     47 H                     0.085245
     48 H                     0.095733
     49 C                    -0.173889
     50 H                     0.095246
     51 C                    -0.329026
     52 H                     0.102793
     53 H                     0.092092
     54 H                     0.102378
     55 H                     0.102102
     56 C                     0.261654
     57 C                    -0.106929
     58 N                    -0.476848
     59 C                    -0.086582
     60 C                     0.047704
     61 C                     0.073908
     62 C                     0.029678
     63 C                     0.043992
     64 C                     0.222052
     65 N                    -0.509360
     66 N                    -0.571068
     67 C                     0.230625
     68 C                     0.285030
     69 S                     0.624920
     70 N                    -0.557144
     71 C                    -0.201684
     72 S                     0.323838
     73 C                    -0.134322
     74 C                    -0.236388
     75 S                     0.260437
     76 C                     0.227549
     77 C                     0.060758
     78 C                    -0.300950
     79 C                    -0.087313
     80 N                    -0.437278
     81 S                     0.264544
     82 C                     0.129354
     83 C                    -0.318806
     84 C                    -0.238220
     85 H                     0.084054
     86 H                     0.129514
     87 H                     0.090966
     88 H                     0.115253
     89 H                     0.121862
     90 H                     0.099322
     91 H                     0.126829
     92 H                     0.138976
     93 H                     0.121122
     94 C                    -0.192013
     95 H                     0.111933
     96 H                     0.107713
     97 H                     0.089529
     98 C                    -0.175165
     99 H                     0.087702
    100 C                    -0.169500
    101 H                     0.089062
    102 H                     0.091770
    103 H                     0.088795
    104 C                    -0.177501
    105 H                     0.098987
    106 C                    -0.324048
    107 H                     0.099080
    108 H                     0.103296
    109 H                     0.108782
    110 H                     0.099123
  ----------------------------------------
  Sum of atomic charges =     0.000000

                    Cartesian Multipole Moments
 -----------------------------------------------------------------
    Charge (ESU x 10^10)
                 0.0000
    Dipole Moment (Debye)
         X      -0.3160      Y       0.7972      Z      -2.6040
       Tot       2.7415
    Quadrupole Moments (Debye-Ang)
        XX    -398.1231     XY      30.4910     YY    -451.7205
        XZ      10.6281     YZ      13.2504     ZZ    -434.5477

 Total job time:  116.44s(wall), 1245.31s(cpu)
        *  Thank you very much for using Q-Chem.  Have a nice day.  *
