 Q-Chem 4.4, Q-Chem, Inc., Pleasanton, CA (2016)
 Q-Chem 4.4.2 for Intel X86 Linux

User input:
--------------------------------------------------------------
$comment
SP
$end

$rem
MEM_STATIC 5000
MEM_TOTAL 20000
JOBTYPE SP
EXCHANGE B3LYP
BASIS 6-31g(d,p)
$end

$molecule
0 1
C          -3.082000    -19.429000      2.031000
C          -2.945000    -19.654000      0.586000
N          -2.855000    -18.261000      2.564000
C          -2.403000    -18.632000     -0.224000
C          -2.622000    -17.234000      1.789000
C          -2.374000    -17.362000      0.381000
C          -1.903000    -16.192000     -0.343000
C          -0.806000    -16.340000     -1.207000
C          -2.473000    -14.936000     -0.346000
N          -0.173000    -15.239000     -1.722000
N          -3.574000    -14.635000      0.425000
C          -1.879000    -13.808000     -0.831000
C          -0.678000    -13.961000     -1.587000
S          -3.848000    -13.033000      0.217000
N          -2.521000    -12.647000     -0.614000
C           0.141000    -12.787000     -1.899000
S          -0.164000    -11.054000     -1.468000
C           1.370000    -12.841000     -2.571000
C           1.516000    -10.648000     -1.932000
S           2.121000    -14.156000     -3.340000
C           2.181000    -11.768000     -2.389000
C           2.062000     -9.378000     -1.584000
C           3.625000    -13.302000     -3.366000
C           3.474000    -12.002000     -2.941000
N           3.271000     -9.058000     -1.921000
S           1.219000     -8.168000     -0.603000
C           3.527000     -7.785000     -1.407000
C           2.593000     -7.212000     -0.655000
C          -3.701000    -20.529000      2.906000
H          -3.215000    -20.619000      0.169000
H          -2.141000    -18.846000     -1.255000
H          -2.412000    -16.289000      2.287000
H          -0.257000    -17.257000     -1.416000
H           4.527000    -13.729000     -3.786000
H           4.227000    -11.232000     -3.067000
H           4.468000     -7.312000     -1.654000
H           2.508000     -6.223000     -0.224000
H          -2.914000    -21.147000      3.357000
C          -4.913000    -21.289000      2.326000
H          -4.069000    -20.063000      3.829000
H          -4.522000    -21.906000      1.508000
H          -5.589000    -20.610000      1.792000
C          -5.820000    -22.070000      3.344000
H          -5.117000    -22.725000      3.872000
C          -6.871000    -22.909000      2.554000
H          -6.288000    -21.437000      4.108000
H          -6.409000    -23.715000      1.970000
H          -7.435000    -22.250000      1.883000
C          -7.777000    -23.646000      3.546000
H          -7.215000    -24.294000      4.229000
C          -8.841000    -24.450000      2.740000
H          -8.416000    -22.942000      4.094000
H          -8.287000    -25.146000      2.098000
H          -9.422000    -23.705000      2.184000
H          -9.544000    -24.975000      3.399000
C         -12.028000    -20.527000     10.409000
C         -12.957000    -20.288000      9.353000
N         -10.745000    -20.847000     10.165000
C         -12.511000    -20.273000      8.029000
C         -10.402000    -20.856000      8.846000
C         -11.221000    -20.640000      7.702000
C         -10.709000    -20.498000      6.280000
C          -9.360000    -20.157000      5.987000
C         -11.483000    -20.833000      5.131000
N          -8.839000    -20.113000      4.756000
N         -12.751000    -21.347000      5.209000
C         -10.964000    -20.750000      3.849000
C          -9.583000    -20.370000      3.695000
S         -13.229000    -21.524000      3.628000
N         -11.832000    -21.144000      2.890000
C          -8.942000    -20.150000      2.325000
S          -9.490000    -20.512000      0.619000
C          -7.947000    -19.222000      2.131000
C          -7.976000    -19.917000     -0.027000
S          -7.226000    -18.135000      3.415000
C          -7.433000    -19.092000      0.872000
C          -7.524000    -20.152000     -1.388000
C          -6.052000    -17.650000      2.096000
C          -6.339000    -18.210000      0.849000
N          -8.390000    -20.883000     -2.073000
S          -5.975000    -19.928000     -2.019000
C          -7.759000    -21.390000     -3.195000
C          -6.394000    -21.157000     -3.250000
C         -12.439000    -20.300000     11.878000
H         -13.977000    -20.058000      9.648000
H         -13.174000    -20.093000      7.187000
H          -9.363000    -21.130000      8.669000
H          -8.598000    -20.106000      6.763000
H          -5.405000    -16.800000      2.269000
H          -5.819000    -17.947000     -0.065000
H          -8.282000    -21.936000     -3.969000
H          -5.707000    -21.560000     -3.982000
H         -11.672000    -20.597000     12.604000
C         -13.732000    -21.117000     12.312000
H         -12.549000    -19.226000     12.073000
H         -13.482000    -22.185000     12.300000
H         -14.621000    -20.968000     11.686000
C         -14.074000    -20.678000     13.761000
H         -13.238000    -21.043000     14.371000
C         -15.366000    -21.219000     14.259000
H         -14.028000    -19.582000     13.764000
H         -15.437000    -22.304000     14.115000
H         -16.060000    -20.695000     13.590000
C         -15.644000    -20.761000     15.727000
H         -14.731000    -20.932000     16.312000
C         -16.949000    -21.532000     16.205000
H         -15.940000    -19.708000     15.647000
H         -16.656000    -22.578000     16.352000
H         -17.776000    -21.555000     15.484000
H         -17.190000    -21.170000     17.212000
$end

--------------------------------------------------------------

             Standard Nuclear Orientation (Angstroms)
    I     Atom           X                Y                Z
 ----------------------------------------------------------------
    1      C      -1.2873482000    -1.2216585193    -2.8040844879
    2      C      -2.0743021047    -2.3963242115    -2.4062364475
    3      N      -1.6970512881    -0.0094969828    -2.5537850891
    4      C      -3.3743772402    -2.2130479609    -1.8860802614
    5      C      -2.7671201318     0.1706374437    -1.8243008479
    6      C      -3.6556369139    -0.8991240567    -1.4686320971
    7      C      -4.9286546309    -0.5592625175    -0.8531347160
    8      C      -6.0926700796    -1.1670565411    -1.3505917093
    9      C      -5.1261676871     0.2490065033     0.2469265472
   10      N      -7.3296040185    -0.7089238167    -0.9788070437
   11      N      -4.0824789626     0.8957302492     0.8711903077
   12      C      -6.3323056968     0.7432709161     0.6486463398
   13      C      -7.5060319325     0.2198729457     0.0275446668
   14      S      -4.7594648393     1.8270530273     2.0369827445
   15      N      -6.3141540670     1.6357445803     1.6538006947
   16      C      -8.7933101282     0.8926615841     0.2189899458
   17      S      -9.1574560048     2.3682551257     1.2049394783
   18      C      -9.9863620898     0.5006583347    -0.4038274186
   19      C     -10.7622042194     2.4892809231     0.4222084106
   20      S     -10.3122990239    -0.8818143190    -1.3350209951
   21      C     -10.9479701144     1.4559391126    -0.4739889644
   22      C     -11.5418048032     3.6723791822     0.5791206123
   23      C     -11.7638544603    -0.1557939417    -1.9332594314
   24      C     -12.0344908208     1.0317739572    -1.2930528663
   25      N     -12.7113987308     3.7765144088     0.0324434690
   26      S     -10.9861453062     5.1243735965     1.4276868997
   27      C     -13.2008104314     5.0506863601     0.3277789150
   28      C     -12.4102554421     5.8890532055     0.9898611165
   29      C       0.1382718368    -1.4202958251    -3.3397492446
   30      H      -1.6660612016    -3.3895451792    -2.5639243494
   31      H      -4.0240344868    -3.0713363130    -1.7493777862
   32      H      -3.0798901846     1.2017930784    -1.6693106837
   33      H      -6.1566769324    -1.8945590737    -2.1584371078
   34      H     -12.4174496727    -0.6590974855    -2.6345666687
   35      H     -12.9841584911     1.5513458027    -1.3559926253
   36      H     -14.2076719006     5.2975643850     0.0187478122
   37      H     -12.5772822439     6.8725533632     1.4093089528
   38      H       0.1344978552    -1.4447836672    -4.4370550829
   39      C       1.0098007107    -2.4846571174    -2.6393804409
   40      H       0.6832257372    -0.4757639765    -3.2156773564
   41      H       0.5777643862    -3.4562118817    -2.9079320269
   42      H       0.8626197247    -2.4659557937    -1.5525681213
   43      C       2.5633894056    -2.3898892630    -2.8545901547
   44      H       2.6773922562    -2.3935167334    -3.9450066767
   45      C       3.2449908939    -3.6425497393    -2.2230181934
   46      H       3.0111871410    -1.4537533314    -2.4988715782
   47      H       2.9818346123    -4.5702743175    -2.7466706338
   48      H       2.9543171688    -3.7241640870    -1.1687573700
   49      C       4.7629048815    -3.5358336643    -2.4036221954
   50      H       5.0564274986    -3.4382365112    -3.4555519787
   51      C       5.4282247137    -4.7770545481    -1.7366377590
   52      H       5.1760200857    -2.7225110406    -1.7936360170
   53      H       5.0180468310    -5.6607449024    -2.2409605349
   54      H       5.1724616682    -4.7187086749    -0.6722585861
   55      H       6.5229113811    -4.7409965491    -1.8035400823
   56      C      10.0213508962     3.0929612181    -0.5848987643
   57      C       9.9665874255     2.4082452109     0.6654863571
   58      N       9.1521305594     2.8284836591    -1.5761266024
   59      C       8.9209213354     1.5177096526     0.9217008134
   60      C       8.1914840961     1.9143816525    -1.2613776640
   61      C       8.0230728165     1.1621013216    -0.0647720712
   62      C       6.8182501469     0.2961009340     0.2559110484
   63      C       5.5665952660     0.4605451320    -0.3984964432
   64      C       6.8743623372    -0.8362628332     1.1196851628
   65      N       4.5069880291    -0.3357689436    -0.2200184430
   66      N       8.0325468684    -1.2657854798     1.7131688507
   67      C       5.7696865547    -1.6422670738     1.3428948844
   68      C       4.5544494127    -1.3481988537     0.6273534318
   69      S       7.5719616552    -2.5674174920     2.6367430849
   70      N       6.0231861396    -2.6892248413     2.1601821005
   71      C       3.2528455702    -2.1098710398     0.8760780149
   72      S       2.8582152382    -3.6359918849     1.8018242367
   73      C       2.0247229526    -1.5048629926     0.7555578967
   74      C       1.1787956207    -3.5313425550     1.3200200586
   75      S       1.7271653686     0.2387321225     0.2850246261
   76      C       0.9141621745    -2.2624269541     0.9983100387
   77      C       0.2257596137    -4.6206353635     1.4504560462
   78      C      -0.0379510131    -0.2486386925     0.2752344443
   79      C      -0.2662124727    -1.5568533739     0.7081883141
   80      N       0.7871788211    -5.7045956764     1.9636621584
   81      S      -1.2955813248    -4.7582925940     0.7333017840
   82      C      -0.0297600228    -6.7928404086     1.7138055431
   83      C      -1.1103819607    -6.5313090885     0.8865228853
   84      C      11.0095141533     4.2581277651    -0.7954487462
   85      H      10.7248538634     2.6738475814     1.3967950401
   86      H       8.8286181854     0.9723993331     1.8571417703
   87      H       7.5059106142     1.7046504101    -2.0810896908
   88      H       5.4459086924     1.1285796047    -1.2497224380
   89      H      -0.7869272580     0.5291804284     0.2040305132
   90      H      -1.2527368565    -1.9751630442     0.8717476608
   91      H       0.1593211625    -7.7773664278     2.1208409504
   92      H      -1.7993080542    -7.2630698950     0.4863867088
   93      H      11.0209100635     4.6502243480    -1.8199995761
   94      C      12.5235764372     3.8709798677    -0.5031716416
   95      H      10.6895457455     5.1291410275    -0.2101649563
   96      H      12.8452771994     3.1492742286    -1.2640379834
   97      H      12.7208922355     3.4355218168     0.4846748858
   98      C      13.3537418904     5.1755448653    -0.6381586303
   99      H      13.2853881885     5.4447380617    -1.6998006578
  100      C      14.7730701028     5.0251570115    -0.2224184241
  101      H      12.8098848514     5.9404751849    -0.0703187520
  102      H      15.2511393233     4.1644730470    -0.7058177764
  103      H      14.6364093395     4.8382921857     0.8500452688
  104      C      15.5606999304     6.3629969641    -0.4010115812
  105      H      15.3345104455     6.7563825299    -1.4005720414
  106      C      17.0857687927     6.0378946129    -0.0937276305
  107      H      15.2269370491     7.0038473155     0.4240570015
  108      H      17.4553183418     5.4494785921    -0.9415328660
  109      H      17.2685126676     5.4218957089     0.7959065789
  110      H      17.6383130760     6.9835421918    -0.1538896730
 ----------------------------------------------------------------

    9   -5663.4716021413      6.63E-06 Convergence criterion met
 Total energy in the final basis set = -5663.4716021413

                    Orbital Energies (a.u.)
 --------------------------------------------------------------

 Alpha MOs
 -- Occupied --
-88.992 -88.990 -88.934 -88.927 -88.919 -88.917 -88.907 -88.907
-14.390 -14.385 -14.384 -14.380 -14.353 -14.346 -14.343 -14.343
-14.333 -14.324 -10.273 -10.267 -10.265 -10.262 -10.259 -10.258
-10.250 -10.249 -10.245 -10.243 -10.242 -10.241 -10.241 -10.234
-10.234 -10.234 -10.233 -10.233 -10.232 -10.228 -10.228 -10.227
-10.226 -10.224 -10.224 -10.222 -10.222 -10.219 -10.216 -10.216
-10.216 -10.205 -10.205 -10.204 -10.200 -10.198 -10.198 -10.195
-10.190 -10.185 -10.184 -10.177 -10.176 -10.174 -10.174 -10.172
-10.170 -10.167 -10.166 -10.161  -8.047  -8.046  -7.995  -7.985
 -7.982  -7.976  -7.969  -7.964  -6.012  -6.011  -6.007  -6.005
 -6.005  -6.004  -5.959  -5.956  -5.952  -5.949  -5.946  -5.946
 -5.942  -5.941  -5.940  -5.939  -5.937  -5.933  -5.932  -5.929
 -5.929  -5.926  -5.925  -5.921  -1.041  -1.036  -0.978  -0.973
 -0.968  -0.954  -0.944  -0.936  -0.919  -0.916  -0.902  -0.900
 -0.849  -0.836  -0.833  -0.830  -0.822  -0.811  -0.810  -0.809
 -0.807  -0.797  -0.795  -0.793  -0.779  -0.777  -0.768  -0.764
 -0.749  -0.748  -0.739  -0.736  -0.728  -0.716  -0.707  -0.706
 -0.693  -0.689  -0.677  -0.673  -0.653  -0.651  -0.645  -0.644
 -0.634  -0.632  -0.625  -0.624  -0.609  -0.608  -0.599  -0.594
 -0.592  -0.591  -0.586  -0.582  -0.577  -0.572  -0.572  -0.562
 -0.552  -0.547  -0.540  -0.539  -0.526  -0.522  -0.518  -0.516
 -0.510  -0.508  -0.496  -0.494  -0.487  -0.483  -0.481  -0.476
 -0.474  -0.472  -0.469  -0.469  -0.465  -0.463  -0.453  -0.449
 -0.445  -0.443  -0.440  -0.438  -0.436  -0.433  -0.433  -0.431
 -0.425  -0.424  -0.423  -0.423  -0.418  -0.416  -0.414  -0.413
 -0.412  -0.406  -0.403  -0.403  -0.400  -0.399  -0.398  -0.398
 -0.395  -0.391  -0.388  -0.388  -0.387  -0.385  -0.384  -0.379
 -0.378  -0.373  -0.371  -0.369  -0.362  -0.361  -0.356  -0.354
 -0.353  -0.352  -0.349  -0.348  -0.346  -0.345  -0.342  -0.341
 -0.340  -0.336  -0.335  -0.330  -0.325  -0.318  -0.317  -0.316
 -0.312  -0.311  -0.310  -0.308  -0.305  -0.303  -0.300  -0.297
 -0.295  -0.293  -0.291  -0.290  -0.289  -0.289  -0.285  -0.284
 -0.275  -0.271  -0.264  -0.262  -0.257  -0.253  -0.251  -0.247
 -0.246  -0.241  -0.232  -0.227  -0.195  -0.189

          Ground-State Mulliken Net Atomic Charges

     Atom                 Charge (a.u.)
  ----------------------------------------
      1 C                     0.274307
      2 C                    -0.122911
      3 N                    -0.447377
      4 C                    -0.075608
      5 C                     0.084216
      6 C                     0.022413
      7 C                     0.002338
      8 C                     0.057906
      9 C                     0.216820
     10 N                    -0.514550
     11 N                    -0.548761
     12 C                     0.201079
     13 C                     0.288028
     14 S                     0.607790
     15 N                    -0.554142
     16 C                    -0.202258
     17 S                     0.321032
     18 C                    -0.140785
     19 C                    -0.243019
     20 S                     0.297734
     21 C                     0.171919
     22 C                     0.078248
     23 C                    -0.306211
     24 C                    -0.059143
     25 N                    -0.441392
     26 S                     0.260949
     27 C                     0.107244
     28 C                    -0.289214
     29 C                    -0.246127
     30 H                     0.095892
     31 H                     0.104332
     32 H                     0.107586
     33 H                     0.118537
     34 H                     0.131676
     35 H                     0.125872
     36 H                     0.105463
     37 H                     0.143343
     38 H                     0.106699
     39 C                    -0.187800
     40 H                     0.125276
     41 H                     0.083707
     42 H                     0.111195
     43 C                    -0.191950
     44 H                     0.084946
     45 C                    -0.166827
     46 H                     0.121818
     47 H                     0.086100
     48 H                     0.108465
     49 C                    -0.186006
     50 H                     0.091007
     51 C                    -0.323609
     52 H                     0.089808
     53 H                     0.096304
     54 H                     0.113616
     55 H                     0.089922
     56 C                     0.262397
     57 C                    -0.104590
     58 N                    -0.476139
     59 C                    -0.077170
     60 C                     0.048812
     61 C                     0.073853
     62 C                     0.034447
     63 C                     0.042623
     64 C                     0.217031
     65 N                    -0.508903
     66 N                    -0.563248
     67 C                     0.233811
     68 C                     0.284116
     69 S                     0.610708
     70 N                    -0.555355
     71 C                    -0.213242
     72 S                     0.321018
     73 C                    -0.129036
     74 C                    -0.227938
     75 S                     0.258876
     76 C                     0.193888
     77 C                     0.068068
     78 C                    -0.286535
     79 C                    -0.098017
     80 N                    -0.427715
     81 S                     0.277085
     82 C                     0.125641
     83 C                    -0.319492
     84 C                    -0.238771
     85 H                     0.089584
     86 H                     0.115549
     87 H                     0.091321
     88 H                     0.119509
     89 H                     0.145761
     90 H                     0.110877
     91 H                     0.119748
     92 H                     0.133532
     93 H                     0.121390
     94 C                    -0.192433
     95 H                     0.113864
     96 H                     0.107204
     97 H                     0.090760
     98 C                    -0.175223
     99 H                     0.087475
    100 C                    -0.169890
    101 H                     0.089844
    102 H                     0.091455
    103 H                     0.089790
    104 C                    -0.177499
    105 H                     0.098773
    106 C                    -0.324352
    107 H                     0.099543
    108 H                     0.103090
    109 H                     0.109042
    110 H                     0.099167
  ----------------------------------------
  Sum of atomic charges =     0.000000

                    Cartesian Multipole Moments
 -----------------------------------------------------------------
    Charge (ESU x 10^10)
                 0.0000
    Dipole Moment (Debye)
         X      -1.6323      Y      -0.1427      Z       2.0530
       Tot       2.6266
    Quadrupole Moments (Debye-Ang)
        XX    -402.6687     XY      -1.1577     YY    -410.4907
        XZ      16.3372     YZ      15.4044     ZZ    -447.2271

 Total job time:  94.69s(wall), 1042.11s(cpu)
        *  Thank you very much for using Q-Chem.  Have a nice day.  *
