 Q-Chem 4.4, Q-Chem, Inc., Pleasanton, CA (2016)
 Q-Chem 4.4.2 for Intel X86 Linux

User input:
--------------------------------------------------------------
$comment
SP
$end

$rem
MEM_STATIC 5000
MEM_TOTAL 20000
JOBTYPE SP
EXCHANGE B3LYP
BASIS 6-31g(d,p)
$end

$molecule
0 1
C         -12.812000    -25.938000      4.066000
C         -12.214000    -26.816000      3.159000
N         -13.654000    -24.975000      3.625000
C         -12.420000    -26.747000      1.794000
C         -13.869000    -24.796000      2.338000
C         -13.228000    -25.636000      1.356000
C         -13.353000    -25.219000     -0.033000
C         -13.731000    -26.071000     -1.048000
C         -13.070000    -23.881000     -0.493000
N         -13.800000    -25.734000     -2.391000
N         -12.737000    -22.836000      0.309000
C         -13.170000    -23.555000     -1.828000
C         -13.602000    -24.507000     -2.763000
S         -12.440000    -21.575000     -0.701000
N         -13.000000    -22.258000     -2.107000
C         -13.705000    -24.380000     -4.246000
S         -14.868000    -25.058000     -5.320000
C         -12.714000    -23.751000     -4.961000
C         -14.150000    -24.196000     -6.719000
S         -11.179000    -23.268000     -4.405000
C         -12.978000    -23.637000     -6.287000
C         -14.550000    -24.395000     -8.053000
C         -10.798000    -23.028000     -6.080000
C         -11.785000    -23.221000     -6.993000
N         -15.350000    -25.432000     -8.260000
S         -13.909000    -23.517000     -9.473000
C         -15.556000    -25.569000     -9.622000
C         -14.866000    -24.651000    -10.331000
C         -12.499000    -26.126000      5.522000
H         -11.562000    -27.632000      3.459000
H         -11.949000    -27.425000      1.088000
H         -14.577000    -23.992000      2.145000
H         -13.841000    -27.133000     -0.831000
H          -9.740000    -23.024000     -6.309000
H         -11.808000    -22.930000     -8.037000
H         -16.094000    -26.425000    -10.009000
H         -15.079000    -24.455000    -11.373000
H         -13.452000    -26.229000      6.055000
C         -11.840000    -24.750000      5.941000
H         -11.751000    -26.899000      5.740000
H         -12.407000    -23.846000      5.684000
H         -10.880000    -24.689000      5.414000
C         -11.568000    -24.717000      7.471000
H         -11.243000    -25.721000      7.772000
C         -12.835000    -24.316000      8.270000
H         -10.685000    -24.102000      7.685000
H         -13.709000    -24.792000      7.807000
H         -13.106000    -23.267000      8.097000
C         -12.833000    -24.471000      9.861000
H         -12.192000    -23.676000     10.260000
C         -12.426000    -25.830000     10.385000
H         -13.845000    -24.254000     10.225000
H         -11.453000    -26.202000     10.040000
H         -13.218000    -26.551000     10.146000
H         -12.394000    -25.845000     11.481000
C         -12.028000    -20.527000     10.409000
C         -12.957000    -20.288000      9.353000
N         -10.745000    -20.847000     10.165000
C         -12.511000    -20.273000      8.029000
C         -10.402000    -20.856000      8.846000
C         -11.221000    -20.640000      7.702000
C         -10.709000    -20.498000      6.280000
C          -9.360000    -20.157000      5.987000
C         -11.483000    -20.833000      5.131000
N          -8.839000    -20.113000      4.756000
N         -12.751000    -21.347000      5.209000
C         -10.964000    -20.750000      3.849000
C          -9.583000    -20.370000      3.695000
S         -13.229000    -21.524000      3.628000
N         -11.832000    -21.144000      2.890000
C          -8.942000    -20.150000      2.325000
S          -9.490000    -20.512000      0.619000
C          -7.947000    -19.222000      2.131000
C          -7.976000    -19.917000     -0.027000
S          -7.226000    -18.135000      3.415000
C          -7.433000    -19.092000      0.872000
C          -7.524000    -20.152000     -1.388000
C          -6.052000    -17.650000      2.096000
C          -6.339000    -18.210000      0.849000
N          -8.390000    -20.883000     -2.073000
S          -5.975000    -19.928000     -2.019000
C          -7.759000    -21.390000     -3.195000
C          -6.394000    -21.157000     -3.250000
C         -12.439000    -20.300000     11.878000
H         -13.977000    -20.058000      9.648000
H         -13.174000    -20.093000      7.187000
H          -9.363000    -21.130000      8.669000
H          -8.598000    -20.106000      6.763000
H          -5.405000    -16.800000      2.269000
H          -5.819000    -17.947000     -0.065000
H          -8.282000    -21.936000     -3.969000
H          -5.707000    -21.560000     -3.982000
H         -11.672000    -20.597000     12.604000
C         -13.732000    -21.117000     12.312000
H         -12.549000    -19.226000     12.073000
H         -13.482000    -22.185000     12.300000
H         -14.621000    -20.968000     11.686000
C         -14.074000    -20.678000     13.761000
H         -13.238000    -21.043000     14.371000
C         -15.366000    -21.219000     14.259000
H         -14.028000    -19.582000     13.764000
H         -15.437000    -22.304000     14.115000
H         -16.060000    -20.695000     13.590000
C         -15.644000    -20.761000     15.727000
H         -14.731000    -20.932000     16.312000
C         -16.949000    -21.532000     16.205000
H         -15.940000    -19.708000     15.647000
H         -16.656000    -22.578000     16.352000
H         -17.776000    -21.555000     15.484000
H         -17.190000    -21.170000     17.212000
$end

--------------------------------------------------------------

             Standard Nuclear Orientation (Angstroms)
    I     Atom           X                Y                Z
 ----------------------------------------------------------------
    1      C       1.7669724383    -3.1305489228    -2.3840131613
    2      C       0.7492850022    -3.1366604098    -3.3407847810
    3      N       1.4617606904    -3.1883499088    -1.0670777661
    4      C      -0.5931616056    -3.1791694344    -3.0145148193
    5      C       0.2101490647    -3.1757690048    -0.6572667619
    6      C      -0.8782516352    -3.1203965192    -1.6023185088
    7      C      -2.2042279935    -2.8861675157    -1.0493641967
    8      C      -3.3067545850    -3.6440554848    -1.3795973589
    9      C      -2.5053215529    -1.8234294127    -0.1209982167
   10      N      -4.5978065439    -3.4166247611    -0.9285551153
   11      N      -1.5900881743    -0.9718059899     0.4111703736
   12      C      -3.7891466049    -1.6277126646     0.3394246220
   13      C      -4.8232431395    -2.4937101813    -0.0450824107
   14      S      -2.4466194404     0.0871275454     1.3295624239
   15      N      -3.9133004951    -0.6899073605     1.2849705083
   16      C      -6.2778565859    -2.4125446658     0.2766921698
   17      S      -7.4025365944    -3.6838222869     0.5676854488
   18      C      -6.9313304292    -1.2038865322     0.2440662247
   19      C      -8.7014816950    -2.5106825367     0.9578825167
   20      S      -6.3515817847     0.2739766320    -0.3711264095
   21      C      -8.2285093490    -1.2673337194     0.6368375380
   22      C     -10.0415958508    -2.8713878273     1.1884096147
   23      C      -7.9926944880     0.8185315766    -0.2347628971
   24      C      -8.9026668370    -0.0282722342     0.3128324188
   25      N     -10.3561094501    -4.1228214140     0.8831012889
   26      S     -11.3579416188    -1.7483738077     1.6403369660
   27      C     -11.7203733969    -4.2904838313     1.0471811398
   28      C     -12.3271778435    -3.1454772447     1.4243459315
   29      C       3.1833087155    -3.0806681084    -2.8787377859
   30      H       0.9359854682    -3.1321561717    -4.4113372775
   31      H      -1.3847752393    -3.1762557402    -3.7583564458
   32      H       0.1293084945    -3.2381406430     0.4264784023
   33      H      -3.2170342070    -4.3881311129    -2.1703784370
   34      H      -8.2403437378     1.6730125403    -0.8514906585
   35      H      -9.9033938437     0.1904263419     0.6676033182
   36      H     -12.1969181793    -5.2139737404     0.7438323994
   37      H     -13.3336117505    -3.1351674655     1.8199890781
   38      H       3.7187041352    -3.9295487522    -2.4364026222
   39      C       3.7518203333    -1.7476140445    -2.2439311987
   40      H       3.2919060096    -2.9692217998    -3.9651738623
   41      H       3.6167165437    -1.6338257818    -1.1606245951
   42      H       3.2171869556    -0.9190119950    -2.7241767555
   43      C       5.2690121676    -1.6004388225    -2.5479729588
   44      H       5.4405179712    -1.9693055332    -3.5671712265
   45      C       6.1352702184    -2.4078758181    -1.5469067834
   46      H       5.5380450640    -0.5396323616    -2.6255677599
   47      H       5.6356495414    -3.3628137671    -1.3388354187
   48      H       6.0951615059    -1.9762985640    -0.5389864667
   49      C       7.6956966774    -2.5923508772    -1.8407574573
   50      H       8.1747808025    -1.6249026594    -1.6493695084
   51      C       8.0441932825    -3.1244820509    -3.2127970086
   52      H       8.1030323703    -3.2840898521    -1.0928912768
   53      H       7.6378275710    -2.5588004582    -4.0607411365
   54      H       7.7357959590    -4.1760054761    -3.2712399490
   55      H       9.1295752056    -3.1716040851    -3.3617620884
   56      C       8.6984635775     0.4069959129     0.7091135937
   57      C       7.6974134930    -0.1234592935     1.5761856795
   58      N       8.3924964251     1.2441598260    -0.2976463997
   59      C       6.3763181524     0.3158205154     1.4584684305
   60      C       7.0755039041     1.5869286910    -0.3720184693
   61      C       5.9821756607     1.1348200469     0.4194258599
   62      C       4.5777980923     1.7091452708     0.3718214229
   63      C       4.3014571653     3.0024974254    -0.1504877731
   64      C       3.4123003217     0.9587121237     0.7034342068
   65      N       3.0746807361     3.5134543083    -0.3010887572
   66      N       3.4528278882    -0.3629445580     1.0635524265
   67      C       2.1396382214     1.4946944032     0.5901726752
   68      C       2.0053234340     2.8290385254     0.0640906460
   69      S       1.8717421695    -0.7578565140     1.3854009891
   70      N       1.1574721223     0.6229510079     0.9122816731
   71      C       0.6594050082     3.5499530156    -0.0063855119
   72      S      -1.0666359643     2.9945340178     0.2261575980
   73      C       0.5589515753     4.9130509599     0.1375523290
   74      C      -1.6660192782     4.5932210132    -0.1591689306
   75      S       1.9499990522     6.0698932724     0.4146241272
   76      C      -0.6851266459     5.4722536340     0.0617977987
   77      C      -3.0540475281     4.8877232248    -0.4730096942
   78      C       0.6760973331     7.3712088119     0.2222331794
   79      C      -0.6233435168     6.8760426014     0.0909247577
   80      N      -3.8048611946     3.7972601220    -0.4463439928
   81      S      -3.6838872193     6.2882063941    -1.1727859841
   82      C      -4.9919385889     4.0548324437    -1.1086111286
   83      C      -5.0453707824     5.2815805980    -1.7510852267
   84      C      10.1919150213     0.1338992898     0.9800970243
   85      H       8.0379866239    -0.8096628725     2.3465489645
   86      H       5.5753293390    -0.0519160496     2.0941725595
   87      H       6.8463795671     2.2546761694    -1.2011995975
   88      H       5.0627926577     3.5926884090    -0.6578967511
   89      H       0.9373705037     8.3898540933     0.4774509706
   90      H      -1.5091071694     7.5007385296     0.0789769947
   91      H      -5.8155768780     3.3536952615    -1.1359537776
   92      H      -5.8339450023     5.6240904024    -2.4076213899
   93      H      10.8616387027     0.5198153178     0.2015644240
   94      C      10.5498070529    -1.4119984599     1.0791295500
   95      H      10.5168967120     0.6870039530     1.8700763119
   96      H      10.4044236426    -1.8610520257     0.0889363572
   97      H       9.9639261081    -1.9902144538     1.8049448039
   98      C      12.0475657817    -1.5006132987     1.4768130934
   99      H      12.5926115820    -1.0945384635     0.6152741774
  100      C      12.5021807255    -2.8819711798     1.7852359481
  101      H      12.1815560049    -0.7993753942     2.3096714375
  102      H      12.2300595987    -3.5882006764     0.9913896213
  103      H      11.9149161441    -3.0755872791     2.6915505278
  104      C      14.0198238577    -2.9094168907     2.1568245056
  105      H      14.5618901399    -2.3231490450     1.4035057424
  106      C      14.4271605122    -4.4394653469     2.2945872413
  107      H      14.0729947467    -2.5006125326     3.1731299977
  108      H      14.4413910688    -4.8502765298     1.2784151775
  109      H      13.7250649589    -5.0673835720     2.8576854003
  110      H      15.4749615374    -4.4691556232     2.6177056392
 ----------------------------------------------------------------

   10   -5663.4581328427      3.81E-06 Convergence criterion met
 Total energy in the final basis set = -5663.4581328427

                    Orbital Energies (a.u.)
 --------------------------------------------------------------

 Alpha MOs
 -- Occupied --
-88.989 -88.981 -88.936 -88.926 -88.920 -88.916 -88.910 -88.907
-14.386 -14.381 -14.379 -14.377 -14.351 -14.346 -14.341 -14.334
-14.334 -14.330 -10.272 -10.270 -10.260 -10.255 -10.254 -10.253
-10.252 -10.246 -10.244 -10.242 -10.237 -10.236 -10.236 -10.234
-10.234 -10.233 -10.232 -10.231 -10.231 -10.230 -10.229 -10.227
-10.225 -10.223 -10.221 -10.220 -10.218 -10.217 -10.216 -10.215
-10.212 -10.207 -10.205 -10.202 -10.201 -10.199 -10.197 -10.196
-10.191 -10.190 -10.185 -10.184 -10.176 -10.175 -10.174 -10.174
-10.173 -10.171 -10.170 -10.165  -8.043  -8.036  -7.997  -7.987
 -7.979  -7.974  -7.969  -7.968  -6.008  -6.002  -6.001  -6.001
 -5.996  -5.994  -5.962  -5.958  -5.954  -5.951  -5.948  -5.944
 -5.943  -5.940  -5.939  -5.935  -5.935  -5.933  -5.933  -5.931
 -5.930  -5.930  -5.925  -5.924  -1.032  -1.030  -0.976  -0.965
 -0.963  -0.959  -0.944  -0.937  -0.919  -0.918  -0.897  -0.895
 -0.849  -0.834  -0.833  -0.832  -0.812  -0.809  -0.806  -0.806
 -0.805  -0.801  -0.798  -0.797  -0.780  -0.779  -0.768  -0.765
 -0.750  -0.747  -0.740  -0.740  -0.722  -0.720  -0.707  -0.707
 -0.694  -0.688  -0.676  -0.668  -0.654  -0.652  -0.644  -0.641
 -0.634  -0.633  -0.628  -0.624  -0.610  -0.609  -0.601  -0.594
 -0.594  -0.589  -0.585  -0.583  -0.578  -0.577  -0.572  -0.553
 -0.549  -0.544  -0.538  -0.537  -0.522  -0.522  -0.518  -0.515
 -0.508  -0.508  -0.499  -0.495  -0.488  -0.486  -0.481  -0.479
 -0.473  -0.471  -0.469  -0.464  -0.463  -0.454  -0.447  -0.446
 -0.445  -0.443  -0.442  -0.437  -0.437  -0.435  -0.432  -0.427
 -0.426  -0.425  -0.423  -0.420  -0.419  -0.416  -0.412  -0.412
 -0.408  -0.407  -0.406  -0.403  -0.402  -0.398  -0.395  -0.393
 -0.392  -0.392  -0.389  -0.387  -0.387  -0.385  -0.382  -0.381
 -0.380  -0.375  -0.374  -0.370  -0.364  -0.363  -0.361  -0.357
 -0.353  -0.351  -0.349  -0.346  -0.344  -0.343  -0.342  -0.338
 -0.337  -0.336  -0.334  -0.328  -0.325  -0.325  -0.323  -0.318
 -0.314  -0.309  -0.307  -0.301  -0.300  -0.299  -0.299  -0.297
 -0.295  -0.293  -0.291  -0.290  -0.287  -0.286  -0.284  -0.281
 -0.275  -0.269  -0.265  -0.264  -0.258  -0.254  -0.249  -0.246
 -0.243  -0.238  -0.233  -0.232  -0.197  -0.188

          Ground-State Mulliken Net Atomic Charges

     Atom                 Charge (a.u.)
  ----------------------------------------
      1 C                     0.292994
      2 C                    -0.129261
      3 N                    -0.486497
      4 C                    -0.048466
      5 C                     0.109476
      6 C                    -0.015732
      7 C                     0.056088
      8 C                     0.024265
      9 C                     0.239044
     10 N                    -0.476968
     11 N                    -0.565137
     12 C                     0.192505
     13 C                     0.249527
     14 S                     0.630794
     15 N                    -0.547125
     16 C                    -0.182211
     17 S                     0.343080
     18 C                    -0.116458
     19 C                    -0.222295
     20 S                     0.282078
     21 C                     0.123077
     22 C                     0.065049
     23 C                    -0.305488
     24 C                    -0.070895
     25 N                    -0.439885
     26 S                     0.264466
     27 C                     0.123213
     28 C                    -0.303279
     29 C                    -0.219871
     30 H                     0.086155
     31 H                     0.109329
     32 H                     0.110848
     33 H                     0.106177
     34 H                     0.119698
     35 H                     0.110683
     36 H                     0.116975
     37 H                     0.119319
     38 H                     0.124336
     39 C                    -0.207845
     40 H                     0.107735
     41 H                     0.142810
     42 H                     0.086501
     43 C                    -0.175802
     44 H                     0.083460
     45 C                    -0.185921
     46 H                     0.087770
     47 H                     0.084770
     48 H                     0.103373
     49 C                    -0.189321
     50 H                     0.107152
     51 C                    -0.311435
     52 H                     0.088666
     53 H                     0.103889
     54 H                     0.097697
     55 H                     0.094540
     56 C                     0.265544
     57 C                    -0.102102
     58 N                    -0.478920
     59 C                    -0.081681
     60 C                     0.049023
     61 C                     0.080210
     62 C                     0.031385
     63 C                     0.042269
     64 C                     0.219302
     65 N                    -0.507485
     66 N                    -0.573918
     67 C                     0.235089
     68 C                     0.282075
     69 S                     0.637297
     70 N                    -0.562761
     71 C                    -0.213006
     72 S                     0.335355
     73 C                    -0.137611
     74 C                    -0.245258
     75 S                     0.265061
     76 C                     0.207722
     77 C                     0.069262
     78 C                    -0.299448
     79 C                    -0.087063
     80 N                    -0.437183
     81 S                     0.282591
     82 C                     0.129904
     83 C                    -0.317216
     84 C                    -0.239726
     85 H                     0.090978
     86 H                     0.118195
     87 H                     0.091191
     88 H                     0.116686
     89 H                     0.127225
     90 H                     0.106507
     91 H                     0.115143
     92 H                     0.134848
     93 H                     0.121427
     94 C                    -0.195313
     95 H                     0.113718
     96 H                     0.111456
     97 H                     0.090971
     98 C                    -0.175824
     99 H                     0.087282
    100 C                    -0.169691
    101 H                     0.089706
    102 H                     0.091450
    103 H                     0.089978
    104 C                    -0.177716
    105 H                     0.098673
    106 C                    -0.324119
    107 H                     0.099592
    108 H                     0.103007
    109 H                     0.109193
    110 H                     0.099077
  ----------------------------------------
  Sum of atomic charges =     0.000000

                    Cartesian Multipole Moments
 -----------------------------------------------------------------
    Charge (ESU x 10^10)
                 0.0000
    Dipole Moment (Debye)
         X      -1.2286      Y       2.8330      Z      -0.2925
       Tot       3.1017
    Quadrupole Moments (Debye-Ang)
        XX    -409.0457     XY     -33.3626     YY    -430.8792
        XZ      15.2739     YZ       0.6875     ZZ    -435.5524

 Total job time:  102.29s(wall), 1113.30s(cpu)
        *  Thank you very much for using Q-Chem.  Have a nice day.  *
