 Q-Chem 4.4, Q-Chem, Inc., Pleasanton, CA (2016)
 Q-Chem 4.4.2 for Intel X86 Linux

User input:
--------------------------------------------------------------
$comment
SP
$end

$rem
MEM_STATIC 5000
MEM_TOTAL 20000
JOBTYPE SP
EXCHANGE B3LYP
BASIS 6-31g(d,p)
$end

$molecule
0 1
C           3.344000    -17.269000     -6.212000
C           2.880000    -17.407000     -4.905000
N           2.517000    -16.948000     -7.182000
C           1.534000    -17.324000     -4.535000
C           1.186000    -16.863000     -6.871000
C           0.621000    -17.065000     -5.550000
C          -0.795000    -16.708000     -5.223000
C          -1.193000    -15.349000     -5.329000
C          -1.766000    -17.556000     -4.807000
N          -2.322000    -14.835000     -4.803000
N          -1.520000    -18.897000     -4.610000
C          -3.032000    -17.062000     -4.353000
C          -3.316000    -15.685000     -4.362000
S          -2.888000    -19.443000     -3.994000
N          -3.816000    -18.129000     -3.995000
C          -4.466000    -15.090000     -3.745000
S          -5.425000    -15.760000     -2.420000
C          -4.845000    -13.748000     -3.920000
C          -6.210000    -14.143000     -2.045000
S          -4.138000    -12.550000     -5.002000
C          -5.806000    -13.238000     -3.019000
C          -6.925000    -13.792000     -0.857000
C          -5.197000    -11.333000     -4.332000
C          -5.904000    -11.818000     -3.263000
N          -7.376000    -12.606000     -0.744000
S          -7.240000    -14.892000      0.477000
C          -7.965000    -12.454000      0.474000
C          -7.889000    -13.471000      1.356000
C           4.833000    -17.499000     -6.539000
H           3.499000    -17.621000     -4.039000
H           1.170000    -17.396000     -3.514000
H           0.551000    -16.726000     -7.744000
H          -0.427000    -14.682000     -5.719000
H          -5.132000    -10.308000     -4.673000
H          -6.477000    -11.134000     -2.647000
H          -8.556000    -11.555000      0.593000
H          -8.184000    -13.515000      2.396000
H           5.204000    -18.421000     -6.075000
C           5.785000    -16.361000     -6.042000
H           5.014000    -17.772000     -7.586000
H           5.722000    -16.487000     -4.954000
H           5.310000    -15.390000     -6.226000
C           7.195000    -16.490000     -6.682000
H           8.037000    -16.065000     -6.122000
C           7.205000    -16.061000     -8.190000
H           7.497000    -17.543000     -6.748000
H           6.194000    -16.268000     -8.561000
H           8.029000    -16.585000     -8.691000
C           7.690000    -14.592000     -8.399000
H           6.993000    -13.904000     -7.906000
C           8.032000    -14.176000     -9.826000
H           8.524000    -14.339000     -7.732000
H           8.610000    -14.920000    -10.387000
H           8.585000    -13.256000    -10.051000
H           7.080000    -13.997000    -10.340000
C         -12.028000    -20.527000     10.409000
C         -12.957000    -20.288000      9.353000
N         -10.745000    -20.847000     10.165000
C         -12.511000    -20.273000      8.029000
C         -10.402000    -20.856000      8.846000
C         -11.221000    -20.640000      7.702000
C         -10.709000    -20.498000      6.280000
C          -9.360000    -20.157000      5.987000
C         -11.483000    -20.833000      5.131000
N          -8.839000    -20.113000      4.756000
N         -12.751000    -21.347000      5.209000
C         -10.964000    -20.750000      3.849000
C          -9.583000    -20.370000      3.695000
S         -13.229000    -21.524000      3.628000
N         -11.832000    -21.144000      2.890000
C          -8.942000    -20.150000      2.325000
S          -9.490000    -20.512000      0.619000
C          -7.947000    -19.222000      2.131000
C          -7.976000    -19.917000     -0.027000
S          -7.226000    -18.135000      3.415000
C          -7.433000    -19.092000      0.872000
C          -7.524000    -20.152000     -1.388000
C          -6.052000    -17.650000      2.096000
C          -6.339000    -18.210000      0.849000
N          -8.390000    -20.883000     -2.073000
S          -5.975000    -19.928000     -2.019000
C          -7.759000    -21.390000     -3.195000
C          -6.394000    -21.157000     -3.250000
C         -12.439000    -20.300000     11.878000
H         -13.977000    -20.058000      9.648000
H         -13.174000    -20.093000      7.187000
H          -9.363000    -21.130000      8.669000
H          -8.598000    -20.106000      6.763000
H          -5.405000    -16.800000      2.269000
H          -5.819000    -17.947000     -0.065000
H          -8.282000    -21.936000     -3.969000
H          -5.707000    -21.560000     -3.982000
H         -11.672000    -20.597000     12.604000
C         -13.732000    -21.117000     12.312000
H         -12.549000    -19.226000     12.073000
H         -13.482000    -22.185000     12.300000
H         -14.621000    -20.968000     11.686000
C         -14.074000    -20.678000     13.761000
H         -13.238000    -21.043000     14.371000
C         -15.366000    -21.219000     14.259000
H         -14.028000    -19.582000     13.764000
H         -15.437000    -22.304000     14.115000
H         -16.060000    -20.695000     13.590000
C         -15.644000    -20.761000     15.727000
H         -14.731000    -20.932000     16.312000
C         -16.949000    -21.532000     16.205000
H         -15.940000    -19.708000     15.647000
H         -16.656000    -22.578000     16.352000
H         -17.776000    -21.555000     15.484000
H         -17.190000    -21.170000     17.212000
$end

--------------------------------------------------------------

             Standard Nuclear Orientation (Angstroms)
    I     Atom           X                Y                Z
 ----------------------------------------------------------------
    1      C     -11.0690766617    -2.8080385275    -0.7870083465
    2      C      -9.7972242393    -3.0226571623    -1.3151364155
    3      N     -11.2802510553    -1.8291205740     0.0644580450
    4      C      -8.6546913302    -2.3156406589    -0.9275138986
    5      C     -10.1902552407    -1.1124489769     0.4813488531
    6      C      -8.8272761338    -1.3253535900     0.0318718459
    7      C      -7.7281946404    -0.3524655283     0.3233211387
    8      C      -7.8332970305     0.9645398130    -0.1972280121
    9      C      -6.6008191019    -0.5969033286     1.0334447595
   10      N      -6.8173305244     1.8467310697    -0.2683873078
   11      N      -6.3334323868    -1.8409565805     1.5611206553
   12      C      -5.5406718699     0.3653535854     1.0887392261
   13      C      -5.6563590518     1.6065037541     0.4383326343
   14      S      -4.8643468233    -1.6841163938     2.1662526765
   15      N      -4.5317771908    -0.1384333767     1.8695331959
   16      C      -4.5790046038     2.5386655778     0.2722130154
   17      S      -2.8493545179     2.1750098828     0.2886786059
   18      C      -4.7423285855     3.8509665235    -0.2036246723
   19      C      -2.4092952634     3.7751810558    -0.4970306722
   20      S      -6.2451185170     4.7012622030    -0.5563238065
   21      C      -3.5697074646     4.5329639640    -0.5976566482
   22      C      -1.1611910410     4.1165281881    -1.1065288144
   23      C      -5.3253279591     6.0569151214    -1.1626739483
   24      C      -3.9863279524     5.7702487813    -1.2149844786
   25      N      -1.0371851565     5.2661632968    -1.6410638061
   26      S       0.2391722601     3.0563968247    -1.1688595240
   27      C       0.1915431428     5.3731793815    -2.2175387180
   28      C       0.9908845540     4.2874531027    -2.2330550266
   29      C     -12.2442965478    -3.7215564044    -1.1886217275
   30      H      -9.5449471847    -3.7735988513    -2.0576698271
   31      H      -7.6678853106    -2.4543270674    -1.3600655831
   32      H     -10.4201868324    -0.4111920944     1.2810320704
   33      H      -8.7663634777     1.1729920538    -0.7165349237
   34      H      -5.8341436292     6.9207175254    -1.5702067946
   35      H      -3.3132471154     6.4534175650    -1.7208338630
   36      H       0.4752639380     6.3731696415    -2.5194741256
   37      H       1.9392320120     4.1273153694    -2.7285890873
   38      H     -11.9603739326    -4.7797889371    -1.1380959384
   39      C     -12.7701677852    -3.4923296165    -2.6443935233
   40      H     -13.0530228840    -3.7453994847    -0.4477491199
   41      H     -11.9242967704    -3.8585347965    -3.2393599025
   42      H     -12.7955838931    -2.4158249498    -2.8513082979
   43      C     -14.1380799826    -4.1959119650    -2.8637769753
   44      H     -14.3912132359    -4.4833493553    -3.8916350894
   45      C     -15.3141093808    -3.4457851980    -2.1479070930
   46      H     -14.1581275468    -5.1717118684    -2.3619984946
   47      H     -14.8607591144    -2.9461138449    -1.2833765413
   48      H     -16.1069386728    -4.1740575648    -1.9343794052
   49      C     -16.1046345640    -2.5022256456    -3.1079239187
   50      H     -15.4376352724    -1.7131713123    -3.4749487189
   51      C     -17.4411362555    -1.9684497688    -2.6027550934
   52      H     -16.2387906138    -2.9500427802    -4.1008569317
   53      H     -18.0652859861    -2.7167818932    -2.0999856181
   54      H     -18.1693981256    -1.4892702198    -3.2682290662
   55      H     -17.2127998779    -1.1585299028    -1.8995955743
   56      C      11.7384521847    -1.4786933190    -1.8915708118
   57      C      11.5515916285    -0.4838806133    -0.8862207169
   58      N      10.7791735555    -2.3719947557    -2.1912740898
   59      C      10.3062471111    -0.3511942189    -0.2668433249
   60      C       9.6111953392    -2.2025714555    -1.5096483627
   61      C       9.2932467188    -1.2622381707    -0.4894351555
   62      C       7.9064737714    -1.0390992461     0.0862920479
   63      C       6.7250222650    -1.4361274695    -0.5981580436
   64      C       7.6743912656    -0.5550483079     1.4066459398
   65      N       5.4898274183    -1.3479724170    -0.0929250503
   66      N       8.6859220034    -0.2790118086     2.2890933419
   67      C       6.3956733424    -0.4209942964     1.9230604968
   68      C       5.2836763720    -0.8436855788     1.1106124568
   69      S       7.9141091762     0.2853497024     3.6474655460
   70      N       6.3746000591     0.0159584238     3.2025014829
   71      C       3.8312057874    -0.6450782956     1.5431229745
   72      S       3.0568778835    -0.1525951734     3.1241544959
   73      C       2.8289727619    -0.4127205255     0.6318689872
   74      C       1.4585261815    -0.3433808530     2.4368338567
   75      S       3.0297527217    -0.3142852332    -1.1847388133
   76      C       1.5598169210    -0.2453710154     1.1087490485
   77      C       0.2369515574    -0.4001005818     3.2219378690
   78      C       1.2012891354    -0.2165321784    -1.2054089298
   79      C       0.6236788293    -0.1513857148     0.0646699152
   80      N       0.4831557369    -0.3050255007     4.5195842889
   81      S      -1.2936051611    -0.9058106038     2.7225467346
   82      C      -0.6280893381    -0.7407610709     5.2191290667
   83      C      -1.6269092125    -1.2975495144     4.4362596730
   84      C      13.0115449628    -1.4809235581    -2.7619964573
   85      H      12.3916233185     0.1790888289    -0.6987553104
   86      H      10.1077724273     0.3907179014     0.5019916416
   87      H       8.8522727912    -2.9433737290    -1.7569832728
   88      H       6.7603951665    -2.0330404795    -1.5080287027
   89      H       0.7096845485     0.0451623984    -2.1332445179
   90      H      -0.4320353271     0.0213175153     0.2396162338
   91      H      -0.7139360336    -0.6654028694     6.2950809645
   92      H      -2.5196066044    -1.7908617962     4.7967265359
   93      H      13.0833114839    -2.3400532829    -3.4404650876
   94      C      14.3594979855    -1.5278920097    -1.9202657325
   95      H      12.9912522725    -0.6306541738    -3.4549836005
   96      H      14.4158771314    -2.5017024439    -1.4184862688
   97      H      14.4724334219    -0.7452872755    -1.1592312937
   98      C      15.5264204895    -1.3962237780    -2.9352737850
   99      H      15.4841697672    -2.3147237701    -3.5342676422
  100      C      16.8595798703    -1.2447334557    -2.2952067982
  101      H      15.2604180256    -0.5616583023    -3.5956404679
  102      H      17.0392030714    -2.0176806252    -1.5380475159
  103      H      16.7306907936    -0.2635157353    -1.8215271689
  104      C      17.9933240794    -1.1388197081    -3.3654770194
  105      H      17.8399069187    -1.9405962046    -4.0994065967
  106      C      19.3707074803    -1.1552367206    -2.5726999709
  107      H      17.9051616378    -0.1258011295    -3.7763854562
  108      H      19.5071752193    -2.1797006149    -2.2074270792
  109      H      19.4118145728    -0.5156467923    -1.6818947561
  110      H      20.1715543459    -1.0171933625    -3.3094240232
 ----------------------------------------------------------------

   10   -5663.4664829720      4.27E-06 Convergence criterion met
 Total energy in the final basis set = -5663.4664829720

                    Orbital Energies (a.u.)
 --------------------------------------------------------------

 Alpha MOs
 -- Occupied --
-88.997 -88.992 -88.932 -88.931 -88.922 -88.917 -88.910 -88.908
-14.390 -14.390 -14.385 -14.384 -14.358 -14.351 -14.341 -14.340
-14.334 -14.333 -10.272 -10.270 -10.269 -10.265 -10.263 -10.258
-10.257 -10.257 -10.252 -10.248 -10.244 -10.243 -10.241 -10.236
-10.235 -10.234 -10.233 -10.233 -10.233 -10.232 -10.232 -10.232
-10.231 -10.229 -10.228 -10.228 -10.224 -10.221 -10.220 -10.218
-10.216 -10.213 -10.205 -10.205 -10.200 -10.199 -10.199 -10.197
-10.191 -10.189 -10.189 -10.186 -10.185 -10.184 -10.181 -10.176
-10.176 -10.175 -10.174 -10.170  -8.053  -8.047  -7.992  -7.991
 -7.983  -7.975  -7.969  -7.968  -6.018  -6.012  -6.012  -6.011
 -6.006  -6.005  -5.956  -5.955  -5.953  -5.951  -5.949  -5.947
 -5.947  -5.944  -5.940  -5.940  -5.936  -5.933  -5.932  -5.931
 -5.929  -5.929  -5.925  -5.924  -1.046  -1.035  -0.987  -0.971
 -0.966  -0.959  -0.945  -0.936  -0.916  -0.912  -0.906  -0.900
 -0.846  -0.842  -0.833  -0.832  -0.813  -0.810  -0.808  -0.807
 -0.806  -0.804  -0.801  -0.797  -0.781  -0.780  -0.770  -0.767
 -0.751  -0.748  -0.741  -0.740  -0.727  -0.717  -0.711  -0.707
 -0.696  -0.693  -0.678  -0.677  -0.655  -0.653  -0.651  -0.645
 -0.640  -0.636  -0.633  -0.625  -0.614  -0.607  -0.601  -0.599
 -0.597  -0.594  -0.591  -0.584  -0.582  -0.578  -0.573  -0.565
 -0.552  -0.547  -0.543  -0.539  -0.528  -0.522  -0.516  -0.514
 -0.511  -0.508  -0.504  -0.497  -0.494  -0.487  -0.481  -0.480
 -0.477  -0.472  -0.472  -0.471  -0.468  -0.464  -0.453  -0.452
 -0.446  -0.445  -0.442  -0.437  -0.436  -0.436  -0.434  -0.433
 -0.428  -0.426  -0.425  -0.423  -0.420  -0.417  -0.416  -0.414
 -0.413  -0.406  -0.406  -0.406  -0.403  -0.401  -0.400  -0.398
 -0.394  -0.392  -0.392  -0.389  -0.388  -0.387  -0.386  -0.383
 -0.377  -0.374  -0.372  -0.370  -0.369  -0.361  -0.357  -0.354
 -0.353  -0.353  -0.351  -0.349  -0.349  -0.346  -0.344  -0.344
 -0.342  -0.340  -0.337  -0.335  -0.333  -0.326  -0.320  -0.320
 -0.319  -0.318  -0.312  -0.310  -0.308  -0.303  -0.301  -0.300
 -0.295  -0.294  -0.294  -0.289  -0.289  -0.286  -0.285  -0.284
 -0.277  -0.275  -0.265  -0.264  -0.258  -0.255  -0.254  -0.252
 -0.250  -0.243  -0.241  -0.231  -0.198  -0.195

          Ground-State Mulliken Net Atomic Charges

     Atom                 Charge (a.u.)
  ----------------------------------------
      1 C                     0.287736
      2 C                    -0.119819
      3 N                    -0.473908
      4 C                    -0.041950
      5 C                     0.055768
      6 C                     0.021072
      7 C                    -0.022936
      8 C                     0.084166
      9 C                     0.191200
     10 N                    -0.502997
     11 N                    -0.527101
     12 C                     0.201575
     13 C                     0.289933
     14 S                     0.621448
     15 N                    -0.559556
     16 C                    -0.201537
     17 S                     0.316165
     18 C                    -0.146272
     19 C                    -0.265518
     20 S                     0.292973
     21 C                     0.197093
     22 C                     0.080311
     23 C                    -0.292914
     24 C                    -0.075452
     25 N                    -0.428759
     26 S                     0.261208
     27 C                     0.130926
     28 C                    -0.317231
     29 C                    -0.238552
     30 H                     0.086267
     31 H                     0.107197
     32 H                     0.106777
     33 H                     0.116628
     34 H                     0.135116
     35 H                     0.120719
     36 H                     0.110033
     37 H                     0.140989
     38 H                     0.105284
     39 C                    -0.177703
     40 H                     0.116139
     41 H                     0.094445
     42 H                     0.107814
     43 C                    -0.188240
     44 H                     0.091759
     45 C                    -0.171958
     46 H                     0.092797
     47 H                     0.109620
     48 H                     0.093448
     49 C                    -0.179840
     50 H                     0.090100
     51 C                    -0.323948
     52 H                     0.088711
     53 H                     0.099459
     54 H                     0.101304
     55 H                     0.106213
     56 C                     0.261962
     57 C                    -0.104282
     58 N                    -0.476681
     59 C                    -0.078226
     60 C                     0.048335
     61 C                     0.074414
     62 C                     0.032608
     63 C                     0.042826
     64 C                     0.219055
     65 N                    -0.506963
     66 N                    -0.564009
     67 C                     0.226335
     68 C                     0.282172
     69 S                     0.609277
     70 N                    -0.552839
     71 C                    -0.206456
     72 S                     0.329355
     73 C                    -0.137640
     74 C                    -0.231938
     75 S                     0.252989
     76 C                     0.205068
     77 C                     0.056008
     78 C                    -0.301021
     79 C                    -0.088905
     80 N                    -0.430499
     81 S                     0.305849
     82 C                     0.124325
     83 C                    -0.322760
     84 C                    -0.238819
     85 H                     0.089380
     86 H                     0.115537
     87 H                     0.090746
     88 H                     0.117666
     89 H                     0.131134
     90 H                     0.114945
     91 H                     0.119267
     92 H                     0.134081
     93 H                     0.121213
     94 C                    -0.192493
     95 H                     0.113428
     96 H                     0.107243
     97 H                     0.090919
     98 C                    -0.175086
     99 H                     0.087374
    100 C                    -0.169555
    101 H                     0.089666
    102 H                     0.091443
    103 H                     0.089765
    104 C                    -0.177863
    105 H                     0.098746
    106 C                    -0.324003
    107 H                     0.099480
    108 H                     0.103095
    109 H                     0.109038
    110 H                     0.099093
  ----------------------------------------
  Sum of atomic charges =     0.000000

                    Cartesian Multipole Moments
 -----------------------------------------------------------------
    Charge (ESU x 10^10)
                 0.0000
    Dipole Moment (Debye)
         X       0.9977      Y       0.9761      Z      -1.5347
       Tot       2.0745
    Quadrupole Moments (Debye-Ang)
        XX    -430.7305     XY      31.2771     YY    -437.1709
        XZ       8.4428     YZ      -8.0863     ZZ    -437.9291

 Total job time:  93.84s(wall), 1012.60s(cpu)
        *  Thank you very much for using Q-Chem.  Have a nice day.  *
