 Q-Chem 4.4, Q-Chem, Inc., Pleasanton, CA (2016)
 Q-Chem 4.4.2 for Intel X86 Linux

User input:
--------------------------------------------------------------
$comment
SP
$end

$rem
MEM_STATIC 5000
MEM_TOTAL 20000
JOBTYPE SP
EXCHANGE B3LYP
BASIS 6-31g(d,p)
$end

$molecule
0 1
C         -12.664000      6.068000     -2.680000
C         -12.572000      5.532000     -1.362000
N         -11.575000      6.126000     -3.501000
C         -11.384000      4.914000     -1.002000
C         -10.379000      5.559000     -3.082000
C         -10.242000      4.873000     -1.845000
C          -9.011000      4.162000     -1.435000
C          -9.060000      3.084000     -0.533000
C          -7.772000      4.548000     -1.904000
N          -8.021000      2.319000     -0.189000
N          -7.410000      5.652000     -2.636000
C          -6.627000      3.709000     -1.584000
C          -6.836000      2.633000     -0.769000
S          -5.845000      5.501000     -3.013000
N          -5.497000      4.090000     -2.233000
C          -5.676000      1.730000     -0.396000
S          -4.233000      1.472000     -1.396000
C          -5.538000      1.055000      0.733000
C          -3.459000      0.740000     -0.036000
S          -6.640000      0.851000      2.093000
C          -4.314000      0.475000      0.933000
C          -2.078000      0.256000     -0.217000
C          -5.432000     -0.118000      2.906000
C          -4.212000     -0.115000      2.226000
N          -1.504000     -0.380000      0.836000
S          -1.330000      0.014000     -1.780000
C          -0.228000     -0.746000      0.491000
C           0.050000     -0.596000     -0.846000
C         -14.028000      6.610000     -3.203000
H         -13.485000      5.452000     -0.779000
H         -11.283000      4.485000     -0.009000
H          -9.450000      5.647000     -3.643000
H         -10.046000      2.862000     -0.128000
H          -5.713000     -0.616000      3.825000
H          -3.381000     -0.658000      2.660000
H           0.398000     -1.298000      1.179000
H           0.942000     -0.931000     -1.358000
H         -14.373000      7.371000     -2.492000
C         -15.057000      5.449000     -3.229000
H         -13.935000      7.038000     -4.209000
H         -16.017000      5.770000     -3.652000
H         -15.299000      5.194000     -2.190000
C         -14.500000      4.200000     -4.070000
H         -13.986000      4.570000     -4.965000
C         -15.638000      3.210000     -4.512000
H         -13.829000      3.655000     -3.394000
H         -16.418000      3.802000     -5.008000
H         -16.044000      2.767000     -3.594000
C         -15.036000      2.183000     -5.528000
H         -14.245000      2.678000     -6.105000
C         -16.025000      1.341000     -6.476000
H         -14.467000      1.431000     -4.968000
H         -16.606000      0.610000     -5.900000
H         -15.480000      0.856000     -7.295000
H         -16.749000      2.030000     -6.928000
C         -10.616000      8.817000     -0.040000
C          -9.771000      9.175000     -1.114000
N         -10.100000      8.164000      1.019000
C          -8.477000      8.650000     -1.214000
C          -8.814000      7.698000      1.010000
C          -7.972000      7.873000     -0.125000
C          -6.484000      7.475000     -0.098000
C          -5.518000      8.089000     -0.880000
C          -5.952000      6.419000      0.781000
N          -4.208000      7.896000     -0.674000
N          -6.758000      5.572000      1.459000
C          -4.637000      6.100000      0.806000
C          -3.758000      6.916000      0.100000
S          -5.691000      4.603000      2.327000
N          -4.297000      5.164000      1.691000
C          -2.357000      6.867000      0.138000
S          -1.204000      8.230000      0.379000
C          -1.640000      5.755000     -0.248000
C           0.179000      7.183000      0.016000
S          -2.268000      4.264000     -0.974000
C          -0.284000      5.927000     -0.389000
C           1.464000      7.724000     -0.372000
C          -0.567000      3.719000     -1.169000
C           0.342000      4.711000     -0.763000
N           1.506000      8.944000     -0.822000
S           2.923000      6.823000     -0.445000
C           2.830000      9.442000     -0.933000
C           3.776000      8.376000     -0.800000
C         -12.049000      9.425000     -0.055000
H         -10.122000      9.858000     -1.882000
H          -7.802000      8.903000     -2.026000
H          -8.381000      7.131000      1.833000
H          -5.776000      8.919000     -1.536000
H          -0.395000      2.739000     -1.594000
H           1.410000      4.541000     -0.825000
H           2.984000     10.492000     -1.147000
H           4.855000      8.345000     -0.873000
H         -12.033000     10.511000     -0.206000
C         -12.982000      8.920000      1.026000
H         -12.480000      9.024000     -0.980000
H         -12.543000      9.049000      2.023000
H         -13.040000      7.835000      0.875000
C         -14.351000      9.594000      0.946000
H         -14.369000     10.684000      1.062000
C         -15.410000      8.766000      1.680000
H         -14.624000      9.443000     -0.105000
H         -14.978000      8.566000      2.668000
H         -15.778000      7.843000      1.216000
C         -16.699000      9.526000      1.951000
H         -16.548000     10.196000      2.806000
C         -17.897000      8.579000      2.382000
H         -16.964000     10.190000      1.119000
H         -17.671000      8.276000      3.412000
H         -18.025000      7.754000      1.669000
H         -18.804000      9.189000      2.469000
$end

--------------------------------------------------------------

             Standard Nuclear Orientation (Angstroms)
    I     Atom           X                Y                Z
 ----------------------------------------------------------------
    1      C      -6.3914065955     0.0306149318     1.5356616209
    2      C      -6.1168326318     0.3267119486     0.1682481153
    3      N      -5.3935166979    -0.0210519032     2.4656467231
    4      C      -4.8301284275     0.7299800771    -0.1552253877
    5      C      -4.1008164484     0.3215888349     2.0928339154
    6      C      -3.7684051534     0.7725157881     0.7868087955
    7      C      -2.4224663638     1.2534225678     0.4045007469
    8      C      -2.2490501712     2.1656983137    -0.6517988259
    9      C      -1.2910425796     0.8045665671     1.0544903709
   10      N      -1.0909442019     2.7333647559    -0.9976707306
   11      N      -1.1446022437    -0.1987223072     1.9805846764
   12      C      -0.0203250392     1.4359430446     0.7320207192
   13      C      -0.0124870300     2.3797901818    -0.2552852857
   14      S       0.3889495515    -0.1761072590     2.4923096523
   15      N       0.9889564163     1.0347575999     1.5466759729
   16      C       1.2861599338     3.0632735637    -0.6380443876
   17      S       2.6610775770     3.3081150391     0.4567008459
   18      C       1.6089473629     3.5211437878    -1.8361567085
   19      C       3.6389597262     3.7074663406    -0.9103269666
   20      S       0.6634832081     3.6283043276    -3.3194753360
   21      C       2.9125408288     3.9093162242    -1.9928163245
   22      C       5.0523911892     4.0457582170    -0.6614332025
   23      C       2.0556085057     4.2980026211    -4.1396493125
   24      C       3.2021669085     4.2612078027    -3.3428689349
   25      N       5.7939227827     4.4257724761    -1.7331146191
   26      S       5.6914512995     4.4511398179     0.9160029874
   27      C       7.0739027118     4.6882001411    -1.3160533505
   28      C       7.2151245411     4.7288057427     0.0498751176
   29      C      -7.8553732026    -0.2502569990     1.9892051486
   30      H      -6.9581092567     0.4181308346    -0.5127469123
   31      H      -4.5885802280     0.9739091977    -1.1859746547
   32      H      -3.2429655374     0.2167892663     2.7551139657
   33      H      -3.1582591793     2.4342649941    -1.1872574310
   34      H       1.9230997248     4.6674551652    -5.1483476027
   35      H       4.1325544657     4.6215963382    -3.7650834502
   36      H       7.8245855362     5.0400167305    -2.0107650782
   37      H       8.0977107108     5.0344540497     0.5954516617
   38      H      -8.2386569924    -1.0713251222     1.3706522619
   39      C      -8.7166474591     1.0138795711     1.7291986343
   40      H      -7.9063620903    -0.5142981156     3.0529492072
   41      H      -9.7434791353     0.8844589095     2.0931175826
   42      H      -8.8333296706     1.1209567201     0.6438278472
   43      C      -8.0691552286     2.3087581399     2.4231541830
   44      H      -7.6873085270     2.0327429333     3.4131691840
   45      C      -9.0962802939     3.4872314282     2.5866253084
   46      H      -7.2760062783     2.6503130981     1.7460301521
   47      H      -9.9881749092     3.0830010885     3.0826110215
   48      H      -9.3597046599     3.8179780106     1.5741909640
   49      C      -8.4491287683     4.5882815520     3.4912094824
   50      H      -7.7838294122     4.1042106684     4.2169416275
   51      C      -9.3918979127     5.6875644606     4.1901747370
   52      H      -7.7385254108     5.1638545381     2.8857149688
   53      H      -9.8180936125     6.3776846348     3.4513991481
   54      H      -8.8575650414     6.2323112403     4.9780518395
   55      H     -10.2378887644     5.1744010678     4.6636341450
   56      C      -4.5177155672    -3.3417847941    -0.4231918752
   57      C      -3.8225999647    -3.6161450844     0.7756432804
   58      N      -3.8306406644    -2.9391713570    -1.5094591067
   59      C      -2.4826766365    -3.2406681810     0.9295379504
   60      C      -2.4988934158    -2.6355206454    -1.4368057432
   61      C      -1.7871812533    -2.7202975541    -0.2063210121
   62      C      -0.2621543572    -2.5133566852    -0.1374338371
   63      C       0.5425186147    -3.1010397834     0.8263119720
   64      C       0.4799284562    -1.6884132615    -1.1067544474
   65      N       1.8792599223    -3.1030223628     0.7319523096
   66      N      -0.1441106701    -0.8746225505    -1.9871230336
   67      C       1.8233272137    -1.5377591839    -1.0419923661
   68      C       2.5212545422    -2.3253225887    -0.1311826563
   69      S       1.1134624372    -0.1971162237    -2.8761500618
   70      N       2.3601637901    -0.8082855641    -2.0190265152
   71      C       3.9141924453    -2.4514392373    -0.0288860816
   72      S       4.8887717454    -3.9636799219     0.0637546195
   73      C       4.7395869070    -1.3849696779     0.2557112858
   74      C       6.3648274988    -3.0444149464     0.4056293296
   75      S       4.2596080336     0.2697729732     0.6752205699
   76      C       6.0431304097    -1.6924951291     0.5629627032
   77      C       7.5275767258    -3.6638957694     1.0045514822
   78      C       5.9960078371     0.6317641271     0.9621510966
   79      C       6.7937451419    -0.5152934858     0.8103122836
   80      N       7.3662665655    -4.7889767532     1.6376674369
   81      S       9.0834500186    -2.9445460388     1.0917596352
   82      C       8.5967301416    -5.4167682918     1.9619176053
   83      C       9.6858422855    -4.5084528558     1.7676013507
   84      C      -6.0157894863    -3.7628796007    -0.4659902018
   85      H      -4.3262445264    -4.1159382488     1.5978737520
   86      H      -1.9190727633    -3.4351320200     1.8370138396
   87      H      -1.9253134163    -2.2681915439    -2.2867365141
   88      H       0.1202990594    -3.7743740277     1.5707255952
   89      H       6.2622408297     1.6407285544     1.2480178102
   90      H       7.8658255931    -0.4665564235     0.9574047884
   91      H       8.5888880361    -6.4278046861     2.3489006940
   92      H      10.7490820746    -4.5952946767     1.9479084474
   93      H      -6.1594076021    -4.8030312680    -0.1499026414
   94      C      -6.7773388361    -3.3352251056    -1.7034186727
   95      H      -6.4652937513    -3.1659595265     0.3363933355
   96      H      -6.2771217433    -3.6787101236    -2.6172960728
   97      H      -6.7008374457    -2.2411587141    -1.7270040148
   98      C      -8.2266350076    -3.8178661057    -1.6655336839
   99      H      -8.3817985106    -4.9019452488    -1.6147724902
  100      C      -9.0982774334    -3.0016175926    -2.6245951242
  101      H      -8.5645637420    -3.4638112929    -0.6845238165
  102      H      -8.5613028514    -3.0206954545    -3.5806611958
  103      H      -9.3761416630    -1.9773340882    -2.3483999531
  104      C     -10.4505503699    -3.6359861207    -2.9100710005
  105      H     -10.3197115266    -4.4511542891    -3.6319491442
  106      C     -11.4689504309    -2.6365621031    -3.6041797448
  107      H     -10.8721351082    -4.1169128965    -2.0188242643
  108      H     -11.1178872327    -2.5370653862    -4.6388971140
  109      H     -11.5441530465    -1.6958532682    -3.0431187370
  110      H     -12.4393924982    -3.1394604439    -3.6916637596
 ----------------------------------------------------------------

    9   -5663.4657362976      7.67E-06 Convergence criterion met
 Total energy in the final basis set = -5663.4657362976

                    Orbital Energies (a.u.)
 --------------------------------------------------------------

 Alpha MOs
 -- Occupied --
-88.997 -88.987 -88.935 -88.920 -88.918 -88.918 -88.906 -88.901
-14.389 -14.385 -14.385 -14.383 -14.358 -14.345 -14.343 -14.334
-14.330 -14.329 -10.273 -10.264 -10.260 -10.258 -10.257 -10.255
-10.250 -10.248 -10.243 -10.238 -10.236 -10.235 -10.235 -10.234
-10.233 -10.233 -10.233 -10.232 -10.231 -10.229 -10.229 -10.229
-10.228 -10.226 -10.225 -10.225 -10.221 -10.218 -10.218 -10.215
-10.212 -10.211 -10.203 -10.202 -10.202 -10.201 -10.198 -10.197
-10.194 -10.189 -10.188 -10.182 -10.182 -10.182 -10.178 -10.177
-10.176 -10.175 -10.174 -10.174  -8.051  -8.042  -7.995  -7.980
 -7.980  -7.976  -7.966  -7.961  -6.016  -6.010  -6.009  -6.007
 -6.002  -6.000  -5.959  -5.956  -5.952  -5.945  -5.944  -5.941
 -5.941  -5.940  -5.937  -5.937  -5.937  -5.933  -5.931  -5.927
 -5.925  -5.922  -5.922  -5.917  -1.038  -1.034  -0.967  -0.965
 -0.963  -0.955  -0.928  -0.927  -0.923  -0.907  -0.903  -0.899
 -0.849  -0.839  -0.833  -0.822  -0.813  -0.812  -0.808  -0.805
 -0.800  -0.796  -0.793  -0.788  -0.781  -0.777  -0.766  -0.763
 -0.748  -0.746  -0.737  -0.735  -0.730  -0.718  -0.708  -0.706
 -0.696  -0.692  -0.680  -0.671  -0.658  -0.654  -0.648  -0.645
 -0.634  -0.633  -0.624  -0.623  -0.612  -0.604  -0.596  -0.594
 -0.590  -0.589  -0.586  -0.578  -0.576  -0.573  -0.570  -0.569
 -0.550  -0.546  -0.542  -0.534  -0.529  -0.522  -0.515  -0.510
 -0.507  -0.506  -0.501  -0.496  -0.487  -0.481  -0.477  -0.476
 -0.473  -0.473  -0.472  -0.463  -0.463  -0.461  -0.452  -0.451
 -0.446  -0.440  -0.439  -0.437  -0.436  -0.435  -0.433  -0.428
 -0.427  -0.422  -0.422  -0.420  -0.419  -0.417  -0.414  -0.413
 -0.411  -0.408  -0.405  -0.404  -0.400  -0.397  -0.395  -0.394
 -0.393  -0.392  -0.390  -0.388  -0.386  -0.385  -0.384  -0.383
 -0.378  -0.376  -0.373  -0.367  -0.367  -0.366  -0.359  -0.357
 -0.356  -0.355  -0.348  -0.346  -0.344  -0.343  -0.341  -0.340
 -0.337  -0.332  -0.331  -0.329  -0.325  -0.324  -0.323  -0.321
 -0.314  -0.312  -0.312  -0.307  -0.304  -0.303  -0.301  -0.300
 -0.297  -0.296  -0.290  -0.288  -0.284  -0.283  -0.281  -0.280
 -0.270  -0.269  -0.264  -0.263  -0.253  -0.248  -0.246  -0.243
 -0.241  -0.239  -0.233  -0.227  -0.196  -0.191

          Ground-State Mulliken Net Atomic Charges

     Atom                 Charge (a.u.)
  ----------------------------------------
      1 C                     0.272974
      2 C                    -0.113911
      3 N                    -0.507731
      4 C                    -0.090083
      5 C                     0.082353
      6 C                     0.053504
      7 C                     0.056114
      8 C                     0.083832
      9 C                     0.227990
     10 N                    -0.519223
     11 N                    -0.574093
     12 C                     0.243675
     13 C                     0.255194
     14 S                     0.638600
     15 N                    -0.578304
     16 C                    -0.230323
     17 S                     0.297863
     18 C                    -0.090975
     19 C                    -0.235720
     20 S                     0.261339
     21 C                     0.195365
     22 C                     0.048341
     23 C                    -0.301522
     24 C                    -0.067729
     25 N                    -0.436104
     26 S                     0.267359
     27 C                     0.140663
     28 C                    -0.316215
     29 C                    -0.231032
     30 H                     0.095754
     31 H                     0.103633
     32 H                     0.124409
     33 H                     0.109166
     34 H                     0.134100
     35 H                     0.124685
     36 H                     0.118445
     37 H                     0.127217
     38 H                     0.108261
     39 C                    -0.197698
     40 H                     0.120179
     41 H                     0.095726
     42 H                     0.090406
     43 C                    -0.180486
     44 H                     0.109127
     45 C                    -0.177741
     46 H                     0.104498
     47 H                     0.091060
     48 H                     0.093645
     49 C                    -0.183458
     50 H                     0.096770
     51 C                    -0.327797
     52 H                     0.094911
     53 H                     0.106032
     54 H                     0.105906
     55 H                     0.102036
     56 C                     0.292371
     57 C                    -0.121278
     58 N                    -0.510759
     59 C                    -0.061937
     60 C                     0.089071
     61 C                     0.039624
     62 C                     0.058145
     63 C                     0.026380
     64 C                     0.202152
     65 N                    -0.487736
     66 N                    -0.566929
     67 C                     0.249663
     68 C                     0.202213
     69 S                     0.619185
     70 N                    -0.533257
     71 C                    -0.181491
     72 S                     0.342963
     73 C                    -0.128319
     74 C                    -0.223338
     75 S                     0.287684
     76 C                     0.134731
     77 C                     0.068752
     78 C                    -0.312398
     79 C                    -0.072697
     80 N                    -0.423890
     81 S                     0.248870
     82 C                     0.108784
     83 C                    -0.319484
     84 C                    -0.246786
     85 H                     0.089336
     86 H                     0.097730
     87 H                     0.128174
     88 H                     0.108530
     89 H                     0.139996
     90 H                     0.109274
     91 H                     0.123790
     92 H                     0.131924
     93 H                     0.113679
     94 C                    -0.174555
     95 H                     0.119660
     96 H                     0.113117
     97 H                     0.101459
     98 C                    -0.185373
     99 H                     0.098031
    100 C                    -0.163621
    101 H                     0.087187
    102 H                     0.095973
    103 H                     0.088287
    104 C                    -0.190546
    105 H                     0.092502
    106 C                    -0.325096
    107 H                     0.087777
    108 H                     0.108132
    109 H                     0.101232
    110 H                     0.102129
  ----------------------------------------
  Sum of atomic charges =     0.000000

                    Cartesian Multipole Moments
 -----------------------------------------------------------------
    Charge (ESU x 10^10)
                 0.0000
    Dipole Moment (Debye)
         X       0.8321      Y       1.9153      Z       0.3669
       Tot       2.1202
    Quadrupole Moments (Debye-Ang)
        XX    -390.7051     XY      17.6261     YY    -440.5410
        XZ       8.8804     YZ      -6.3986     ZZ    -442.0298

 Total job time:  106.43s(wall), 1147.38s(cpu)
        *  Thank you very much for using Q-Chem.  Have a nice day.  *
