 Q-Chem 4.4, Q-Chem, Inc., Pleasanton, CA (2016)
 Q-Chem 4.4.2 for Intel X86 Linux

User input:
--------------------------------------------------------------
$comment
SP
$end

$rem
MEM_STATIC 5000
MEM_TOTAL 20000
JOBTYPE SP
EXCHANGE B3LYP
BASIS 6-31g(d,p)
$end

$molecule
0 1
C           4.234000     13.838000     -1.471000
C           5.240000     14.802000     -1.577000
N           4.380000     12.630000     -1.983000
C           6.489000     14.533000     -2.152000
C           5.460000     12.360000     -2.733000
C           6.624000     13.259000     -2.775000
C           7.876000     12.904000     -3.590000
C           8.747000     13.873000     -4.002000
C           8.327000     11.597000     -3.664000
N           9.926000     13.604000     -4.560000
N           7.769000     10.581000     -3.041000
C           9.509000     11.242000     -4.349000
C          10.260000     12.313000     -4.862000
S           8.654000      9.218000     -3.448000
N           9.817000      9.963000     -4.310000
C          11.519000     12.051000     -5.631000
S          12.158000     10.386000     -6.066000
C          12.314000     12.983000     -6.329000
C          13.537000     11.066000     -6.888000
S          12.131000     14.698000     -6.466000
C          13.406000     12.445000     -6.904000
C          14.458000     10.192000     -7.605000
C          13.628000     14.687000     -7.402000
C          14.119000     13.455000     -7.642000
N          14.372000      8.888000     -7.427000
S          15.614000     10.770000     -8.745000
C          15.485000      8.288000     -8.035000
C          16.217000      9.123000     -8.802000
C           2.846000     14.198000     -0.882000
H           5.105000     15.774000     -1.113000
H           7.163000     15.376000     -2.265000
H           5.480000     11.470000     -3.360000
H           8.640000     14.901000     -3.658000
H          14.090000     15.630000     -7.661000
H          14.848000     13.185000     -8.397000
H          15.596000      7.218000     -7.914000
H          17.198000      8.896000     -9.198000
H           2.889000     14.726000      0.078000
C           1.929000     12.988000     -0.597000
H           2.400000     14.882000     -1.615000
H           2.246000     12.410000      0.280000
H           1.902000     12.391000     -1.517000
C           0.516000     13.477000     -0.416000
H           0.416000     14.107000      0.477000
C          -0.400000     12.181000     -0.230000
H           0.177000     13.954000     -1.343000
H          -0.186000     11.587000      0.666000
H          -0.165000     11.475000     -1.036000
C          -1.907000     12.630000     -0.214000
H          -2.076000     13.319000      0.622000
C          -2.823000     11.366000     -0.109000
H          -2.154000     13.175000     -1.134000
H          -2.600000     10.790000      0.797000
H          -2.659000     10.734000     -0.990000
H          -3.894000     11.598000     -0.160000
C         -10.616000      8.817000     -0.040000
C          -9.771000      9.175000     -1.114000
N         -10.100000      8.164000      1.019000
C          -8.477000      8.650000     -1.214000
C          -8.814000      7.698000      1.010000
C          -7.972000      7.873000     -0.125000
C          -6.484000      7.475000     -0.098000
C          -5.518000      8.089000     -0.880000
C          -5.952000      6.419000      0.781000
N          -4.208000      7.896000     -0.674000
N          -6.758000      5.572000      1.459000
C          -4.637000      6.100000      0.806000
C          -3.758000      6.916000      0.100000
S          -5.691000      4.603000      2.327000
N          -4.297000      5.164000      1.691000
C          -2.357000      6.867000      0.138000
S          -1.204000      8.230000      0.379000
C          -1.640000      5.755000     -0.248000
C           0.179000      7.183000      0.016000
S          -2.268000      4.264000     -0.974000
C          -0.284000      5.927000     -0.389000
C           1.464000      7.724000     -0.372000
C          -0.567000      3.719000     -1.169000
C           0.342000      4.711000     -0.763000
N           1.506000      8.944000     -0.822000
S           2.923000      6.823000     -0.445000
C           2.830000      9.442000     -0.933000
C           3.776000      8.376000     -0.800000
C         -12.049000      9.425000     -0.055000
H         -10.122000      9.858000     -1.882000
H          -7.802000      8.903000     -2.026000
H          -8.381000      7.131000      1.833000
H          -5.776000      8.919000     -1.536000
H          -0.395000      2.739000     -1.594000
H           1.410000      4.541000     -0.825000
H           2.984000     10.492000     -1.147000
H           4.855000      8.345000     -0.873000
H         -12.033000     10.511000     -0.206000
C         -12.982000      8.920000      1.026000
H         -12.480000      9.024000     -0.980000
H         -12.543000      9.049000      2.023000
H         -13.040000      7.835000      0.875000
C         -14.351000      9.594000      0.946000
H         -14.369000     10.684000      1.062000
C         -15.410000      8.766000      1.680000
H         -14.624000      9.443000     -0.105000
H         -14.978000      8.566000      2.668000
H         -15.778000      7.843000      1.216000
C         -16.699000      9.526000      1.951000
H         -16.548000     10.196000      2.806000
C         -17.897000      8.579000      2.382000
H         -16.964000     10.190000      1.119000
H         -17.671000      8.276000      3.412000
H         -18.025000      7.754000      1.669000
H         -18.804000      9.189000      2.469000
$end

--------------------------------------------------------------

             Standard Nuclear Orientation (Angstroms)
    I     Atom           X                Y                Z
 ----------------------------------------------------------------
    1      C      -2.8508521326    -3.6284143192     1.6844535445
    2      C      -3.9857449502    -4.3946178443     1.9628748993
    3      N      -2.9442221843    -2.4351756480     1.1275087474
    4      C      -5.2881224607    -3.9235230871     1.7510505620
    5      C      -4.1402724600    -2.0010058879     0.7000039434
    6      C      -5.3937300296    -2.6718329132     1.0790767902
    7      C      -6.7570150102    -2.1251299830     0.6315011342
    8      C      -7.8578997179    -2.9330436331     0.5797865867
    9      C      -6.9890374003    -0.7614497522     0.5709384518
   10      N      -9.0893959519    -2.4741406988     0.3639368184
   11      N      -6.1110935213     0.1583981844     0.9098238585
   12      C      -8.2474619815    -0.2225070705     0.2270164266
   13      C      -9.2826685771    -1.1566093648     0.0537789937
   14      S      -6.8418512978     1.6437450766     0.6521793711
   15      N      -8.3157317621     1.0918349873     0.2353944984
   16      C     -10.6539235384    -0.6981612727    -0.3393764183
   17      S     -11.1125274091     1.0375237224    -0.7225879626
   18      C     -11.7633443975    -1.4949103607    -0.6889894161
   19      C     -12.7666840538     0.5907031157    -1.0448334285
   20      S     -11.9133671499    -3.2183737277    -0.7144883628
   21      C     -12.8741719656    -0.7884433554    -0.9709459451
   22      C     -13.7045385032     1.5902092520    -1.5424502643
   23      C     -13.5995467246    -2.9692884390    -1.1749022644
   24      C     -13.9313462768    -1.6784356583    -1.3751849542
   25      N     -13.3567305316     2.8621824664    -1.5177570095
   26      S     -15.2280967165     1.1901384222    -2.2415451803
   27      C     -14.4870618499     3.6321093136    -1.8308013528
   28      C     -15.5421584848     2.9163550501    -2.2732998558
   29      C      -1.4285634634    -4.2138736699     1.8778373348
   30      H      -3.8785075702    -5.3559188916     2.4555263387
   31      H      -6.0933762390    -4.6321409350     1.9157354074
   32      H      -4.2018987049    -1.1477624821     0.0263520330
   33      H      -7.8222220056    -3.9489106254     0.9713352487
   34      H     -14.2658867277    -3.8207950840    -1.2013868588
   35      H     -14.7991136256    -1.3089382777    -1.9088679256
   36      H     -14.3797962973     4.7081996448    -1.7819577209
   37      H     -16.5457838370     3.3039875306    -2.3881180269
   38      H      -1.2667325999    -4.6869282252     2.8536770549
   39      C      -0.2831931206    -3.1826800801     1.7730491769
   40      H      -1.3419111271    -4.9963727059     1.1134764048
   41      H      -0.2226945827    -2.5223434501     2.6471186605
   42      H      -0.4367328203    -2.6373458662     0.8335949972
   43      C       1.0187800289    -3.9154364174     1.5823004725
   44      H       1.2781227481    -4.5175711651     2.4623709808
   45      C       2.1475207552    -2.8034723774     1.3755437400
   46      H       0.9804518071    -4.4825728682     0.6449285113
   47      H       2.3131269299    -2.1455957928     2.2364856627
   48      H       1.7999401617    -2.0984798593     0.6103834427
   49      C       3.4947457395    -3.5206787122     0.9967219942
   50      H       3.7921193265    -4.1956735419     1.8079734532
   51      C       4.5938909527    -2.4433217196     0.7157260680
   52      H       3.3609502288    -4.1374305404     0.0988634621
   53      H       4.7511012442    -1.8010793402     1.5904549691
   54      H       4.2783520624    -1.8269955994    -0.1346022934
   55      H       5.5468453750    -2.8699277973     0.3790494821
   56      C      12.3539525106    -1.3685059831    -1.7048579008
   57      C      11.1784611665    -1.6070328046    -2.4511755646
   58      N      12.2944839829    -0.5908117631    -0.6067681074
   59      C      10.0185463139    -0.8576000994    -2.2209383929
   60      C      11.1597903173     0.1027703273    -0.2866944144
   61      C       9.9987343164     0.0410429452    -1.1088578369
   62      C       8.6739417957     0.7063532102    -0.6898542231
   63      C       7.4306574784     0.2500613021    -1.0993878614
   64      C       8.6112903271     1.8757543821     0.2042244607
   65      N       6.2933713731     0.6883429089    -0.5423649284
   66      N       9.7111168158     2.5862114105     0.5394281386
   67      C       7.4355074346     2.4316134193     0.5786123883
   68      C       6.2637483640     1.7639161322     0.2349642931
   69      S       9.1282487438     3.7680055322     1.5856123788
   70      N       7.5354106746     3.4481166921     1.4339844938
   71      C       4.9668698549     2.0708883344     0.6714504894
   72      S       3.7328830785     0.9533979610     1.3597461389
   73      C       4.3591814669     3.2796658929     0.4083903497
   74      C       2.4957208827     2.2215740870     1.3170142441
   75      S       4.9750135335     4.6002964204    -0.6021673555
   76      C       3.0145774935     3.3542855538     0.6816540703
   77      C       1.0831430212     1.9110326476     1.3683737569
   78      C       3.4074044832     5.4404105939    -0.3467049493
   79      C       2.5130237820     4.6489665511     0.3941597405
   80      N       0.7086371846     0.7028146677     1.0640405656
   81      S      -0.1621248734     3.0611411716     1.6373890979
   82      C      -0.6502500243     0.4525351435     1.3866652907
   83      C      -1.3245655837     1.6785510521     1.6885667952
   84      C      13.5962978949    -2.2295047275    -2.0771979449
   85      H      11.1654942733    -2.3724714028    -3.2215323728
   86      H       9.0987538446    -1.0139486714    -2.7763796026
   87      H      11.0932609611     0.7714934069     0.5704463486
   88      H       7.3399239759    -0.6382850256    -1.7226119252
   89      H       3.2784402988     6.4178953768    -0.7922391661
   90      H       1.5187587558     5.0096935126     0.6279996789
   91      H      -1.0311905030    -0.5588797102     1.3239249903
   92      H      -2.3552295222     1.9043413058     1.9279025575
   93      H      13.3580675040    -3.2991577702    -2.1164617848
   94      C      14.8806413601    -1.8624848319    -1.3631718532
   95      H      13.7887503037    -1.9510900271    -3.1200950275
   96      H      14.7468526375    -1.8694476552    -0.2744004829
   97      H      15.0673582013    -0.8133727783    -1.6237303307
   98      C      16.0325042148    -2.7791016175    -1.7728822781
   99      H      15.9058510525    -3.8484579662    -1.5671738051
  100      C      17.3837686849    -2.1315845943    -1.4556646295
  101      H      15.9976894288    -2.7221550543    -2.8671747525
  102      H      17.3077119757    -1.8170420950    -0.4077875407
  103      H      17.7411093214    -1.3108090457    -2.0891345722
  104      C      18.5519330469    -3.1042098831    -1.4998695025
  105      H      18.5574704821    -3.7010159568    -0.5798054573
  106      C      19.9621663144    -2.3772271800    -1.5225031253
  107      H      18.4420295036    -3.8376989703    -2.3081144964
  108      H      20.1091512597    -1.9977116300    -0.5036074617
  109      H      20.0030937923    -1.6183861269    -2.3148813163
  110      H      20.7406458338    -3.1395675528    -1.6454860254
 ----------------------------------------------------------------

   10   -5663.4781220559      3.91E-06 Convergence criterion met
 Total energy in the final basis set = -5663.4781220559

                    Orbital Energies (a.u.)
 --------------------------------------------------------------

 Alpha MOs
 -- Occupied --
-88.988 -88.987 -88.931 -88.923 -88.919 -88.915 -88.914 -88.905
-14.387 -14.386 -14.384 -14.378 -14.350 -14.345 -14.343 -14.332
-14.331 -14.327 -10.272 -10.266 -10.255 -10.255 -10.252 -10.250
-10.250 -10.248 -10.247 -10.242 -10.237 -10.235 -10.235 -10.234
-10.233 -10.233 -10.232 -10.231 -10.230 -10.229 -10.229 -10.228
-10.227 -10.227 -10.227 -10.225 -10.224 -10.221 -10.220 -10.220
-10.216 -10.213 -10.207 -10.205 -10.204 -10.203 -10.200 -10.198
-10.189 -10.186 -10.175 -10.173 -10.173 -10.173 -10.171 -10.169
-10.168 -10.168 -10.163 -10.157  -8.043  -8.043  -7.993  -7.981
 -7.976  -7.976  -7.974  -7.966  -6.008  -6.008  -6.003  -6.002
 -6.001  -6.000  -5.957  -5.953  -5.950  -5.945  -5.941  -5.941
 -5.940  -5.939  -5.937  -5.937  -5.936  -5.935  -5.933  -5.933
 -5.930  -5.930  -5.927  -5.922  -1.042  -1.039  -0.972  -0.965
 -0.959  -0.951  -0.945  -0.929  -0.921  -0.912  -0.908  -0.900
 -0.849  -0.835  -0.829  -0.823  -0.813  -0.812  -0.810  -0.807
 -0.798  -0.796  -0.793  -0.785  -0.781  -0.777  -0.763  -0.763
 -0.751  -0.745  -0.738  -0.735  -0.728  -0.718  -0.708  -0.708
 -0.692  -0.688  -0.680  -0.671  -0.654  -0.651  -0.645  -0.644
 -0.633  -0.632  -0.625  -0.624  -0.607  -0.604  -0.601  -0.593
 -0.592  -0.589  -0.581  -0.578  -0.573  -0.567  -0.566  -0.564
 -0.549  -0.546  -0.544  -0.533  -0.528  -0.522  -0.522  -0.513
 -0.509  -0.506  -0.499  -0.493  -0.482  -0.481  -0.475  -0.475
 -0.475  -0.472  -0.472  -0.471  -0.464  -0.462  -0.452  -0.451
 -0.445  -0.441  -0.438  -0.437  -0.437  -0.433  -0.431  -0.426
 -0.422  -0.421  -0.421  -0.417  -0.416  -0.414  -0.413  -0.412
 -0.410  -0.406  -0.405  -0.404  -0.401  -0.398  -0.396  -0.395
 -0.393  -0.391  -0.390  -0.386  -0.385  -0.383  -0.382  -0.379
 -0.378  -0.373  -0.367  -0.365  -0.363  -0.361  -0.358  -0.356
 -0.355  -0.351  -0.348  -0.347  -0.342  -0.342  -0.341  -0.337
 -0.337  -0.333  -0.330  -0.324  -0.322  -0.321  -0.320  -0.314
 -0.312  -0.311  -0.309  -0.303  -0.302  -0.300  -0.298  -0.298
 -0.296  -0.292  -0.292  -0.283  -0.283  -0.280  -0.279  -0.277
 -0.270  -0.265  -0.265  -0.260  -0.259  -0.250  -0.247  -0.243
 -0.242  -0.240  -0.234  -0.228  -0.197  -0.191

          Ground-State Mulliken Net Atomic Charges

     Atom                 Charge (a.u.)
  ----------------------------------------
      1 C                     0.293945
      2 C                    -0.131195
      3 N                    -0.491341
      4 C                    -0.069529
      5 C                     0.108687
      6 C                     0.002162
      7 C                     0.055075
      8 C                     0.048333
      9 C                     0.246260
     10 N                    -0.517284
     11 N                    -0.578006
     12 C                     0.240604
     13 C                     0.291375
     14 S                     0.586538
     15 N                    -0.564485
     16 C                    -0.236771
     17 S                     0.364939
     18 C                    -0.122753
     19 C                    -0.235346
     20 S                     0.288888
     21 C                     0.145178
     22 C                     0.078835
     23 C                    -0.313981
     24 C                    -0.064947
     25 N                    -0.435147
     26 S                     0.277135
     27 C                     0.121131
     28 C                    -0.312310
     29 C                    -0.240789
     30 H                     0.085708
     31 H                     0.105130
     32 H                     0.120137
     33 H                     0.106745
     34 H                     0.129073
     35 H                     0.112523
     36 H                     0.119596
     37 H                     0.132539
     38 H                     0.104986
     39 C                    -0.171102
     40 H                     0.116137
     41 H                     0.101964
     42 H                     0.121706
     43 C                    -0.182442
     44 H                     0.085581
     45 C                    -0.184996
     46 H                     0.091750
     47 H                     0.094076
     48 H                     0.115194
     49 C                    -0.180527
     50 H                     0.087280
     51 C                    -0.322017
     52 H                     0.085932
     53 H                     0.105065
     54 H                     0.124197
     55 H                     0.082198
     56 C                     0.285268
     57 C                    -0.122113
     58 N                    -0.504929
     59 C                    -0.079579
     60 C                     0.093670
     61 C                     0.036276
     62 C                     0.050476
     63 C                     0.048937
     64 C                     0.214640
     65 N                    -0.491240
     66 N                    -0.556033
     67 C                     0.241857
     68 C                     0.209845
     69 S                     0.600406
     70 N                    -0.533768
     71 C                    -0.187810
     72 S                     0.364579
     73 C                    -0.110161
     74 C                    -0.234669
     75 S                     0.237587
     76 C                     0.137472
     77 C                     0.070694
     78 C                    -0.296591
     79 C                    -0.072200
     80 N                    -0.432579
     81 S                     0.239247
     82 C                     0.102212
     83 C                    -0.327812
     84 C                    -0.242259
     85 H                     0.087004
     86 H                     0.099526
     87 H                     0.129837
     88 H                     0.108705
     89 H                     0.135643
     90 H                     0.113560
     91 H                     0.153774
     92 H                     0.133779
     93 H                     0.114323
     94 C                    -0.172258
     95 H                     0.114408
     96 H                     0.113261
     97 H                     0.105821
     98 C                    -0.184746
     99 H                     0.096219
    100 C                    -0.163305
    101 H                     0.088379
    102 H                     0.095362
    103 H                     0.093322
    104 C                    -0.190204
    105 H                     0.091173
    106 C                    -0.325262
    107 H                     0.086886
    108 H                     0.107892
    109 H                     0.102824
    110 H                     0.101022
  ----------------------------------------
  Sum of atomic charges =     0.000000

                    Cartesian Multipole Moments
 -----------------------------------------------------------------
    Charge (ESU x 10^10)
                 0.0000
    Dipole Moment (Debye)
         X      -4.7140      Y      -0.8767      Z      -1.6995
       Tot       5.0871
    Quadrupole Moments (Debye-Ang)
        XX    -375.4049     XY      -6.1790     YY    -409.1282
        XZ       0.3972     YZ      -1.5094     ZZ    -441.8958

 Total job time:  93.60s(wall), 1018.31s(cpu)
        *  Thank you very much for using Q-Chem.  Have a nice day.  *
