 Q-Chem 4.4, Q-Chem, Inc., Pleasanton, CA (2016)
 Q-Chem 4.4.2 for Intel X86 Linux

User input:
--------------------------------------------------------------
$comment
SP
$end

$rem
MEM_STATIC 5000
MEM_TOTAL 20000
JOBTYPE SP
EXCHANGE B3LYP
BASIS 6-31g(d,p)
$end

$molecule
0 1
C           8.521000     18.961000     -7.674000
C           7.254000     18.640000     -8.247000
N           9.184000     18.096000     -6.950000
C           6.681000     17.372000     -7.963000
C           8.673000     16.896000     -6.624000
C           7.410000     16.445000     -7.178000
C           6.884000     15.109000     -6.892000
C           5.647000     14.812000     -6.315000
C           7.632000     13.931000     -7.198000
N           5.116000     13.621000     -5.953000
N           8.779000     13.924000     -7.880000
C           7.110000     12.667000     -6.901000
C           5.860000     12.529000     -6.225000
S           9.177000     12.421000     -8.026000
N           7.901000     11.651000     -7.251000
C           5.340000     11.184000     -5.970000
S           6.205000      9.632000     -5.891000
C           4.020000     10.989000     -5.522000
C           4.773000      8.758000     -5.394000
S           2.808000     12.102000     -5.060000
C           3.752000      9.691000     -5.218000
C           4.692000      7.279000     -5.275000
C           1.785000     10.720000     -4.526000
C           2.453000      9.525000     -4.673000
N           5.511000      6.595000     -5.978000
S           3.530000      6.291000     -4.374000
C           5.205000      5.246000     -6.042000
C           4.233000      4.872000     -5.165000
C           9.180000     20.335000     -7.923000
H           6.593000     19.457000     -8.522000
H           5.665000     17.122000     -8.255000
H           9.209000     16.346000     -5.852000
H           4.964000     15.640000     -6.131000
H           0.759000     10.893000     -4.230000
H           2.015000      8.577000     -4.382000
H           5.793000      4.644000     -6.723000
H           3.861000      3.880000     -4.946000
H          10.259000     20.137000     -7.930000
C           8.652000     21.403000     -6.930000
H           8.887000     20.609000     -8.945000
H           8.773000     21.159000     -5.867000
H           7.581000     21.543000     -7.125000
C           9.507000     22.702000     -7.307000
H          10.551000     22.459000     -7.075000
C           8.929000     24.044000     -6.761000
H           9.474000     22.934000     -8.379000
H           9.007000     23.883000     -5.679000
H           7.857000     24.035000     -6.993000
C           9.546000     25.386000     -7.103000
H          10.620000     25.281000     -6.907000
C           8.812000     26.458000     -6.259000
H           9.351000     25.417000     -8.182000
H           9.271000     27.442000     -6.414000
H           8.658000     26.176000     -5.210000
H           7.861000     26.505000     -6.804000
C         -10.616000      8.817000     -0.040000
C          -9.771000      9.175000     -1.114000
N         -10.100000      8.164000      1.019000
C          -8.477000      8.650000     -1.214000
C          -8.814000      7.698000      1.010000
C          -7.972000      7.873000     -0.125000
C          -6.484000      7.475000     -0.098000
C          -5.518000      8.089000     -0.880000
C          -5.952000      6.419000      0.781000
N          -4.208000      7.896000     -0.674000
N          -6.758000      5.572000      1.459000
C          -4.637000      6.100000      0.806000
C          -3.758000      6.916000      0.100000
S          -5.691000      4.603000      2.327000
N          -4.297000      5.164000      1.691000
C          -2.357000      6.867000      0.138000
S          -1.204000      8.230000      0.379000
C          -1.640000      5.755000     -0.248000
C           0.179000      7.183000      0.016000
S          -2.268000      4.264000     -0.974000
C          -0.284000      5.927000     -0.389000
C           1.464000      7.724000     -0.372000
C          -0.567000      3.719000     -1.169000
C           0.342000      4.711000     -0.763000
N           1.506000      8.944000     -0.822000
S           2.923000      6.823000     -0.445000
C           2.830000      9.442000     -0.933000
C           3.776000      8.376000     -0.800000
C         -12.049000      9.425000     -0.055000
H         -10.122000      9.858000     -1.882000
H          -7.802000      8.903000     -2.026000
H          -8.381000      7.131000      1.833000
H          -5.776000      8.919000     -1.536000
H          -0.395000      2.739000     -1.594000
H           1.410000      4.541000     -0.825000
H           2.984000     10.492000     -1.147000
H           4.855000      8.345000     -0.873000
H         -12.033000     10.511000     -0.206000
C         -12.982000      8.920000      1.026000
H         -12.480000      9.024000     -0.980000
H         -12.543000      9.049000      2.023000
H         -13.040000      7.835000      0.875000
C         -14.351000      9.594000      0.946000
H         -14.369000     10.684000      1.062000
C         -15.410000      8.766000      1.680000
H         -14.624000      9.443000     -0.105000
H         -14.978000      8.566000      2.668000
H         -15.778000      7.843000      1.216000
C         -16.699000      9.526000      1.951000
H         -16.548000     10.196000      2.806000
C         -17.897000      8.579000      2.382000
H         -16.964000     10.190000      1.119000
H         -17.671000      8.276000      3.412000
H         -18.025000      7.754000      1.669000
H         -18.804000      9.189000      2.469000
$end

--------------------------------------------------------------

             Standard Nuclear Orientation (Angstroms)
    I     Atom           X                Y                Z
 ----------------------------------------------------------------
    1      C     -11.9984824218    -3.2802819643    -0.2287506079
    2      C     -11.0389929884    -3.6305041236    -1.2254368506
    3      N     -11.8651284334    -2.2028024663     0.5014717180
    4      C      -9.8841866983    -2.8172084430    -1.3730226506
    5      C     -10.7764210007    -1.4177722098     0.4250477536
    6      C      -9.7528192126    -1.6533341266    -0.5760696035
    7      C      -8.6035840453    -0.7576736735    -0.7189642601
    8      C      -7.2568050883    -1.1181794803    -0.6321944255
    9      C      -8.7719251970     0.6375180146    -0.9757237005
   10      N      -6.1429292179    -0.3510497508    -0.6799283066
   11      N      -9.9436276192     1.2172595113    -1.2436700214
   12      C      -7.6552977668     1.4726863318    -1.0941553856
   13      C      -6.3354786493     0.9674373175    -0.8908798819
   14      S      -9.6202343196     2.7194372784    -1.5222516609
   15      N      -7.9496703373     2.7489617226    -1.3489158941
   16      C      -5.1982923807     1.8740089493    -1.0623011966
   17      S      -5.1458053985     3.6503252687    -0.9907788209
   18      C      -3.8793865263     1.3842153365    -1.1037567626
   19      C      -3.4034043623     3.6934401909    -1.1446902643
   20      S      -3.2496194230    -0.1862153316    -0.8623071565
   21      C      -2.9490916996     2.3753022863    -1.1403927208
   22      C      -2.6077602771     4.9353087062    -1.3260078875
   23      C      -1.5873770453     0.5009463157    -0.9421078354
   24      C      -1.6249264726     1.8704422907    -1.0796898652
   25      N      -3.2085530757     5.9389523343    -1.8403749556
   26      S      -0.8815534880     5.2101666018    -1.0381672051
   27      C      -2.3591926448     6.9567594732    -2.2406104944
   28      C      -1.0799746063     6.7938177561    -1.8037578800
   29      C     -13.2589425532    -4.1428225725    -0.0019865096
   30      H     -10.9866735604    -4.6670804650    -1.5460724161
   31      H      -9.0566685378    -3.1051158326    -2.0151620662
   32      H     -10.6693242622    -0.6768876668     1.2158703523
   33      H      -7.0231878774    -2.1770071986    -0.5310219895
   34      H      -0.7321004202    -0.1610362313    -0.9645132401
   35      H      -0.7249023161     2.4734060501    -1.1199418524
   36      H      -2.8038150854     7.7741967419    -2.7937978018
   37      H      -0.2391691026     7.4680755225    -1.8977343096
   38      H     -14.0391204283    -3.4338790360     0.3016836159
   39      C     -12.9643611783    -5.3357180474     0.9444167867
   40      H     -13.5256004562    -4.5224076919    -0.9970833391
   41      H     -12.5579553152    -5.0679410794     1.9279185762
   42      H     -12.2379351927    -5.9896046252     0.4450135120
   43      C     -14.3949895956    -6.0351423619     1.1014612381
   44      H     -15.0382416521    -5.3055140544     1.6080955488
   45      C     -14.3515875486    -7.4888433108     1.6654061054
   46      H     -14.8700478679    -6.2486653002     0.1356327891
   47      H     -13.9420807173    -7.3145287291     2.6677272025
   48      H     -13.5687781275    -8.0138668384     1.1044705424
   49      C     -15.5975211659    -8.3441864213     1.7864622266
   50      H     -16.3422463092    -7.7191635572     2.2940524947
   51      C     -15.1935438298    -9.6425414071     2.5289934669
   52      H     -15.8512857003    -8.4640218348     0.7260519122
   53      H     -16.0772265104   -10.2667916674     2.7089338252
   54      H     -14.5530279763    -9.4786700653     3.4045085294
   55      H     -14.6492653724   -10.1546889682     1.7258117711
   56      C      10.9381798856    -4.0399743887    -1.0865679650
   57      C       9.6963403418    -3.9256316295    -1.7502134131
   58      N      11.2146807323    -3.2208208347    -0.0537655943
   59      C       8.8605378492    -2.8257011828    -1.5229509967
   60      C      10.3913750420    -2.1763893197     0.2661774486
   61      C       9.2144958138    -1.9046010496    -0.4880774277
   62      C       8.2100652143    -0.8187100503    -0.0576858517
   63      C       6.8591714029    -0.8672577795    -0.3649398640
   64      C       8.5946210925     0.3585978781     0.7403516276
   65      N       5.9687916442    -0.0484583457     0.2117544852
   66      N       9.8865302469     0.6892709487     0.9602494613
   67      C       7.6921938005     1.2898527062     1.1276505143
   68      C       6.3455589135     1.0225160079     0.8995308723
   69      S       9.7955153675     2.0575318160     1.9351609910
   70      N       8.1779697087     2.2674773158     1.8913211827
   71      C       5.2532547212     1.7623823909     1.3750466834
   72      S       3.7798715974     1.1534523414     2.2138585608
   73      C       5.0498555387     3.0852085638     1.0458223088
   74      C       3.0180414778     2.7514016131     2.1311543047
   75      S       5.9813542668     4.0683860442    -0.0988231217
   76      C       3.8254343564     3.6116959135     1.3801946146
   77      C       1.5887565725     2.9234738909     2.2794303670
   78      C       4.7919386969     5.3886587557     0.1669240689
   79      C       3.7480616173     4.9793631052     1.0142603144
   80      N       0.8231466629     1.8880724219     2.0938252366
   81      S       0.8044695863     4.4315328465     2.5170500411
   82      C      -0.5158105450     2.1157918412     2.5044813719
   83      C      -0.7343840849     3.5107488531     2.7396016446
   84      C      11.8052034327    -5.2806494357    -1.4503997895
   85      H       9.3798820850    -4.6897686691    -2.4541045670
   86      H       7.9007236020    -2.7059397751    -2.0162985578
   87      H      10.6081100327    -1.4722377436     1.0683641486
   88      H       6.4406799909    -1.7130066090    -0.9084229415
   89      H       4.9521220713     6.3258186896    -0.3494881162
   90      H       2.9435373511     5.6587579855     1.2682904344
   91      H      -1.2060269802     1.2826789931     2.5436764593
   92      H      -1.6163471320     4.0751157194     3.0119290647
   93      H      11.2326346552    -6.2139305698    -1.3903638026
   94      C      13.1887775136    -5.3113469704    -0.8348874632
   95      H      11.9987754527    -5.1439235338    -2.5209243809
   96      H      13.1414957929    -5.2084757377     0.2562371623
   97      H      13.6837479220    -4.3986866149    -1.1890701424
   98      C      13.9496981006    -6.5771472696    -1.2267885514
   99      H      13.5007901896    -7.5318479302    -0.9286135421
  100      C      15.4572494217    -6.3891276892    -1.0324726964
  101      H      13.8535756810    -6.5780857115    -2.3188923010
  102      H      15.5650424326    -6.0043842180    -0.0111396811
  103      H      16.0118054123    -5.7701014365    -1.7479607479
  104      C      16.2427617712    -7.6910259648    -1.0568289829
  105      H      16.1242225588    -8.2001758102    -0.0927538353
  106      C      17.8062271896    -7.4678476796    -1.2102608514
  107      H      15.8423009732    -8.3956232981    -1.7960980457
  108      H      18.1432814431    -7.0965005194    -0.2344121353
  109      H      18.0303744262    -6.8133682225    -2.0627822039
  110      H      18.2859205362    -8.4487679271    -1.3102996513
 ----------------------------------------------------------------

    9   -5663.4766820247      7.50E-06 Convergence criterion met
 Total energy in the final basis set = -5663.4766820247

                    Orbital Energies (a.u.)
 --------------------------------------------------------------

 Alpha MOs
 -- Occupied --
-88.992 -88.981 -88.927 -88.925 -88.925 -88.922 -88.911 -88.906
-14.390 -14.388 -14.382 -14.377 -14.350 -14.348 -14.339 -14.335
-14.334 -14.323 -10.273 -10.263 -10.259 -10.259 -10.254 -10.253
-10.249 -10.247 -10.245 -10.240 -10.239 -10.238 -10.238 -10.237
-10.237 -10.236 -10.236 -10.234 -10.234 -10.234 -10.232 -10.231
-10.230 -10.227 -10.226 -10.223 -10.221 -10.221 -10.217 -10.216
-10.216 -10.213 -10.211 -10.210 -10.203 -10.202 -10.199 -10.197
-10.192 -10.191 -10.186 -10.180 -10.179 -10.177 -10.177 -10.175
-10.174 -10.174 -10.173 -10.171  -8.047  -8.037  -7.987  -7.983
 -7.983  -7.983  -7.972  -7.966  -6.012  -6.007  -6.005  -6.003
 -5.997  -5.995  -5.951  -5.948  -5.948  -5.947  -5.947  -5.944
 -5.944  -5.944  -5.944  -5.940  -5.940  -5.940  -5.936  -5.933
 -5.930  -5.928  -5.927  -5.922  -1.046  -1.043  -0.977  -0.969
 -0.959  -0.956  -0.940  -0.932  -0.915  -0.913  -0.909  -0.905
 -0.842  -0.841  -0.835  -0.827  -0.818  -0.809  -0.803  -0.802
 -0.798  -0.798  -0.792  -0.792  -0.783  -0.783  -0.767  -0.764
 -0.749  -0.749  -0.741  -0.739  -0.725  -0.723  -0.712  -0.708
 -0.696  -0.693  -0.677  -0.671  -0.657  -0.652  -0.650  -0.638
 -0.636  -0.633  -0.628  -0.627  -0.610  -0.608  -0.602  -0.598
 -0.596  -0.593  -0.583  -0.582  -0.577  -0.573  -0.569  -0.567
 -0.551  -0.542  -0.540  -0.539  -0.528  -0.521  -0.518  -0.514
 -0.511  -0.505  -0.500  -0.496  -0.488  -0.479  -0.479  -0.476
 -0.476  -0.475  -0.475  -0.470  -0.467  -0.467  -0.453  -0.450
 -0.445  -0.445  -0.444  -0.439  -0.438  -0.437  -0.430  -0.429
 -0.428  -0.427  -0.423  -0.421  -0.419  -0.416  -0.415  -0.413
 -0.412  -0.411  -0.408  -0.402  -0.401  -0.399  -0.397  -0.397
 -0.395  -0.392  -0.390  -0.388  -0.387  -0.386  -0.385  -0.383
 -0.376  -0.375  -0.371  -0.371  -0.368  -0.364  -0.358  -0.357
 -0.354  -0.352  -0.349  -0.348  -0.347  -0.345  -0.345  -0.344
 -0.340  -0.338  -0.336  -0.332  -0.329  -0.324  -0.323  -0.322
 -0.316  -0.315  -0.307  -0.304  -0.304  -0.302  -0.300  -0.297
 -0.296  -0.293  -0.290  -0.287  -0.285  -0.284  -0.276  -0.275
 -0.274  -0.269  -0.267  -0.260  -0.255  -0.249  -0.247  -0.246
 -0.242  -0.241  -0.233  -0.232  -0.197  -0.194

          Ground-State Mulliken Net Atomic Charges

     Atom                 Charge (a.u.)
  ----------------------------------------
      1 C                     0.257303
      2 C                    -0.127644
      3 N                    -0.463269
      4 C                    -0.074926
      5 C                     0.097552
      6 C                     0.018870
      7 C                     0.028559
      8 C                     0.044875
      9 C                     0.198740
     10 N                    -0.531547
     11 N                    -0.504816
     12 C                     0.226153
     13 C                     0.318219
     14 S                     0.589050
     15 N                    -0.582261
     16 C                    -0.237638
     17 S                     0.367571
     18 C                    -0.111750
     19 C                    -0.227590
     20 S                     0.281829
     21 C                     0.142094
     22 C                     0.059683
     23 C                    -0.324539
     24 C                    -0.064741
     25 N                    -0.409519
     26 S                     0.264714
     27 C                     0.122724
     28 C                    -0.315640
     29 C                    -0.215682
     30 H                     0.091387
     31 H                     0.102070
     32 H                     0.109120
     33 H                     0.100211
     34 H                     0.138617
     35 H                     0.115670
     36 H                     0.120414
     37 H                     0.136504
     38 H                     0.118979
     39 C                    -0.177972
     40 H                     0.103829
     41 H                     0.114077
     42 H                     0.094755
     43 C                    -0.185659
     44 H                     0.097849
     45 C                    -0.180204
     46 H                     0.086442
     47 H                     0.082717
     48 H                     0.084207
     49 C                    -0.181457
     50 H                     0.095316
     51 C                    -0.309015
     52 H                     0.094493
     53 H                     0.101238
     54 H                     0.112061
     55 H                     0.106437
     56 C                     0.285969
     57 C                    -0.122563
     58 N                    -0.504370
     59 C                    -0.079236
     60 C                     0.094234
     61 C                     0.035620
     62 C                     0.051407
     63 C                     0.048043
     64 C                     0.214619
     65 N                    -0.490438
     66 N                    -0.556301
     67 C                     0.242188
     68 C                     0.208250
     69 S                     0.602896
     70 N                    -0.533026
     71 C                    -0.177507
     72 S                     0.348125
     73 C                    -0.110628
     74 C                    -0.222601
     75 S                     0.241144
     76 C                     0.136784
     77 C                     0.065928
     78 C                    -0.296326
     79 C                    -0.073803
     80 N                    -0.428268
     81 S                     0.251646
     82 C                     0.111851
     83 C                    -0.321221
     84 C                    -0.242165
     85 H                     0.087944
     86 H                     0.099686
     87 H                     0.130037
     88 H                     0.108398
     89 H                     0.135576
     90 H                     0.111596
     91 H                     0.133102
     92 H                     0.138005
     93 H                     0.114899
     94 C                    -0.172724
     95 H                     0.114793
     96 H                     0.113457
     97 H                     0.105929
     98 C                    -0.184575
     99 H                     0.096541
    100 C                    -0.164173
    101 H                     0.088540
    102 H                     0.095551
    103 H                     0.093553
    104 C                    -0.190198
    105 H                     0.091433
    106 C                    -0.325309
    107 H                     0.087058
    108 H                     0.107972
    109 H                     0.102871
    110 H                     0.101323
  ----------------------------------------
  Sum of atomic charges =     0.000000

                    Cartesian Multipole Moments
 -----------------------------------------------------------------
    Charge (ESU x 10^10)
                 0.0000
    Dipole Moment (Debye)
         X       1.7967      Y       0.5290      Z      -1.8787
       Tot       2.6528
    Quadrupole Moments (Debye-Ang)
        XX    -461.3792     XY      17.4806     YY    -395.1016
        XZ      -9.0583     YZ       7.2574     ZZ    -444.5237

 Total job time:  84.33s(wall), 900.18s(cpu)
        *  Thank you very much for using Q-Chem.  Have a nice day.  *
