 Q-Chem 4.4, Q-Chem, Inc., Pleasanton, CA (2016)
 Q-Chem 4.4.2 for Intel X86 Linux

User input:
--------------------------------------------------------------
$comment
SP
$end

$rem
MEM_STATIC 5000
MEM_TOTAL 20000
JOBTYPE SP
EXCHANGE B3LYP
BASIS 6-31g(d,p)
$end

$molecule
0 1
C           1.253000      7.360000      3.278000
C           0.117000      6.548000      3.290000
N           2.451000      6.788000      2.989000
C           0.293000      5.180000      3.167000
C           2.587000      5.548000      2.779000
C           1.538000      4.623000      2.944000
C           1.711000      3.161000      2.834000
C           2.007000      2.500000      1.663000
C           1.524000      2.305000      3.984000
N           2.444000      1.246000      1.613000
N           1.033000      2.651000      5.212000
C           1.941000      0.959000      3.938000
C           2.461000      0.487000      2.737000
S           0.816000      1.258000      5.975000
N           1.558000      0.188000      4.972000
C           3.279000     -0.710000      2.605000
S           3.436000     -1.770000      1.242000
C           4.271000     -0.931000      3.507000
C           4.886000     -2.556000      1.891000
S           4.693000     -0.135000      5.033000
C           5.162000     -1.916000      3.079000
C           5.712000     -3.615000      1.347000
C           6.107000     -1.214000      5.146000
C           6.188000     -2.102000      4.033000
N           7.053000     -3.510000      1.541000
S           5.195000     -4.639000      0.117000
C           7.649000     -4.365000      0.753000
C           6.866000     -5.133000     -0.049000
C           1.190000      8.870000      3.563000
H          -0.824000      6.985000      3.611000
H          -0.534000      4.482000      3.269000
H           3.619000      5.252000      2.597000
H           2.232000      3.081000      0.770000
H           6.659000     -1.166000      6.075000
H           6.936000     -2.885000      3.990000
H           8.717000     -4.492000      0.879000
H           6.994000     -5.987000     -0.701000
H           1.873000      9.382000      2.874000
C           1.563000      9.263000      4.994000
H           0.156000      9.164000      3.344000
H           2.500000      8.785000      5.307000
H           0.771000      8.999000      5.706000
C           1.784000     10.770000      5.192000
H           2.722000     11.093000      4.722000
C           1.640000     11.214000      6.653000
H           1.035000     11.359000      4.648000
H           0.653000     10.846000      6.959000
H           1.623000     12.309000      6.720000
C           2.798000     10.723000      7.503000
H           2.588000      9.675000      7.750000
C           2.836000     11.338000      8.918000
H           3.759000     10.922000      7.013000
H           2.829000     12.434000      8.940000
H           3.655000     11.064000      9.595000
H           1.887000     11.129000      9.427000
C         -10.616000      8.817000     -0.040000
C          -9.771000      9.175000     -1.114000
N         -10.100000      8.164000      1.019000
C          -8.477000      8.650000     -1.214000
C          -8.814000      7.698000      1.010000
C          -7.972000      7.873000     -0.125000
C          -6.484000      7.475000     -0.098000
C          -5.518000      8.089000     -0.880000
C          -5.952000      6.419000      0.781000
N          -4.208000      7.896000     -0.674000
N          -6.758000      5.572000      1.459000
C          -4.637000      6.100000      0.806000
C          -3.758000      6.916000      0.100000
S          -5.691000      4.603000      2.327000
N          -4.297000      5.164000      1.691000
C          -2.357000      6.867000      0.138000
S          -1.204000      8.230000      0.379000
C          -1.640000      5.755000     -0.248000
C           0.179000      7.183000      0.016000
S          -2.268000      4.264000     -0.974000
C          -0.284000      5.927000     -0.389000
C           1.464000      7.724000     -0.372000
C          -0.567000      3.719000     -1.169000
C           0.342000      4.711000     -0.763000
N           1.506000      8.944000     -0.822000
S           2.923000      6.823000     -0.445000
C           2.830000      9.442000     -0.933000
C           3.776000      8.376000     -0.800000
C         -12.049000      9.425000     -0.055000
H         -10.122000      9.858000     -1.882000
H          -7.802000      8.903000     -2.026000
H          -8.381000      7.131000      1.833000
H          -5.776000      8.919000     -1.536000
H          -0.395000      2.739000     -1.594000
H           1.410000      4.541000     -0.825000
H           2.984000     10.492000     -1.147000
H           4.855000      8.345000     -0.873000
H         -12.033000     10.511000     -0.206000
C         -12.982000      8.920000      1.026000
H         -12.480000      9.024000     -0.980000
H         -12.543000      9.049000      2.023000
H         -13.040000      7.835000      0.875000
C         -14.351000      9.594000      0.946000
H         -14.369000     10.684000      1.062000
C         -15.410000      8.766000      1.680000
H         -14.624000      9.443000     -0.105000
H         -14.978000      8.566000      2.668000
H         -15.778000      7.843000      1.216000
C         -16.699000      9.526000      1.951000
H         -16.548000     10.196000      2.806000
C         -17.897000      8.579000      2.382000
H         -16.964000     10.190000      1.119000
H         -17.671000      8.276000      3.412000
H         -18.025000      7.754000      1.669000
H         -18.804000      9.189000      2.469000
$end

--------------------------------------------------------------

             Standard Nuclear Orientation (Angstroms)
    I     Atom           X                Y                Z
 ----------------------------------------------------------------
    1      C       0.7364134066     3.7101654108     0.3043526490
    2      C       0.1894723056     2.4949414757     0.7215698819
    3      N       2.0268486596     3.7240620496    -0.1204917242
    4      C       1.0353248266     1.4042638369     0.8333052882
    5      C       2.7648585260     2.6967408750    -0.1082998778
    6      C       2.3638393215     1.4714836588     0.4584269982
    7      C       3.2568435183     0.3046468845     0.6016347024
    8      C       3.7475366444    -0.4317636532    -0.4532102037
    9      C       3.6408834278    -0.1773230081     1.9094662552
   10      N       4.7631955746    -1.2825937736    -0.3506916995
   11      N       3.1518637909     0.2194250954     3.1228218243
   12      C       4.6873912931    -1.1132619856     2.0381539331
   13      C       5.2685791832    -1.5936786275     0.8689638345
   14      S       3.7537813350    -0.8324015850     4.1721372699
   15      N       4.8503935975    -1.6501978887     3.2610259970
   16      C       6.5720737307    -2.2381779604     0.7991098826
   17      S       7.1336508853    -3.4270093117    -0.3310799765
   18      C       7.6103835137    -1.6977765775     1.4893186480
   19      C       8.8316997226    -3.2097199847     0.1281721271
   20      S       7.6926465313    -0.4074363275     2.7011894477
   21      C       8.8405110133    -2.2133033065     1.0790644262
   22      C      10.0345057291    -3.8502779618    -0.3644090223
   23      C       9.4643086543    -0.6010328026     2.7130100573
   24      C       9.8942650826    -1.6130114654     1.8047641347
   25      N      11.1394095944    -3.0691667914    -0.4908795247
   26      S      10.0151390625    -5.2934188294    -1.2279681509
   27      C      12.0194922278    -3.7174097244    -1.2067151610
   28      C      11.6789298723    -4.9546415381    -1.6532481621
   29      C      -0.0723262502     5.0182748786     0.2951990883
   30      H      -0.8095224657     2.4999951174     1.1475685999
   31      H       0.7005646943     0.4565183674     1.2471303466
   32      H       3.7807246629     2.8913798169    -0.4487344150
   33      H       3.5605214837    -0.0892245984    -1.4697372942
   34      H       9.9912752771    -0.0386978456     3.4720453494
   35      H      10.9320734722    -1.9209785172     1.7542464003
   36      H      13.0057726190    -3.2788334988    -1.2934958291
   37      H      12.1718608777    -5.7872965163    -2.1375091572
   38      H       0.1843033209     5.5785993749    -0.6122873977
   39      C       0.1680626695     5.9228310664     1.5057073577
   40      H      -1.1241012535     4.7091787639     0.2529861259
   41      H       1.2405472221     6.0585127286     1.6948881471
   42      H      -0.3075059771     5.5236638671     2.4103642039
   43      C      -0.4048952315     7.3396071885     1.3522190406
   44      H       0.1858031595     7.9250693700     0.6357119263
   45      C      -0.6285373382     8.0484997210     2.6938033971
   46      H      -1.3949107920     7.3216772292     0.8795609120
   47      H      -1.2521310565     7.3564224051     3.2729310714
   48      H      -1.2028506876     8.9718212036     2.5473635922
   49      C       0.6860749616     8.4284992757     3.3510246990
   50      H       1.0703682338     7.5236779732     3.8378820616
   51      C       0.5250505664     9.3538908851     4.5756125944
   52      H       1.3586680097     8.9159908106     2.6346500798
   53      H      -0.0452171010    10.2702644108     4.3837706051
   54      H       1.4236293059     9.7048643168     5.0986230141
   55      H      -0.1304862357     8.8690852202     5.3095049355
   56      C     -10.4165015933    -1.6606834359    -0.5740570906
   57      C      -9.9761697872    -1.2588474623    -1.8547993562
   58      N      -9.5466056384    -1.6635814797     0.4542515348
   59      C      -8.6116465925    -1.1072833536    -2.1289631247
   60      C      -8.2113809073    -1.4412732875     0.2573074185
   61      C      -7.6844192407    -1.2104209428    -1.0453178526
   62      C      -6.2091231726    -0.8250631366    -1.2650401154
   63      C      -5.7723381587    -0.0706989735    -2.3429220946
   64      C      -5.1332116766    -1.2064546511    -0.3335059155
   65      N      -4.5388226495     0.4505766500    -2.3928842080
   66      N      -5.3224896127    -2.1077428039     0.6557273879
   67      C      -3.8462467114    -0.8383023079    -0.5329953398
   68      C      -3.5812408004     0.0641481336    -1.5588062716
   69      S      -3.8368437224    -2.1645574772     1.4434471232
   70      N      -2.9953275284    -1.2095529225     0.4225309681
   71      C      -2.3593821753     0.7019966774    -1.8173729662
   72      S      -2.0603990885     2.4551761182    -2.1041306378
   73      C      -1.2081426863     0.0093466637    -2.1248019781
   74      C      -0.3735011662     2.1407170843    -2.5470278221
   75      S      -1.0364840642    -1.7354344512    -2.3909094348
   76      C      -0.1545174961     0.7600297006    -2.5879973329
   77      C       0.4073082923     3.0962373294    -3.3031810146
   78      C       0.6766574303    -1.4329502658    -2.8404653680
   79      C       0.9740043570    -0.0593584430    -2.8438283267
   80      N      -0.2267686853     4.0077004976    -3.9812999419
   81      S       2.1089886397     3.0205985336    -3.5138318346
   82      C       0.6338138939     5.0232293378    -4.4726244771
   83      C       2.0019309249     4.6228718193    -4.3425066584
   84      C     -11.9523954659    -1.8414201851    -0.3958935711
   85      H     -10.6954654819    -1.0711012090    -2.6465562936
   86      H      -8.2388291903    -0.8009683951    -3.1016688000
   87      H      -7.4773446192    -1.4778847143     1.0611465387
   88      H      -6.4785316637     0.3151648051    -3.0765431670
   89      H       1.2921073467    -2.2863420184    -3.0925624068
   90      H       1.9659794088     0.2909429382    -3.1019802955
   91      H       0.2036932019     5.9122165218    -4.9161444622
   92      H       2.9304946239     5.0912150443    -4.6407600415
   93      H     -12.5131108439    -0.9706627866    -0.7562167840
   94      C     -12.3911136646    -2.4058009989     0.9394249823
   95      H     -12.1935827958    -2.6391831174    -1.1083470613
   96      H     -11.9962592110    -1.8108696495     1.7722020533
   97      H     -11.8932244320    -3.3799792393     1.0198803605
   98      C     -13.9123103791    -2.5191315446     1.0286087442
   99      H     -14.4805862138    -1.5867889203     0.9302227364
  100      C     -14.3219584487    -3.5096122095     2.1226642782
  101      H     -14.1591651903    -3.0683009426     0.1124173479
  102      H     -13.7638815611    -3.1947684896     3.0127157485
  103      H     -14.1992915834    -4.5838779542     1.9394841760
  104      C     -15.7886070067    -3.4152158115     2.5132962371
  105      H     -15.9310181138    -2.5462727936     3.1670416831
  106      C     -16.2817850772    -4.6556791594     3.3710841324
  107      H     -16.4304661663    -3.2201454726     1.6453622638
  108      H     -15.8422493628    -4.5132132491     4.3662207161
  109      H     -16.0272273037    -5.6032522606     2.8784549029
  110      H     -17.3617650068    -4.5554680727     3.5320781998
 ----------------------------------------------------------------

    9   -5663.4557227470      8.01E-06 Convergence criterion met
 Total energy in the final basis set = -5663.4557227470

                    Orbital Energies (a.u.)
 --------------------------------------------------------------

 Alpha MOs
 -- Occupied --
-88.992 -88.988 -88.928 -88.925 -88.923 -88.918 -88.909 -88.907
-14.390 -14.388 -14.387 -14.384 -14.346 -14.345 -14.339 -14.334
-14.331 -14.315 -10.267 -10.259 -10.259 -10.258 -10.258 -10.253
-10.252 -10.251 -10.238 -10.238 -10.237 -10.236 -10.236 -10.234
-10.234 -10.233 -10.233 -10.232 -10.231 -10.230 -10.228 -10.226
-10.225 -10.225 -10.225 -10.224 -10.223 -10.221 -10.216 -10.216
-10.209 -10.207 -10.203 -10.202 -10.201 -10.200 -10.198 -10.191
-10.191 -10.184 -10.178 -10.177 -10.176 -10.174 -10.174 -10.174
-10.174 -10.173 -10.172 -10.167  -8.047  -8.044  -7.991  -7.984
 -7.980  -7.978  -7.970  -7.968  -6.012  -6.009  -6.007  -6.005
 -6.003  -6.002  -5.954  -5.951  -5.949  -5.948  -5.945  -5.945
 -5.943  -5.941  -5.941  -5.939  -5.937  -5.935  -5.934  -5.932
 -5.931  -5.929  -5.925  -5.923  -1.043  -1.042  -0.982  -0.968
 -0.960  -0.955  -0.949  -0.932  -0.915  -0.912  -0.906  -0.904
 -0.840  -0.839  -0.831  -0.826  -0.818  -0.817  -0.811  -0.809
 -0.808  -0.797  -0.796  -0.788  -0.786  -0.783  -0.768  -0.766
 -0.749  -0.748  -0.739  -0.738  -0.724  -0.722  -0.711  -0.708
 -0.695  -0.691  -0.676  -0.674  -0.657  -0.651  -0.648  -0.642
 -0.636  -0.635  -0.627  -0.624  -0.610  -0.607  -0.598  -0.596
 -0.594  -0.594  -0.586  -0.581  -0.579  -0.576  -0.569  -0.558
 -0.553  -0.550  -0.542  -0.538  -0.527  -0.524  -0.515  -0.513
 -0.510  -0.508  -0.505  -0.498  -0.492  -0.479  -0.478  -0.478
 -0.475  -0.475  -0.471  -0.467  -0.466  -0.463  -0.453  -0.449
 -0.446  -0.442  -0.441  -0.440  -0.436  -0.436  -0.430  -0.429
 -0.428  -0.426  -0.423  -0.422  -0.421  -0.417  -0.415  -0.412
 -0.410  -0.408  -0.407  -0.402  -0.400  -0.399  -0.397  -0.394
 -0.393  -0.391  -0.390  -0.388  -0.387  -0.385  -0.381  -0.378
 -0.376  -0.375  -0.369  -0.368  -0.367  -0.360  -0.358  -0.357
 -0.354  -0.354  -0.351  -0.349  -0.344  -0.343  -0.341  -0.340
 -0.338  -0.335  -0.331  -0.329  -0.327  -0.323  -0.323  -0.321
 -0.319  -0.316  -0.309  -0.304  -0.304  -0.300  -0.300  -0.299
 -0.297  -0.296  -0.293  -0.288  -0.287  -0.285  -0.280  -0.274
 -0.273  -0.268  -0.262  -0.259  -0.251  -0.248  -0.245  -0.245
 -0.242  -0.238  -0.232  -0.231  -0.194  -0.193

          Ground-State Mulliken Net Atomic Charges

     Atom                 Charge (a.u.)
  ----------------------------------------
      1 C                     0.256910
      2 C                    -0.110151
      3 N                    -0.452609
      4 C                    -0.045257
      5 C                     0.083107
      6 C                     0.015786
      7 C                    -0.006571
      8 C                     0.063536
      9 C                     0.220303
     10 N                    -0.462835
     11 N                    -0.524080
     12 C                     0.170382
     13 C                     0.234763
     14 S                     0.611252
     15 N                    -0.509243
     16 C                    -0.200968
     17 S                     0.310173
     18 C                    -0.104502
     19 C                    -0.212655
     20 S                     0.251079
     21 C                     0.153039
     22 C                     0.015396
     23 C                    -0.313688
     24 C                    -0.053991
     25 N                    -0.407977
     26 S                     0.282192
     27 C                     0.146053
     28 C                    -0.323268
     29 C                    -0.221815
     30 H                     0.091861
     31 H                     0.104255
     32 H                     0.094877
     33 H                     0.100509
     34 H                     0.135033
     35 H                     0.116000
     36 H                     0.108806
     37 H                     0.137113
     38 H                     0.121291
     39 C                    -0.167752
     40 H                     0.103333
     41 H                     0.116835
     42 H                     0.087351
     43 C                    -0.186587
     44 H                     0.091522
     45 C                    -0.175579
     46 H                     0.084814
     47 H                     0.090474
     48 H                     0.088093
     49 C                    -0.162660
     50 H                     0.104188
     51 C                    -0.328819
     52 H                     0.097563
     53 H                     0.093753
     54 H                     0.099148
     55 H                     0.097082
     56 C                     0.285833
     57 C                    -0.121917
     58 N                    -0.504442
     59 C                    -0.080062
     60 C                     0.093460
     61 C                     0.036384
     62 C                     0.051052
     63 C                     0.048281
     64 C                     0.213736
     65 N                    -0.488358
     66 N                    -0.555623
     67 C                     0.242584
     68 C                     0.206726
     69 S                     0.599886
     70 N                    -0.537378
     71 C                    -0.179639
     72 S                     0.338374
     73 C                    -0.112757
     74 C                    -0.216507
     75 S                     0.238634
     76 C                     0.137937
     77 C                     0.072338
     78 C                    -0.298064
     79 C                    -0.072053
     80 N                    -0.427887
     81 S                     0.259119
     82 C                     0.107033
     83 C                    -0.314449
     84 C                    -0.242471
     85 H                     0.087968
     86 H                     0.100215
     87 H                     0.129223
     88 H                     0.108924
     89 H                     0.141439
     90 H                     0.111903
     91 H                     0.123267
     92 H                     0.133714
     93 H                     0.114733
     94 C                    -0.172474
     95 H                     0.114936
     96 H                     0.113145
     97 H                     0.105963
     98 C                    -0.184799
     99 H                     0.096436
    100 C                    -0.163400
    101 H                     0.088604
    102 H                     0.095245
    103 H                     0.093467
    104 C                    -0.190459
    105 H                     0.091280
    106 C                    -0.325119
    107 H                     0.087129
    108 H                     0.107881
    109 H                     0.102869
    110 H                     0.101270
  ----------------------------------------
  Sum of atomic charges =     0.000000

                    Cartesian Multipole Moments
 -----------------------------------------------------------------
    Charge (ESU x 10^10)
                 0.0000
    Dipole Moment (Debye)
         X       0.4670      Y      -1.4380      Z      -0.3956
       Tot       1.5629
    Quadrupole Moments (Debye-Ang)
        XX    -395.9173     XY     -15.9208     YY    -432.2627
        XZ       2.9500     YZ       6.3406     ZZ    -437.6302

 Total job time:  93.34s(wall), 1008.68s(cpu)
        *  Thank you very much for using Q-Chem.  Have a nice day.  *
