 Q-Chem 4.4, Q-Chem, Inc., Pleasanton, CA (2016)
 Q-Chem 4.4.2 for Intel X86 Linux

User input:
--------------------------------------------------------------
$comment
SP
$end

$rem
MEM_STATIC 5000
MEM_TOTAL 20000
JOBTYPE SP
EXCHANGE B3LYP
BASIS 6-31g(d,p)
$end

$molecule
0 1
C         -23.767000     18.935000     -9.326000
C         -22.652000     19.517000     -8.663000
N         -24.109000     17.644000     -9.108000
C         -21.897000     18.729000     -7.765000
C         -23.315000     16.839000     -8.260000
C         -22.241000     17.406000     -7.511000
C         -21.550000     16.560000     -6.504000
C         -21.454000     15.179000     -6.783000
C         -20.884000     17.036000     -5.373000
N         -20.966000     14.282000     -5.920000
N         -20.792000     18.341000     -4.926000
C         -20.212000     16.104000     -4.565000
C         -20.362000     14.695000     -4.789000
S         -19.850000     18.259000     -3.592000
N         -19.654000     16.662000     -3.417000
C         -19.949000     13.504000     -3.904000
S         -19.711000     11.882000     -4.565000
C         -19.790000     13.514000     -2.579000
C         -19.225000     11.306000     -2.973000
S         -20.341000     14.633000     -1.343000
C         -19.347000     12.267000     -2.102000
C         -18.765000      9.994000     -2.750000
C         -19.863000     13.440000     -0.081000
C         -19.407000     12.276000     -0.648000
N         -19.174000      9.109000     -3.614000
S         -17.552000      9.532000     -1.574000
C         -18.579000      7.898000     -3.295000
C         -17.778000      7.831000     -2.165000
C         -24.758000     19.731000    -10.123000
H         -22.411000     20.552000     -8.889000
H         -21.029000     19.191000     -7.304000
H         -23.659000     15.834000     -8.022000
H         -21.956000     14.802000     -7.672000
H         -19.973000     13.685000      0.968000
H         -19.081000     11.413000     -0.080000
H         -18.903000      7.014000     -3.828000
H         -17.287000      6.966000     -1.740000
H         -24.280000     20.712000    -10.238000
C         -26.132000     20.064000     -9.460000
H         -24.922000     19.311000    -11.123000
H         -26.006000     20.391000     -8.420000
H         -26.818000     19.219000     -9.323000
C         -26.925000     21.210000    -10.198000
H         -26.340000     22.116000    -10.403000
C         -28.276000     21.480000     -9.533000
H         -27.057000     20.807000    -11.210000
H         -28.211000     21.947000     -8.542000
H         -28.706000     20.500000     -9.291000
C         -29.382000     22.216000    -10.291000
H         -29.074000     23.210000    -10.638000
C         -30.736000     22.384000     -9.501000
H         -29.569000     21.573000    -11.161000
H         -30.609000     23.022000     -8.617000
H         -31.168000     21.422000     -9.197000
H         -31.429000     22.866000    -10.202000
C         -16.796000     26.764000      0.073000
C         -17.881000     26.012000      0.412000
N         -15.591000     26.205000     -0.292000
C         -17.905000     24.623000      0.152000
C         -15.620000     24.860000     -0.565000
C         -16.741000     23.976000     -0.371000
C         -16.727000     22.515000     -0.567000
C         -17.411000     21.657000      0.298000
C         -15.920000     21.862000     -1.526000
N         -17.353000     20.303000      0.146000
N         -15.166000     22.521000     -2.463000
C         -15.901000     20.455000     -1.686000
C         -16.729000     19.684000     -0.826000
S         -14.438000     21.325000     -3.307000
N         -15.156000     20.032000     -2.693000
C         -16.758000     18.202000     -0.830000
S         -16.183000     17.120000     -2.154000
C         -17.224000     17.418000      0.226000
C         -16.564000     15.676000     -1.180000
S         -17.809000     17.897000      1.857000
C         -17.189000     16.084000     -0.001000
C         -16.220000     14.350000     -1.540000
C         -17.976000     16.124000      2.221000
C         -17.520000     15.368000      1.179000
N         -16.127000     14.069000     -2.830000
S         -15.987000     13.061000     -0.465000
C         -15.837000     12.733000     -2.975000
C         -15.625000     12.079000     -1.835000
C         -16.987000     28.309000      0.062000
H         -18.763000     26.557000      0.738000
H         -18.775000     24.024000      0.404000
H         -14.721000     24.310000     -0.841000
H         -17.905000     22.063000      1.180000
H         -18.394000     15.717000      3.132000
H         -17.395000     14.291000      1.170000
H         -15.699000     12.291000     -3.953000
H         -15.253000     11.076000     -1.678000
H         -16.353000     28.741000     -0.722000
C         -16.532000     28.904000      1.417000
H         -18.033000     28.520000     -0.192000
H         -16.411000     29.991000      1.337000
H         -15.555000     28.458000      1.642000
C         -17.541000     28.635000      2.535000
H         -18.470000     28.991000      2.074000
C         -17.244000     29.604000      3.773000
H         -17.550000     27.640000      2.997000
H         -17.270000     30.644000      3.425000
H         -16.228000     29.412000      4.140000
C         -18.285000     29.397000      4.942000
H         -18.055000     28.348000      5.167000
C         -19.699000     29.655000      4.528000
H         -18.131000     30.068000      5.797000
H         -19.876000     30.713000      4.297000
H         -20.362000     29.431000      5.373000
H         -19.942000     29.003000      3.680000
$end

--------------------------------------------------------------

             Standard Nuclear Orientation (Angstroms)
    I     Atom           X                Y                Z
 ----------------------------------------------------------------
    1      C       2.1607563856    -7.6786952642    -1.3927523821
    2      C       1.2330895776    -6.6821859303    -1.8025345691
    3      N       3.3452173313    -7.3379460448    -0.8340832154
    4      C       1.5607260023    -5.3197071197    -1.6190165489
    5      C       3.6992079075    -5.9752169392    -0.7106933588
    6      C       2.7635586752    -4.9463404615    -1.0299733419
    7      C       3.1192600164    -3.5379631704    -0.7182106729
    8      C       4.4844284584    -3.1867878828    -0.8031167527
    9      C       2.2048756593    -2.5121034756    -0.4716216746
   10      N       4.9653744748    -1.9933686895    -0.4398488649
   11      N       0.8273408724    -2.6003600430    -0.3947666855
   12      C       2.7087879029    -1.2160984347    -0.2728369053
   13      C       4.1190897817    -0.9888307914    -0.1410984178
   14      S       0.3255440137    -1.0662718412    -0.1331996734
   15      N       1.7285932039    -0.2810069264     0.0519002549
   16      C       4.8783868865     0.2663421414     0.3282456086
   17      S       6.5720276838     0.5498435164    -0.0908687197
   18      C       4.4115171268     1.2263592516     1.1291237364
   19      C       6.5152482273     2.1037794724     0.7364734937
   20      S       3.0460333171     1.2682441026     2.2323724050
   21      C       5.3520636087     2.2579262729     1.3024119241
   22      C       7.5969979982     3.0051421225     0.7304896732
   23      C       3.6740398264     2.8117600969     2.9161437114
   24      C       4.8768600487     3.1511786302     2.3483941432
   25      N       8.7668848435     2.4655468748     0.5376069688
   26      S       7.4606289282     4.7513174208     0.7385086728
   27      C       9.7026853776     3.4874174797     0.4889774792
   28      C       9.2748704470     4.7881743259     0.7080574010
   29      C       1.8281112473    -9.1406882712    -1.3395578393
   30      H       0.3052599150    -7.0111645021    -2.2621944613
   31      H       0.8482736492    -4.5825004016    -1.9772439896
   32      H       4.6106209902    -5.7192833468    -0.1732650482
   33      H       5.2025862739    -3.9774344051    -1.0118784080
   34      H       3.1187394429     3.3300872244     3.6878330744
   35      H       5.4470034392     4.0317851006     2.6188340782
   36      H      10.7505278037     3.2192202154     0.4641283855
   37      H       9.8688525064     5.6904760100     0.7625366090
   38      H       0.8786733432    -9.2172862409    -1.8843242270
   39      C       1.5072153455    -9.7682048819     0.0538490373
   40      H       2.5718546917    -9.7564880808    -1.8600693986
   41      H       0.8428566516    -9.1213634891     0.6408999196
   42      H       2.3538766638    -9.8659590497     0.7444999874
   43      C       0.7989638231   -11.1741908625    -0.0377599323
   44      H      -0.0671535148   -11.2101309106    -0.7112842971
   45      C       0.5327243450   -11.7634145301     1.3486952634
   46      H       1.5259608466   -11.7814962226    -0.5915040316
   47      H      -0.2370240114   -11.2371809531     1.9274531490
   48      H       1.4324455760   -11.5723345686     1.9469043864
   49      C       0.2605912644   -13.2589624513     1.5183301713
   50      H      -0.5994724817   -13.6061700620     0.9326286879
   51      C       0.0490494719   -13.7352935724     3.0062813577
   52      H       1.1732836504   -13.7316111648     1.1324366598
   53      H      -0.8545328124   -13.2931050083     3.4451860504
   54      H       0.9119897051   -13.5116752085     3.6464477277
   55      H      -0.0669240905   -14.8251400610     2.9537574202
   56      C      -9.2674941404     0.5274197153    -0.8597891014
   57      C      -8.5136652399     0.2547910744     0.2425110451
   58      N      -8.8078637046     1.3072323991    -1.8982317048
   59      C      -7.1291970205     0.5385696928     0.2571549907
   60      C      -7.4594355429     1.5643772281    -1.8946220467
   61      C      -6.5295975309     1.2180222895    -0.8500300077
   62      C      -5.1046238785     1.5933921607    -0.8090354960
   63      C      -4.4843807828     1.9707614711     0.3847550659
   64      C      -4.3030294383     1.7487922866    -1.9625675304
   65      N      -3.1802447083     2.3686493054     0.4111817669
   66      N      -4.7245986988     1.4400665806    -3.2305319609
   67      C      -2.9409649001     2.1326140517    -1.9071505070
   68      C      -2.3785804409     2.3786441595    -0.6254259242
   69      S      -3.4421994193     1.7983115111    -4.1791354911
   70      N      -2.3288960974     2.1370487369    -3.0790528555
   71      C      -0.9903805061     2.8553725377    -0.4185153291
   72      S       0.3657746378     2.7607553842    -1.6043550399
   73      C      -0.5344763371     3.4805480380     0.7426284960
   74      C       1.4514259343     3.6137060102    -0.4761664511
   75      S      -1.4270690734     3.9693576195     2.2245766732
   76      C       0.7790070666     3.8075611701     0.7310630396
   77      C       2.7544810180     4.0643031552    -0.8005453373
   78      C       0.1329303038     4.6866805931     2.8210359717
   79      C       1.1105837688     4.5824133341     1.8731129573
   80      N       3.4247922980     3.3910546498    -1.7220274250
   81      S       3.5701030698     5.3514757048    -0.0593419265
   82      C       4.6749400356     3.9465860798    -1.8581761103
   83      C       4.8800712043     5.0473595411    -1.1381212578
   84      C     -10.6764563849    -0.1311606087    -0.9285230114
   85      H      -8.9960693916    -0.3238147203     1.0259180714
   86      H      -6.5219750982     0.3058395754     1.1268234503
   87      H      -6.9912877006     2.1885694024    -2.6549500860
   88      H      -5.0774475657     2.0636914872     1.2938380122
   89      H       0.2773695607     5.1243139906     3.7997638759
   90      H       2.0994335744     5.0251668001     1.9153081018
   91      H       5.3865695528     3.5596074193    -2.5756180568
   92      H       5.7084003540     5.7416998541    -1.1664823140
   93      H     -10.9182779599    -0.3471181781    -1.9764355335
   94      C     -11.7434133789     0.8542526680    -0.3922036596
   95      H     -10.6327936374    -1.0837434097    -0.3864597571
   96      H     -12.7494779720     0.5195488588    -0.6722347197
   97      H     -11.5479774497     1.8199505027    -0.8752176237
   98      C     -11.7065349560     0.9733307479     1.1325344795
   99      H     -11.7480003930    -0.0812733764     1.4298369490
  100      C     -13.0603276392     1.6489122619     1.6527738368
  101      H     -10.9281593557     1.6001881904     1.5850067677
  102      H     -13.9127244374     1.0563810223     1.2982228131
  103      H     -13.1541817314     2.6473654309     1.2076989233
  104      C     -13.0931634015     1.7580299515     3.2276091115
  105      H     -12.2228107285     2.4142701685     3.3531519416
  106      C     -12.9856168733     0.4339426082     3.9150554378
  107      H     -14.0221024963     2.1889319107     3.6230552642
  108      H     -13.8703760521    -0.1928301665     3.7464995581
  109      H     -12.9534338764     0.5992661522     4.9992151956
  110      H     -12.0633027633    -0.0599162154     3.5853629375
 ----------------------------------------------------------------

    9   -5663.5102673662      8.39E-06 Convergence criterion met
 Total energy in the final basis set = -5663.5102673662

                    Orbital Energies (a.u.)
 --------------------------------------------------------------

 Alpha MOs
 -- Occupied --
-88.992 -88.988 -88.930 -88.928 -88.927 -88.917 -88.913 -88.905
-14.389 -14.386 -14.384 -14.384 -14.349 -14.347 -14.343 -14.340
-14.338 -14.331 -10.267 -10.265 -10.264 -10.263 -10.260 -10.258
-10.258 -10.255 -10.245 -10.242 -10.242 -10.236 -10.236 -10.235
-10.232 -10.232 -10.231 -10.230 -10.230 -10.230 -10.230 -10.229
-10.227 -10.224 -10.224 -10.223 -10.223 -10.221 -10.219 -10.216
-10.215 -10.208 -10.204 -10.204 -10.202 -10.202 -10.201 -10.196
-10.190 -10.187 -10.184 -10.183 -10.183 -10.181 -10.179 -10.179
-10.178 -10.175 -10.174 -10.171  -8.047  -8.044  -7.991  -7.990
 -7.984  -7.975  -7.971  -7.964  -6.012  -6.009  -6.006  -6.005
 -6.004  -6.002  -5.955  -5.954  -5.951  -5.950  -5.949  -5.948
 -5.947  -5.945  -5.941  -5.940  -5.936  -5.936  -5.932  -5.932
 -5.929  -5.927  -5.925  -5.920  -1.046  -1.031  -0.978  -0.974
 -0.964  -0.958  -0.928  -0.921  -0.917  -0.913  -0.908  -0.896
 -0.840  -0.839  -0.835  -0.833  -0.815  -0.808  -0.807  -0.807
 -0.802  -0.799  -0.797  -0.795  -0.785  -0.779  -0.772  -0.767
 -0.752  -0.746  -0.741  -0.738  -0.727  -0.724  -0.709  -0.708
 -0.696  -0.692  -0.675  -0.673  -0.655  -0.653  -0.649  -0.649
 -0.638  -0.633  -0.629  -0.622  -0.615  -0.612  -0.601  -0.600
 -0.595  -0.593  -0.582  -0.581  -0.575  -0.573  -0.569  -0.561
 -0.550  -0.546  -0.545  -0.536  -0.530  -0.522  -0.517  -0.516
 -0.507  -0.504  -0.499  -0.498  -0.489  -0.482  -0.481  -0.477
 -0.472  -0.472  -0.469  -0.467  -0.467  -0.462  -0.454  -0.451
 -0.451  -0.448  -0.442  -0.440  -0.440  -0.438  -0.437  -0.435
 -0.430  -0.427  -0.425  -0.422  -0.419  -0.417  -0.415  -0.413
 -0.410  -0.409  -0.403  -0.402  -0.400  -0.397  -0.396  -0.395
 -0.394  -0.393  -0.391  -0.389  -0.386  -0.385  -0.383  -0.383
 -0.380  -0.378  -0.371  -0.371  -0.366  -0.364  -0.358  -0.357
 -0.354  -0.353  -0.350  -0.349  -0.346  -0.344  -0.343  -0.343
 -0.340  -0.336  -0.333  -0.330  -0.330  -0.325  -0.323  -0.320
 -0.316  -0.316  -0.313  -0.306  -0.305  -0.304  -0.302  -0.299
 -0.297  -0.296  -0.293  -0.290  -0.288  -0.284  -0.282  -0.280
 -0.273  -0.272  -0.271  -0.266  -0.260  -0.256  -0.251  -0.248
 -0.247  -0.241  -0.234  -0.231  -0.199  -0.193

          Ground-State Mulliken Net Atomic Charges

     Atom                 Charge (a.u.)
  ----------------------------------------
      1 C                     0.271301
      2 C                    -0.121814
      3 N                    -0.493889
      4 C                    -0.070039
      5 C                     0.048555
      6 C                     0.053533
      7 C                     0.034065
      8 C                     0.064162
      9 C                     0.235632
     10 N                    -0.496736
     11 N                    -0.564414
     12 C                     0.165670
     13 C                     0.271655
     14 S                     0.634151
     15 N                    -0.518120
     16 C                    -0.225142
     17 S                     0.338019
     18 C                    -0.096631
     19 C                    -0.210855
     20 S                     0.269206
     21 C                     0.145006
     22 C                     0.057200
     23 C                    -0.302751
     24 C                    -0.070386
     25 N                    -0.422818
     26 S                     0.237294
     27 C                     0.115493
     28 C                    -0.302837
     29 C                    -0.216662
     30 H                     0.091872
     31 H                     0.115995
     32 H                     0.115138
     33 H                     0.115946
     34 H                     0.132106
     35 H                     0.101675
     36 H                     0.111950
     37 H                     0.134540
     38 H                     0.091136
     39 C                    -0.175742
     40 H                     0.117574
     41 H                     0.094629
     42 H                     0.112093
     43 C                    -0.179800
     44 H                     0.089245
     45 C                    -0.170276
     46 H                     0.092059
     47 H                     0.087233
     48 H                     0.090355
     49 C                    -0.180844
     50 H                     0.091250
     51 C                    -0.322269
     52 H                     0.093261
     53 H                     0.104449
     54 H                     0.104846
     55 H                     0.103833
     56 C                     0.265589
     57 C                    -0.098028
     58 N                    -0.493359
     59 C                    -0.098795
     60 C                     0.098770
     61 C                     0.038325
     62 C                     0.045162
     63 C                     0.056249
     64 C                     0.199525
     65 N                    -0.546992
     66 N                    -0.547814
     67 C                     0.202615
     68 C                     0.335187
     69 S                     0.602702
     70 N                    -0.552458
     71 C                    -0.242576
     72 S                     0.350575
     73 C                    -0.119995
     74 C                    -0.188224
     75 S                     0.271005
     76 C                     0.168136
     77 C                     0.049233
     78 C                    -0.321525
     79 C                    -0.067537
     80 N                    -0.431914
     81 S                     0.280540
     82 C                     0.129829
     83 C                    -0.307389
     84 C                    -0.235013
     85 H                     0.090817
     86 H                     0.096358
     87 H                     0.113069
     88 H                     0.120857
     89 H                     0.126068
     90 H                     0.099541
     91 H                     0.120723
     92 H                     0.142671
     93 H                     0.116499
     94 C                    -0.176976
     95 H                     0.099154
     96 H                     0.095591
     97 H                     0.115110
     98 C                    -0.175364
     99 H                     0.096456
    100 C                    -0.192210
    101 H                     0.099972
    102 H                     0.084478
    103 H                     0.091980
    104 C                    -0.172261
    105 H                     0.091096
    106 C                    -0.308711
    107 H                     0.090425
    108 H                     0.102295
    109 H                     0.098782
    110 H                     0.101655
  ----------------------------------------
  Sum of atomic charges =     0.000000

                    Cartesian Multipole Moments
 -----------------------------------------------------------------
    Charge (ESU x 10^10)
                 0.0000
    Dipole Moment (Debye)
         X      -0.6156      Y       3.3324      Z       1.7608
       Tot       3.8189
    Quadrupole Moments (Debye-Ang)
        XX    -432.9031     XY      51.1957     YY    -421.4271
        XZ     -12.2352     YZ      13.1184     ZZ    -440.5833

 Total job time:  96.29s(wall), 1033.01s(cpu)
        *  Thank you very much for using Q-Chem.  Have a nice day.  *
