 Q-Chem 4.4, Q-Chem, Inc., Pleasanton, CA (2016)
 Q-Chem 4.4.2 for Intel X86 Linux

User input:
--------------------------------------------------------------
$comment
SP
$end

$rem
MEM_STATIC 5000
MEM_TOTAL 20000
JOBTYPE SP
EXCHANGE B3LYP
BASIS 6-31g(d,p)
$end

$molecule
0 1
C          13.813000     -3.860000     11.567000
C          15.206000     -3.992000     11.763000
N          13.315000     -3.317000     10.492000
C          16.069000     -3.574000     10.726000
C          14.169000     -2.945000      9.553000
C          15.556000     -3.024000      9.587000
C          16.486000     -2.640000      8.434000
C          17.819000     -2.292000      8.663000
C          16.096000     -2.710000      7.073000
N          18.692000     -1.964000      7.709000
N          14.882000     -3.001000      6.644000
C          16.999000     -2.497000      6.078000
C          18.299000     -2.077000      6.400000
S          14.960000     -3.017000      5.006000
N          16.519000     -2.664000      4.806000
C          19.302000     -1.782000      5.349000
S          19.245000     -2.281000      3.667000
C          20.356000     -0.893000      5.509000
C          20.699000     -1.453000      3.290000
S          20.877000      0.043000      6.919000
C          21.132000     -0.755000      4.393000
C          21.156000     -1.160000      1.977000
C          22.185000      0.600000      5.912000
C          22.210000      0.152000      4.590000
N          20.669000     -2.050000      1.113000
S          22.175000      0.064000      1.384000
C          21.085000     -1.759000     -0.130000
C          21.905000     -0.690000     -0.186000
C          12.765000     -4.455000     12.596000
H          15.665000     -4.430000     12.645000
H          17.155000     -3.592000     10.747000
H          13.656000     -2.554000      8.676000
H          18.196000     -2.210000      9.682000
H          22.907000      1.315000      6.284000
H          22.912000      0.523000      3.852000
H          20.811000     -2.455000     -0.912000
H          22.525000     -0.234000     -0.946000
H          13.077000     -4.155000     13.604000
C          12.587000     -6.028000     12.567000
H          11.783000     -3.970000     12.529000
H          13.494000     -6.517000     12.941000
H          12.473000     -6.295000     11.509000
C          11.401000     -6.530000     13.322000
H          11.380000     -7.623000     13.410000
C           9.962000     -6.026000     12.821000
H          11.550000     -6.209000     14.361000
H           9.954000     -6.033000     11.724000
H           9.891000     -4.993000     13.184000
C           8.829000     -6.852000     13.353000
H           9.062000     -7.222000     14.360000
C           8.531000     -8.038000     12.489000
H           7.887000     -6.322000     13.539000
H           7.698000     -8.540000     12.996000
H           9.426000     -8.655000     12.344000
H           8.194000     -7.747000     11.486000
C          10.642000     -1.653000      3.682000
C          10.094000     -2.275000      2.608000
N          11.869000     -1.198000      3.675000
C          10.862000     -2.348000      1.434000
C          12.654000     -1.263000      2.554000
C          12.198000     -1.875000      1.362000
C          13.142000     -2.222000      0.220000
C          12.554000     -2.432000     -1.057000
C          14.531000     -2.480000      0.376000
N          13.271000     -2.753000     -2.161000
N          15.259000     -2.460000      1.486000
C          15.324000     -2.796000     -0.764000
C          14.657000     -2.895000     -2.056000
S          16.759000     -2.905000      1.091000
N          16.633000     -3.098000     -0.527000
C          15.333000     -3.416000     -3.219000
S          14.538000     -4.384000     -4.456000
C          16.421000     -2.751000     -3.749000
C          15.645000     -3.843000     -5.708000
S          17.410000     -1.471000     -3.086000
C          16.592000     -3.005000     -5.104000
C          15.289000     -3.742000     -7.124000
C          18.087000     -1.306000     -4.682000
C          17.570000     -2.161000     -5.653000
N          16.065000     -3.126000     -7.975000
S          13.832000     -4.317000     -7.876000
C          15.711000     -3.207000     -9.322000
C          14.509000     -3.775000     -9.450000
C           9.811000     -1.462000      4.922000
H           9.039000     -2.532000      2.571000
H          10.470000     -3.010000      0.667000
H          13.655000     -0.849000      2.671000
H          11.482000     -2.336000     -1.223000
H          18.953000     -0.660000     -4.749000
H          17.992000     -2.210000     -6.650000
H          16.361000     -2.847000    -10.108000
H          14.026000     -3.982000    -10.396000
H           8.962000     -0.824000      4.648000
C          10.489000     -0.905000      6.237000
H           9.455000     -2.465000      5.189000
H          10.400000      0.188000      6.278000
H          11.570000     -1.086000      6.193000
C           9.840000     -1.442000      7.518000
H           8.753000     -1.337000      7.420000
C          10.265000     -0.690000      8.804000
H           9.922000     -2.534000      7.575000
H           9.942000      0.346000      8.644000
H          11.359000     -0.705000      8.883000
C           9.566000     -1.212000     10.073000
H           9.496000     -0.400000     10.808000
C          10.055000     -2.476000     10.637000
H           8.503000     -1.364000      9.849000
H          11.083000     -2.376000     11.005000
H           9.966000     -3.324000      9.947000
H           9.421000     -2.758000     11.487000
$end

--------------------------------------------------------------

             Standard Nuclear Orientation (Angstroms)
    I     Atom           X                Y                Z
 ----------------------------------------------------------------
    1      C       8.5960426496     0.2697904612    -0.7722104364
    2      C       8.4536670383     1.5812490551    -1.2782682806
    3      N       7.6411123039    -0.3239221314    -0.1133543123
    4      C       7.2109025856     2.2309036361    -1.1099012987
    5      C       6.4984778532     0.3301521222     0.0131145887
    6      C       6.1972664869     1.6088094024    -0.4401770092
    7      C       4.8282351838     2.2823873150    -0.3226564301
    8      C       4.6996493651     3.6727554126    -0.3505175242
    9      C       3.6121644213     1.5551274659    -0.2828316566
   10      N       3.5408646180     4.3291168237    -0.2715453267
   11      N       3.5142924347     0.2396853894    -0.2323220794
   12      C       2.4142441149     2.1987146222    -0.3226501423
   13      C       2.3787604132     3.6009601045    -0.2723260488
   14      S       1.9120723622    -0.1082091937    -0.2675952774
   15      N       1.3129115591     1.3847784715    -0.3517627509
   16      C       1.0965961643     4.3449677209    -0.2603884784
   17      S      -0.4821173832     3.7331013197    -0.7236994347
   18      C       0.9325835466     5.6005693578     0.3082954326
   19      C      -1.2592373155     5.2084345170    -0.3220707904
   20      S       2.1047807090     6.6901755527     1.0661536994
   21      C      -0.3461513606     6.0754693243     0.2309451966
   22      C      -2.6610187098     5.3771964401    -0.1633404036
   23      C       0.7726067152     7.7981865256     1.2472231174
   24      C      -0.4814837062     7.3675481799     0.8103926809
   25      N      -3.3166086815     4.4700998845    -0.8866263968
   26      S      -3.5676428777     6.4970517646     0.7378491827
   27      C      -4.6405160118     4.6179680415    -0.7187264589
   28      C      -4.9684657467     5.6482898164     0.0869924819
   29      C       9.8884519207    -0.6006637889    -1.0605811603
   30      H       9.2243020732     2.1172598737    -1.8253176799
   31      H       6.9666237275     3.2421895459    -1.4226146627
   32      H       5.7491091574    -0.2672161676     0.5296188811
   33      H       5.5873102248     4.3041616309    -0.3749794437
   34      H       0.9067920219     8.7528821974     1.7385921006
   35      H      -1.3924439604     7.9309812942     0.9770766360
   36      H      -5.2821960183     3.9810107254    -1.3133256068
   37      H      -5.8864432166     6.1521951548     0.3577927305
   38      H      10.7664814121     0.0248440606    -0.8575734203
   39      C      10.0115037972    -1.1877889618    -2.5258443677
   40      H      10.0308607249    -1.4039123135    -0.3267218140
   41      H      10.1846468525    -0.3773728422    -3.2434049543
   42      H       9.0343955991    -1.6330471509    -2.7509081681
   43      C      11.0663296416    -2.2318234944    -2.6869633692
   44      H      11.2312984325    -2.5167404130    -3.7331190209
   45      C      10.8995482711    -3.5656726168    -1.8101689274
   46      H      12.0128032452    -1.7446053254    -2.4194392144
   47      H       9.8410012410    -3.8537468449    -1.8138328203
   48      H      11.1973928476    -3.2675559722    -0.7970973236
   49      C      11.7478715119    -4.7023491925    -2.2973065274
   50      H      12.6900720426    -4.3269974444    -2.7175531518
   51      C      11.0662547189    -5.5114759135    -3.3568387340
   52      H      12.1221069145    -5.3922290148    -1.5312297073
   53      H      11.7948191066    -6.2900159379    -3.6137655009
   54      H      10.7491247414    -4.8778203150    -4.1938860205
   55      H      10.1587793730    -6.0033959913    -2.9843308366
   56      C       1.5952134844    -4.1041586850     2.2204931686
   57      C       0.7331285434    -5.0508411701     1.7718665679
   58      N       1.2570069632    -2.8442473211     2.3246214745
   59      C      -0.5853199484    -4.6536729451     1.4936940036
   60      C      -0.0148895718    -2.4156828213     2.0494802853
   61      C      -1.0143027954    -3.3041007583     1.5855505734
   62      C      -2.3261506412    -2.8071372476     0.9958120733
   63      C      -3.4029444198    -3.7341743901     0.9546988779
   64      C      -2.4976205107    -1.5427367272     0.3696248744
   65      N      -4.6242545162    -3.4319670449     0.4516895652
   66      N      -1.6036231498    -0.5778672725     0.1899594796
   67      C      -3.7726929665    -1.1776324517    -0.1492143112
   68      C      -4.8522454590    -2.1527818534    -0.0620130490
   69      S      -2.3223888539     0.6005785379    -0.6459181038
   70      N      -3.8432327693     0.0213176886    -0.7960502236
   71      C      -6.1069108722    -1.9563760890    -0.7462830810
   72      S      -7.0425334816    -3.2654395919    -1.4605526928
   73      C      -6.9312791318    -0.9034545339    -0.4018383519
   74      C      -8.5613712560    -2.4109647708    -1.2400110980
   75      S      -6.6196249043     0.5224172111     0.5603733760
   76      C      -8.2662843824    -1.1555328377    -0.6916650406
   77      C      -9.8506480602    -3.0755433841    -1.0448353085
   78      C      -8.3402141617     0.7903056774     0.5363239091
   79      C      -9.0943406697    -0.1626889790    -0.1450345829
   80      N     -10.9057595719    -2.4074619768    -0.6624220097
   81      S     -10.1820220731    -4.7739837157    -1.2012632592
   82      C     -12.1163497225    -3.1005562751    -0.6429854198
   83      C     -11.9071054601    -4.4012573448    -0.8625430793
   84      C       2.9848490637    -4.5121210168     2.6292983698
   85      H       0.9731439302    -6.1097380187     1.8115286156
   86      H      -1.1859338566    -5.3876844731     0.9638949756
   87      H      -0.1750464928    -1.3453793993     2.1755213322
   88      H      -3.3076638556    -4.7487469228     1.3387824495
   89      H      -8.6611457465     1.7492853032     0.9224870809
   90      H     -10.1585506945    -0.0362261880    -0.3061500244
   91      H     -13.0602540718    -2.6006113298    -0.4727043844
   92      H     -12.6896724038    -5.1456675776    -0.9295981611
   93      H       2.8840405193    -5.2039209155     3.4743850740
   94      C       4.0526449440    -3.4003187963     2.9798205239
   95      H       3.3987864118    -5.0396231368     1.7607182726
   96      H       4.0393655393    -3.1849901239     4.0557890273
   97      H       3.7578667192    -2.4531154048     2.5116650654
   98      C       5.4871526438    -3.8201322418     2.6385357013
   99      H       5.6512569602    -4.8290140700     3.0353041856
  100      C       6.5754971129    -2.8998201784     3.2455423096
  101      H       5.5968595770    -4.0168069786     1.5653533138
  102      H       6.4289895083    -2.9683506484     4.3304681580
  103      H       6.3851507824    -1.8655594548     2.9334925857
  104      C       8.0096118720    -3.3652670092     2.9323010200
  105      H       8.6821059419    -3.0298606817     3.7321280772
  106      C       8.5218098820    -3.0995997972     1.5824909848
  107      H       8.0635470980    -4.4514906210     3.0753333814
  108      H       8.6192685770    -2.0230427655     1.3988207358
  109      H       7.9342177400    -3.5810208111     0.7912297876
  110      H       9.5183645889    -3.5478558206     1.4828654177
 ----------------------------------------------------------------

   11   -5663.5082416377      7.83E-06 Convergence criterion met
 Total energy in the final basis set = -5663.5082416377

                    Orbital Energies (a.u.)
 --------------------------------------------------------------

 Alpha MOs
 -- Occupied --
-88.989 -88.988 -88.933 -88.924 -88.922 -88.918 -88.914 -88.913
-14.390 -14.386 -14.383 -14.375 -14.352 -14.350 -14.335 -14.328
-14.325 -14.323 -10.267 -10.265 -10.262 -10.262 -10.261 -10.260
-10.248 -10.247 -10.242 -10.239 -10.237 -10.237 -10.236 -10.233
-10.230 -10.229 -10.229 -10.228 -10.226 -10.226 -10.226 -10.225
-10.225 -10.225 -10.224 -10.223 -10.223 -10.221 -10.214 -10.214
-10.209 -10.207 -10.207 -10.203 -10.201 -10.200 -10.196 -10.194
-10.185 -10.183 -10.181 -10.177 -10.175 -10.171 -10.170 -10.167
-10.166 -10.166 -10.161 -10.147  -8.043  -8.043  -7.995  -7.983
 -7.981  -7.979  -7.974  -7.973  -6.009  -6.008  -6.003  -6.003
 -6.001  -6.001  -5.958  -5.955  -5.952  -5.948  -5.946  -5.944
 -5.943  -5.942  -5.940  -5.939  -5.938  -5.938  -5.938  -5.935
 -5.935  -5.934  -5.930  -5.929  -1.044  -1.042  -0.980  -0.961
 -0.957  -0.953  -0.945  -0.943  -0.919  -0.916  -0.908  -0.905
 -0.850  -0.848  -0.833  -0.828  -0.816  -0.814  -0.809  -0.804
 -0.799  -0.797  -0.796  -0.785  -0.783  -0.780  -0.769  -0.764
 -0.753  -0.752  -0.745  -0.741  -0.727  -0.726  -0.708  -0.706
 -0.692  -0.691  -0.676  -0.673  -0.657  -0.653  -0.648  -0.645
 -0.639  -0.632  -0.628  -0.626  -0.611  -0.605  -0.603  -0.593
 -0.592  -0.587  -0.582  -0.578  -0.577  -0.572  -0.560  -0.555
 -0.550  -0.547  -0.542  -0.538  -0.529  -0.522  -0.522  -0.511
 -0.509  -0.508  -0.503  -0.499  -0.487  -0.481  -0.476  -0.475
 -0.472  -0.468  -0.467  -0.467  -0.460  -0.453  -0.449  -0.446
 -0.445  -0.439  -0.438  -0.436  -0.436  -0.435  -0.432  -0.429
 -0.428  -0.427  -0.425  -0.422  -0.418  -0.415  -0.413  -0.412
 -0.411  -0.407  -0.405  -0.403  -0.401  -0.399  -0.398  -0.396
 -0.394  -0.392  -0.391  -0.390  -0.387  -0.385  -0.382  -0.381
 -0.379  -0.375  -0.375  -0.369  -0.363  -0.362  -0.357  -0.355
 -0.352  -0.352  -0.351  -0.348  -0.346  -0.343  -0.341  -0.339
 -0.336  -0.333  -0.332  -0.329  -0.328  -0.323  -0.320  -0.318
 -0.310  -0.307  -0.305  -0.303  -0.301  -0.300  -0.298  -0.297
 -0.295  -0.294  -0.292  -0.291  -0.287  -0.285  -0.278  -0.277
 -0.276  -0.270  -0.265  -0.257  -0.257  -0.256  -0.248  -0.248
 -0.246  -0.244  -0.233  -0.228  -0.195  -0.193

          Ground-State Mulliken Net Atomic Charges

     Atom                 Charge (a.u.)
  ----------------------------------------
      1 C                     0.263626
      2 C                    -0.129863
      3 N                    -0.463934
      4 C                    -0.080373
      5 C                     0.058097
      6 C                     0.072523
      7 C                     0.051175
      8 C                     0.045743
      9 C                     0.266519
     10 N                    -0.524533
     11 N                    -0.574677
     12 C                     0.200278
     13 C                     0.272170
     14 S                     0.641374
     15 N                    -0.569172
     16 C                    -0.234757
     17 S                     0.373168
     18 C                    -0.111648
     19 C                    -0.218783
     20 S                     0.292646
     21 C                     0.137646
     22 C                     0.060972
     23 C                    -0.303985
     24 C                    -0.088556
     25 N                    -0.442865
     26 S                     0.280281
     27 C                     0.143708
     28 C                    -0.329086
     29 C                    -0.234525
     30 H                     0.092178
     31 H                     0.092023
     32 H                     0.120528
     33 H                     0.111349
     34 H                     0.121515
     35 H                     0.113757
     36 H                     0.124833
     37 H                     0.129586
     38 H                     0.092063
     39 C                    -0.172484
     40 H                     0.123729
     41 H                     0.090304
     42 H                     0.103477
     43 C                    -0.186622
     44 H                     0.090426
     45 C                    -0.168311
     46 H                     0.088674
     47 H                     0.097281
     48 H                     0.096313
     49 C                    -0.179513
     50 H                     0.091019
     51 C                    -0.308745
     52 H                     0.089672
     53 H                     0.096610
     54 H                     0.102648
     55 H                     0.101451
     56 C                     0.303557
     57 C                    -0.110726
     58 N                    -0.500395
     59 C                    -0.093049
     60 C                     0.064940
     61 C                     0.034484
     62 C                     0.044825
     63 C                     0.058593
     64 C                     0.264431
     65 N                    -0.500766
     66 N                    -0.577639
     67 C                     0.185399
     68 C                     0.225531
     69 S                     0.658119
     70 N                    -0.538134
     71 C                    -0.210576
     72 S                     0.318955
     73 C                    -0.101103
     74 C                    -0.219637
     75 S                     0.275883
     76 C                     0.128308
     77 C                     0.090934
     78 C                    -0.311570
     79 C                    -0.040428
     80 N                    -0.458778
     81 S                     0.236684
     82 C                     0.143285
     83 C                    -0.314307
     84 C                    -0.253333
     85 H                     0.093093
     86 H                     0.098892
     87 H                     0.123964
     88 H                     0.119327
     89 H                     0.126335
     90 H                     0.126676
     91 H                     0.121612
     92 H                     0.124440
     93 H                     0.115665
     94 C                    -0.173513
     95 H                     0.111833
     96 H                     0.090969
     97 H                     0.118185
     98 C                    -0.182831
     99 H                     0.082997
    100 C                    -0.171552
    101 H                     0.091390
    102 H                     0.084687
    103 H                     0.097698
    104 C                    -0.179243
    105 H                     0.081660
    106 C                    -0.306293
    107 H                     0.079705
    108 H                     0.134002
    109 H                     0.098446
    110 H                     0.081440
  ----------------------------------------
  Sum of atomic charges =     0.000000

                    Cartesian Multipole Moments
 -----------------------------------------------------------------
    Charge (ESU x 10^10)
                 0.0000
    Dipole Moment (Debye)
         X      -1.9009      Y       1.2890      Z       0.2529
       Tot       2.3107
    Quadrupole Moments (Debye-Ang)
        XX    -396.2263     XY      -3.4958     YY    -406.6738
        XZ     -12.7073     YZ       8.8471     ZZ    -452.9886

 Total job time:  108.76s(wall), 1208.97s(cpu)
        *  Thank you very much for using Q-Chem.  Have a nice day.  *
