 Q-Chem 4.4, Q-Chem, Inc., Pleasanton, CA (2016)
 Q-Chem 4.4.2 for Intel X86 Linux

User input:
--------------------------------------------------------------
$comment
SP
$end

$rem
MEM_STATIC 5000
MEM_TOTAL 20000
JOBTYPE SP
EXCHANGE B3LYP
BASIS 6-31g(d,p)
$end

$molecule
0 1
C           1.253000      7.360000      3.278000
C           0.117000      6.548000      3.290000
N           2.451000      6.788000      2.989000
C           0.293000      5.180000      3.167000
C           2.587000      5.548000      2.779000
C           1.538000      4.623000      2.944000
C           1.711000      3.161000      2.834000
C           2.007000      2.500000      1.663000
C           1.524000      2.305000      3.984000
N           2.444000      1.246000      1.613000
N           1.033000      2.651000      5.212000
C           1.941000      0.959000      3.938000
C           2.461000      0.487000      2.737000
S           0.816000      1.258000      5.975000
N           1.558000      0.188000      4.972000
C           3.279000     -0.710000      2.605000
S           3.436000     -1.770000      1.242000
C           4.271000     -0.931000      3.507000
C           4.886000     -2.556000      1.891000
S           4.693000     -0.135000      5.033000
C           5.162000     -1.916000      3.079000
C           5.712000     -3.615000      1.347000
C           6.107000     -1.214000      5.146000
C           6.188000     -2.102000      4.033000
N           7.053000     -3.510000      1.541000
S           5.195000     -4.639000      0.117000
C           7.649000     -4.365000      0.753000
C           6.866000     -5.133000     -0.049000
C           1.190000      8.870000      3.563000
H          -0.824000      6.985000      3.611000
H          -0.534000      4.482000      3.269000
H           3.619000      5.252000      2.597000
H           2.232000      3.081000      0.770000
H           6.659000     -1.166000      6.075000
H           6.936000     -2.885000      3.990000
H           8.717000     -4.492000      0.879000
H           6.994000     -5.987000     -0.701000
H           1.873000      9.382000      2.874000
C           1.563000      9.263000      4.994000
H           0.156000      9.164000      3.344000
H           2.500000      8.785000      5.307000
H           0.771000      8.999000      5.706000
C           1.784000     10.770000      5.192000
H           2.722000     11.093000      4.722000
C           1.640000     11.214000      6.653000
H           1.035000     11.359000      4.648000
H           0.653000     10.846000      6.959000
H           1.623000     12.309000      6.720000
C           2.798000     10.723000      7.503000
H           2.588000      9.675000      7.750000
C           2.836000     11.338000      8.918000
H           3.759000     10.922000      7.013000
H           2.829000     12.434000      8.940000
H           3.655000     11.064000      9.595000
H           1.887000     11.129000      9.427000
C          10.642000     -1.653000      3.682000
C          10.094000     -2.275000      2.608000
N          11.869000     -1.198000      3.675000
C          10.862000     -2.348000      1.434000
C          12.654000     -1.263000      2.554000
C          12.198000     -1.875000      1.362000
C          13.142000     -2.222000      0.220000
C          12.554000     -2.432000     -1.057000
C          14.531000     -2.480000      0.376000
N          13.271000     -2.753000     -2.161000
N          15.259000     -2.460000      1.486000
C          15.324000     -2.796000     -0.764000
C          14.657000     -2.895000     -2.056000
S          16.759000     -2.905000      1.091000
N          16.633000     -3.098000     -0.527000
C          15.333000     -3.416000     -3.219000
S          14.538000     -4.384000     -4.456000
C          16.421000     -2.751000     -3.749000
C          15.645000     -3.843000     -5.708000
S          17.410000     -1.471000     -3.086000
C          16.592000     -3.005000     -5.104000
C          15.289000     -3.742000     -7.124000
C          18.087000     -1.306000     -4.682000
C          17.570000     -2.161000     -5.653000
N          16.065000     -3.126000     -7.975000
S          13.832000     -4.317000     -7.876000
C          15.711000     -3.207000     -9.322000
C          14.509000     -3.775000     -9.450000
C           9.811000     -1.462000      4.922000
H           9.039000     -2.532000      2.571000
H          10.470000     -3.010000      0.667000
H          13.655000     -0.849000      2.671000
H          11.482000     -2.336000     -1.223000
H          18.953000     -0.660000     -4.749000
H          17.992000     -2.210000     -6.650000
H          16.361000     -2.847000    -10.108000
H          14.026000     -3.982000    -10.396000
H           8.962000     -0.824000      4.648000
C          10.489000     -0.905000      6.237000
H           9.455000     -2.465000      5.189000
H          10.400000      0.188000      6.278000
H          11.570000     -1.086000      6.193000
C           9.840000     -1.442000      7.518000
H           8.753000     -1.337000      7.420000
C          10.265000     -0.690000      8.804000
H           9.922000     -2.534000      7.575000
H           9.942000      0.346000      8.644000
H          11.359000     -0.705000      8.883000
C           9.566000     -1.212000     10.073000
H           9.496000     -0.400000     10.808000
C          10.055000     -2.476000     10.637000
H           8.503000     -1.364000      9.849000
H          11.083000     -2.376000     11.005000
H           9.966000     -3.324000      9.947000
H           9.421000     -2.758000     11.487000
$end

--------------------------------------------------------------

             Standard Nuclear Orientation (Angstroms)
    I     Atom           X                Y                Z
 ----------------------------------------------------------------
    1      C      -9.7007250924     3.9487325790     1.8168780259
    2      C     -10.1666980283     3.9513577164     0.5005018138
    3      N      -8.4151945980     3.5726879807     2.0447174611
    4      C      -9.3483354857     3.4181620493    -0.4810857419
    5      C      -7.6411422623     3.1803633049     1.1243260604
    6      C      -8.0684136183     2.9776920646    -0.2021785784
    7      C      -7.2156596539     2.3944225448    -1.2567307788
    8      C      -6.1070262082     3.0131402560    -1.7895518341
    9      C      -7.5379335163     1.1137257735    -1.8450847008
   10      N      -5.1863894780     2.3842098351    -2.5126421028
   11      N      -8.6735990148     0.3741390644    -1.6660417588
   12      C      -6.5917573565     0.4485681201    -2.6513334035
   13      C      -5.3906066761     1.1024987388    -2.9066700225
   14      S      -8.5770169727    -0.7972943258    -2.7560521815
   15      N      -7.0383564338    -0.6357535217    -3.3109407423
   16      C      -4.1757159354     0.4472150029    -3.3692721339
   17      S      -2.8894070002     1.1028774716    -4.3292377846
   18      C      -3.8007045712    -0.7247877295    -2.7928304005
   19      C      -1.7924343056    -0.2393459915    -3.9596649471
   20      S      -4.6235318381    -1.8136406448    -1.6624629302
   21      C      -2.4808203660    -1.0618168609    -3.0954969652
   22      C      -0.4279375060    -0.4889623982    -4.3786316923
   23      C      -3.1491558255    -2.8145086253    -1.6327197121
   24      C      -2.1230832812    -2.2737604598    -2.4625634054
   25      N       0.4090717190    -1.0317764536    -3.4557500864
   26      S       0.2811149593     0.2817670288    -5.6946809892
   27      C       1.6340633283    -0.9150900211    -3.8950277134
   28      C       1.8156590355    -0.3146019858    -5.1002472447
   29      C     -10.5828390253     4.3692888114     3.0044391674
   30      H     -11.2180507712     4.1617688370     0.3276563039
   31      H      -9.6854036311     3.2954939144    -1.5071825181
   32      H      -6.6576448500     2.8833353642     1.4852571376
   33      H      -5.7599047609     3.9468529723    -1.3498675562
   34      H      -3.2335469597    -3.7561985449    -1.1072225838
   35      H      -1.1941398664    -2.8063229320    -2.6295464745
   36      H       2.4116252121    -1.4128296929    -3.3290933215
   37      H       2.6288980661    -0.1652529255    -5.7982022126
   38      H      -9.9709656717     4.9561579502     3.7005351472
   39      C     -11.2089521826     3.2050145571     3.7750147801
   40      H     -11.3653606536     5.0062434528     2.5737401006
   41      H     -10.4603404102     2.4406330158     4.0193982361
   42      H     -12.0260298637     2.7385252708     3.2105009992
   43      C     -11.8378548343     3.6085234296     5.1169372982
   44      H     -11.0624739912     3.8487931747     5.8559420328
   45      C     -12.8812944853     2.6035524046     5.6205839340
   46      H     -12.3835337664     4.5567836618     5.0339009508
   47      H     -13.5895194093     2.4987033093     4.7895285061
   48      H     -13.4297599706     3.0179548809     6.4757208816
   49      C     -12.2346429997     1.3084321884     6.0778043203
   50      H     -12.0318844801     0.7192683827     5.1749267024
   51      C     -13.2000442273     0.3578338574     6.8168965222
   52      H     -11.3754712330     1.5056566303     6.7306047453
   53      H     -13.7190256527     0.8076790633     7.6713241499
   54      H     -12.8144173414    -0.5913014835     7.2100885994
   55      H     -14.0553834517     0.1364535975     6.1667053260
   56      C       1.1111866692    -3.1897072044     0.5145925275
   57      C       1.5347046843    -2.3704943838    -0.4804887986
   58      N       1.8051065062    -3.3771608458     1.6081826665
   59      C       2.7209754734    -1.6479244692    -0.2705284845
   60      C       2.9735293921    -2.7015058450     1.8434894442
   61      C       3.5191779889    -1.8069605130     0.8919642170
   62      C       4.9440373648    -1.2836164278     0.9996476757
   63      C       5.2512548714    -0.1043067302     0.2679243396
   64      C       6.0018457633    -1.9637757004     1.6619510472
   65      N       6.4787458408     0.4694575002     0.2653693246
   66      N       5.9683089984    -3.1264181863     2.3019680278
   67      C       7.3008270537    -1.3813163389     1.7031056273
   68      C       7.5067704756    -0.1171422461     1.0078321775
   69      S       7.4701513616    -3.4537611513     2.7932582673
   70      N       8.2794905204    -2.1236730628     2.2963832296
   71      C       8.8256186641     0.4345081326     0.8146811603
   72      S       9.3087825795     1.3226769282    -0.6264735231
   73      C       9.5841771964     0.8238710894     1.9008922083
   74      C      10.5009932566     2.2657251539     0.2538262812
   75      S       9.3885088431     0.4941537498     3.6064977815
   76      C      10.5069680915     1.8112491735     1.5794525047
   77      C      10.9054005022     3.6220891140    -0.1186312164
   78      C      10.6109893105     1.7046417851     3.8767388279
   79      C      11.1123508509     2.3275773054     2.7357993276
   80      N      11.6191265829     4.3612910222     0.6875999048
   81      S      10.4794270921     4.4748450419    -1.5713293892
   82      C      12.0738166856     5.5810623540     0.1859019793
   83      C      11.5179006734     5.8270682841    -1.0033206533
   84      C      -0.2085516357    -3.8981886131     0.3697239658
   85      H       0.8981038551    -2.1157234313    -1.3232664360
   86      H       3.1228753728    -1.1553411007    -1.1514570264
   87      H       3.4583306332    -2.9403094243     2.7895479028
   88      H       4.5050853622     0.4154352163    -0.3312879539
   89      H      10.9829022445     1.7631977279     4.8916343748
   90      H      11.9451136120     3.0193406286     2.7854348835
   91      H      12.7799863668     6.1959498057     0.7273203048
   92      H      11.7343399283     6.6937696629    -1.6140880141
   93      H      -0.9856781371    -3.1265694462     0.3097301164
   94      C      -0.6281029588    -4.9904830702     1.4327514848
   95      H      -0.1434757741    -4.4391261151    -0.5827390262
   96      H      -1.2153455612    -4.5321696035     2.2385714970
   97      H       0.2691920544    -5.3710953840     1.9359948909
   98      C      -1.5011040396    -6.1008735021     0.8365692964
   99      H      -2.2965678449    -5.6302524932     0.2466954114
  100      C      -2.1809349192    -7.0058134333     1.8943210140
  101      H      -0.9686999547    -6.6396819980     0.0436832421
  102      H      -2.8124885594    -6.3274540205     2.4810010857
  103      H      -1.4120810280    -7.4242344589     2.5554484898
  104      C      -3.0914262809    -8.0838739869     1.2776874736
  105      H      -3.8846075866    -8.3397887737     1.9917183119
  106      C      -2.4366645246    -9.2542821682     0.6807413020
  107      H      -3.6880812823    -7.6232850823     0.4807497907
  108      H      -1.9141696361    -9.8481038782     1.4400718414
  109      H      -1.7660968302    -9.0017091520    -0.1497229289
  110      H      -3.1990558514    -9.8953179957     0.2205103462
 ----------------------------------------------------------------

   12   -5663.4882623348      7.02E-06 Convergence criterion met
 Total energy in the final basis set = -5663.4882623348

                    Orbital Energies (a.u.)
 --------------------------------------------------------------

 Alpha MOs
 -- Occupied --
-88.992 -88.990 -88.935 -88.930 -88.923 -88.917 -88.913 -88.911
-14.392 -14.391 -14.388 -14.383 -14.351 -14.349 -14.347 -14.328
-14.321 -14.318 -10.274 -10.267 -10.264 -10.263 -10.262 -10.261
-10.260 -10.255 -10.242 -10.240 -10.239 -10.238 -10.235 -10.235
-10.234 -10.232 -10.232 -10.231 -10.231 -10.229 -10.228 -10.225
-10.225 -10.223 -10.223 -10.223 -10.221 -10.216 -10.216 -10.209
-10.208 -10.207 -10.207 -10.206 -10.204 -10.198 -10.193 -10.190
-10.184 -10.182 -10.179 -10.178 -10.177 -10.176 -10.175 -10.174
-10.172 -10.171 -10.169 -10.167  -8.048  -8.046  -7.997  -7.989
 -7.983  -7.978  -7.973  -7.972  -6.013  -6.011  -6.007  -6.006
 -6.005  -6.004  -5.961  -5.958  -5.955  -5.953  -5.950  -5.947
 -5.946  -5.943  -5.942  -5.939  -5.939  -5.937  -5.936  -5.935
 -5.934  -5.933  -5.929  -5.928  -1.046  -1.043  -0.990  -0.964
 -0.961  -0.954  -0.944  -0.936  -0.920  -0.915  -0.910  -0.909
 -0.847  -0.845  -0.836  -0.825  -0.824  -0.815  -0.812  -0.809
 -0.802  -0.801  -0.793  -0.791  -0.785  -0.783  -0.773  -0.764
 -0.754  -0.753  -0.744  -0.742  -0.729  -0.726  -0.712  -0.709
 -0.696  -0.693  -0.678  -0.674  -0.655  -0.654  -0.646  -0.645
 -0.640  -0.633  -0.629  -0.624  -0.615  -0.606  -0.603  -0.599
 -0.592  -0.590  -0.586  -0.585  -0.577  -0.572  -0.565  -0.562
 -0.559  -0.549  -0.546  -0.537  -0.530  -0.522  -0.520  -0.514
 -0.511  -0.510  -0.502  -0.499  -0.498  -0.483  -0.480  -0.476
 -0.474  -0.471  -0.468  -0.466  -0.464  -0.460  -0.450  -0.448
 -0.446  -0.446  -0.443  -0.441  -0.437  -0.435  -0.434  -0.432
 -0.429  -0.428  -0.428  -0.425  -0.423  -0.421  -0.416  -0.414
 -0.413  -0.410  -0.408  -0.405  -0.403  -0.398  -0.397  -0.396
 -0.395  -0.393  -0.391  -0.389  -0.387  -0.384  -0.383  -0.381
 -0.380  -0.375  -0.373  -0.369  -0.364  -0.362  -0.361  -0.359
 -0.358  -0.354  -0.354  -0.347  -0.346  -0.345  -0.343  -0.341
 -0.338  -0.334  -0.334  -0.333  -0.331  -0.326  -0.325  -0.323
 -0.318  -0.315  -0.313  -0.308  -0.305  -0.304  -0.302  -0.300
 -0.298  -0.297  -0.296  -0.296  -0.291  -0.284  -0.278  -0.276
 -0.275  -0.265  -0.264  -0.257  -0.257  -0.255  -0.249  -0.247
 -0.244  -0.237  -0.237  -0.226  -0.198  -0.194

          Ground-State Mulliken Net Atomic Charges

     Atom                 Charge (a.u.)
  ----------------------------------------
      1 C                     0.259138
      2 C                    -0.124658
      3 N                    -0.455859
      4 C                    -0.043428
      5 C                     0.088062
      6 C                     0.015069
      7 C                    -0.007070
      8 C                     0.053449
      9 C                     0.219628
     10 N                    -0.457334
     11 N                    -0.523520
     12 C                     0.170324
     13 C                     0.235222
     14 S                     0.614201
     15 N                    -0.509319
     16 C                    -0.200369
     17 S                     0.318242
     18 C                    -0.103524
     19 C                    -0.213985
     20 S                     0.255788
     21 C                     0.152336
     22 C                     0.020511
     23 C                    -0.318307
     24 C                    -0.059896
     25 N                    -0.422168
     26 S                     0.291925
     27 C                     0.149734
     28 C                    -0.324408
     29 C                    -0.217670
     30 H                     0.089820
     31 H                     0.097641
     32 H                     0.098445
     33 H                     0.113985
     34 H                     0.144488
     35 H                     0.116662
     36 H                     0.110410
     37 H                     0.142020
     38 H                     0.118620
     39 C                    -0.166213
     40 H                     0.096140
     41 H                     0.118958
     42 H                     0.088241
     43 C                    -0.187201
     44 H                     0.093210
     45 C                    -0.175069
     46 H                     0.083454
     47 H                     0.090173
     48 H                     0.088852
     49 C                    -0.162927
     50 H                     0.103948
     51 C                    -0.328589
     52 H                     0.098451
     53 H                     0.094197
     54 H                     0.099994
     55 H                     0.096974
     56 C                     0.299555
     57 C                    -0.125794
     58 N                    -0.503174
     59 C                    -0.099717
     60 C                     0.069615
     61 C                     0.033586
     62 C                     0.045598
     63 C                     0.056735
     64 C                     0.258021
     65 N                    -0.499721
     66 N                    -0.553713
     67 C                     0.190782
     68 C                     0.227035
     69 S                     0.611921
     70 N                    -0.533524
     71 C                    -0.210157
     72 S                     0.316297
     73 C                    -0.100686
     74 C                    -0.220719
     75 S                     0.276820
     76 C                     0.128450
     77 C                     0.091324
     78 C                    -0.310032
     79 C                    -0.041634
     80 N                    -0.459829
     81 S                     0.236236
     82 C                     0.143742
     83 C                    -0.315443
     84 C                    -0.256114
     85 H                     0.128659
     86 H                     0.084995
     87 H                     0.118719
     88 H                     0.122088
     89 H                     0.128746
     90 H                     0.126995
     91 H                     0.121919
     92 H                     0.124445
     93 H                     0.127333
     94 C                    -0.172301
     95 H                     0.105673
     96 H                     0.091648
     97 H                     0.119135
     98 C                    -0.189253
     99 H                     0.081203
    100 C                    -0.170962
    101 H                     0.089644
    102 H                     0.089870
    103 H                     0.094123
    104 C                    -0.174886
    105 H                     0.088443
    106 C                    -0.306251
    107 H                     0.084484
    108 H                     0.101774
    109 H                     0.103938
    110 H                     0.097556
  ----------------------------------------
  Sum of atomic charges =     0.000000

                    Cartesian Multipole Moments
 -----------------------------------------------------------------
    Charge (ESU x 10^10)
                 0.0000
    Dipole Moment (Debye)
         X      -1.5230      Y       0.8793      Z      -2.4484
       Tot       3.0145
    Quadrupole Moments (Debye-Ang)
        XX    -393.4285     XY       7.4234     YY    -432.5022
        XZ       4.8710     YZ      -2.1056     ZZ    -428.9425

 Total job time:  112.16s(wall), 1230.45s(cpu)
        *  Thank you very much for using Q-Chem.  Have a nice day.  *
