 Q-Chem 4.4, Q-Chem, Inc., Pleasanton, CA (2016)
 Q-Chem 4.4.2 for Intel X86 Linux

User input:
--------------------------------------------------------------
$comment
SP
$end

$rem
MEM_STATIC 5000
MEM_TOTAL 20000
JOBTYPE SP
EXCHANGE B3LYP
BASIS 6-31g(d,p)
$end

$molecule
0 1
C          -0.081000     14.269000     -5.115000
C           0.389000     14.377000     -6.429000
N           0.438000     14.974000     -4.054000
C           1.316000     15.435000     -6.619000
C           1.460000     15.843000     -4.246000
C           1.948000     16.139000     -5.559000
C           2.817000     17.328000     -5.857000
C           2.493000     18.178000     -6.903000
C           3.801000     17.869000     -5.025000
N           3.109000     19.325000     -7.187000
N           4.258000     17.265000     -3.975000
C           4.454000     19.081000     -5.248000
C           4.031000     19.813000     -6.374000
S           5.330000     18.250000     -3.268000
N           5.354000     19.456000     -4.337000
C           4.431000     21.268000     -6.767000
S           3.890000     22.024000     -8.277000
C           4.957000     22.249000     -6.000000
C           4.615000     23.567000     -7.909000
S           5.259000     22.316000     -4.297000
C           5.000000     23.503000     -6.599000
C           4.712000     24.687000     -8.817000
C           5.432000     24.116000     -4.422000
C           5.368000     24.547000     -5.698000
N           5.754000     25.468000     -8.663000
S           3.756000     24.913000    -10.210000
C           5.719000     26.492000     -9.528000
C           4.691000     26.408000    -10.449000
C          -1.236000     13.327000     -4.871000
H          -0.057000     13.723000     -7.173000
H           1.639000     15.682000     -7.626000
H           1.918000     16.248000     -3.344000
H           1.622000     17.937000     -7.510000
H           5.528000     24.678000     -3.502000
H           5.276000     25.574000     -6.032000
H           6.406000     27.320000     -9.412000
H           4.397000     27.158000    -11.171000
H          -1.640000     13.092000     -5.863000
C          -2.372000     14.103000     -4.217000
H          -0.966000     12.397000     -4.354000
H          -2.754000     14.864000     -4.909000
H          -2.040000     14.599000     -3.296000
C          -3.546000     13.097000     -3.918000
H          -3.956000     12.664000     -4.839000
C          -4.605000     13.883000     -3.126000
H          -3.188000     12.283000     -3.275000
H          -4.843000     14.812000     -3.658000
H          -4.212000     14.236000     -2.164000
C          -5.794000     13.024000     -2.880000
H          -6.407000     12.769000     -3.753000
C          -6.821000     13.702000     -2.009000
H          -5.464000     12.054000     -2.490000
H          -6.287000     14.061000     -1.121000
H          -7.608000     12.994000     -1.722000
H          -7.306000     14.575000     -2.464000
C          -7.295000     24.877000    -12.594000
C          -6.115000     24.290000    -12.112000
N          -7.476000     26.213000    -12.655000
C          -5.008000     25.177000    -11.822000
C          -6.463000     27.038000    -12.211000
C          -5.203000     26.569000    -11.771000
C          -4.018000     27.391000    -11.443000
C          -2.730000     26.979000    -11.886000
C          -4.062000     28.667000    -10.794000
N          -1.634000     27.615000    -11.608000
N          -5.152000     29.287000    -10.339000
C          -2.875000     29.382000    -10.587000
C          -1.642000     28.806000    -10.992000
S          -4.600000     30.742000     -9.729000
N          -2.984000     30.562000     -9.887000
C          -0.357000     29.410000    -10.564000
S           0.093000     29.902000     -8.951000
C           0.811000     29.269000    -11.301000
C           1.807000     29.958000     -9.315000
S           0.986000     28.915000    -12.968000
C           2.001000     29.584000    -10.654000
C           2.893000     30.192000     -8.326000
C           2.720000     29.231000    -12.812000
C           3.081000     29.574000    -11.559000
N           2.542000     30.445000     -7.080000
S           4.486000     29.437000     -8.477000
C           3.619000     30.385000     -6.258000
C           4.770000     30.021000     -6.868000
C          -8.304000     23.972000    -13.211000
H          -5.968000     23.231000    -11.924000
H          -4.076000     24.803000    -11.407000
H          -6.718000     28.097000    -12.189000
H          -2.619000     26.085000    -12.497000
H           3.380000     29.100000    -13.659000
H           4.110000     29.755000    -11.271000
H           3.521000     30.700000     -5.228000
H           5.753000     29.933000     -6.424000
H          -8.056000     22.997000    -12.775000
C          -8.345000     24.018000    -14.763000
H          -9.367000     24.079000    -12.964000
H          -7.309000     23.831000    -15.073000
H          -8.584000     24.989000    -15.214000
C          -9.249000     22.922000    -15.338000
H          -9.095000     21.994000    -14.774000
C          -9.032000     22.665000    -16.892000
H         -10.301000     23.100000    -15.083000
H          -8.132000     22.049000    -17.013000
H          -8.890000     23.630000    -17.393000
C         -10.147000     21.977000    -17.712000
H          -9.784000     21.715000    -18.714000
C         -11.350000     22.909000    -17.924000
H         -10.530000     21.046000    -17.276000
H         -12.135000     22.474000    -18.555000
H         -10.967000     23.835000    -18.369000
H         -11.831000     23.234000    -16.993000
$end

--------------------------------------------------------------

             Standard Nuclear Orientation (Angstroms)
    I     Atom           X                Y                Z
 ----------------------------------------------------------------
    1      C      -9.1463536859     3.7717313256    -0.5698391672
    2      C      -8.5174481498     3.6090101742    -1.8096615955
    3      N      -9.3202411977     2.7562365097     0.3415555947
    4      C      -7.8833645853     2.3489340195    -1.9675828338
    5      C      -8.8640835547     1.5093705974     0.0699776102
    6      C      -8.0937863942     1.2388704785    -1.1061180365
    7      C      -7.2810455774    -0.0131160758    -1.2783621437
    8      C      -5.9560329238     0.0705567469    -1.6770253180
    9      C      -7.6119476779    -1.2901402563    -0.8169793932
   10      N      -5.1024698698    -0.9505227444    -1.7444625877
   11      N      -8.7885081806    -1.6077124606    -0.3799230143
   12      C      -6.7514584582    -2.3876650012    -0.8259089590
   13      C      -5.4450574048    -2.1450812688    -1.2918471742
   14      S      -8.7327304685    -3.1498506241     0.1078850748
   15      N      -7.2275898335    -3.5295233007    -0.3259044218
   16      C      -4.2225266208    -3.1116103920    -1.2397517221
   17      S      -2.6562983827    -2.6975591126    -1.9607285901
   18      C      -4.0263361943    -4.2045004346    -0.4687610144
   19      C      -1.8714461488    -4.1473693051    -1.3915578101
   20      S      -4.9713323863    -4.8635602706     0.8229527037
   21      C      -2.7381576281    -4.7263081253    -0.5072150857
   22      C      -0.5424553744    -4.5814538771    -1.7571082251
   23      C      -3.5466210405    -5.8666861481     1.3224424986
   24      C      -2.5126175752    -5.7461668329     0.4655032194
   25      N      -0.3448461943    -5.8774173823    -1.7866074648
   26      S       0.6787396781    -3.5825660452    -2.4023730878
   27      C       0.9283592415    -6.1624089286    -2.0960484715
   28      C       1.6794920891    -5.0534416226    -2.4396644773
   29      C      -9.6446659447     5.1552678749    -0.2256931091
   30      H      -8.4945836124     4.4687405092    -2.4733700888
   31      H      -7.2604285928     2.1748838823    -2.8399613635
   32      H      -9.1699862382     0.7274148814     0.7645003287
   33      H      -5.5447157013     1.0557994898    -1.8898301110
   34      H      -3.6224824173    -6.4244909723     2.2468660106
   35      H      -1.4995902613    -6.1004060510     0.6172900358
   36      H       1.2969598654    -7.1738533770    -1.9859453026
   37      H       2.7449535878    -5.0166021065    -2.6231165010
   38      H      -9.1749425841     5.8277867928    -0.9534178301
   39      C      -9.0161984998     5.5891150946     1.0923331655
   40      H     -10.7354166039     5.2718363946    -0.2676904876
   41      H      -7.9297098342     5.6882038820     0.9755736187
   42      H      -9.2202060948     4.8645364729     1.8909868591
   43      C      -9.5877798827     7.0081237820     1.4657258111
   44      H      -9.3092361997     7.7675113204     0.7243932385
   45      C      -9.0491613795     7.3420290410     2.8674884109
   46      H     -10.6822871644     6.9660044741     1.5327241261
   47      H      -7.9615364678     7.2022426189     2.8830063877
   48      H      -9.4067821193     6.6273437554     3.6197080258
   49      C      -9.4724083914     8.7130106572     3.2591379673
   50      H      -9.0142368191     9.5456212046     2.7116331850
   51      C      -9.0706930422     9.0557726428     4.6712969524
   52      H     -10.5466792997     8.8263492831     3.0720647962
   53      H      -9.4297296577     8.2353945097     5.3042688534
   54      H      -9.5260514535    10.0046539724     4.9799633413
   55      H      -7.9884903385     9.1349708631     4.8354430764
   56      C       5.4591175427     6.2730561898     0.3947773968
   57      C       4.3642035737     5.4614233239     0.0605491938
   58      N       6.5990946511     5.7824624710     0.9250113031
   59      C       4.5522949319     4.0288975085     0.1544077528
   60      C       6.6872072274     4.4260675748     1.1624119337
   61      C       5.6815277605     3.4981575433     0.8035905530
   62      C       5.7734143914     2.0235161651     0.8705431680
   63      C       5.2705263832     1.2366080766    -0.2031496705
   64      C       6.4467674334     1.2920103930     1.9014689588
   65      N       5.2713015422    -0.0606830011    -0.2087406327
   66      N       7.0431548561     1.8071411786     2.9777994452
   67      C       6.5179433868    -0.1053418507     1.8280953201
   68      C       5.8837712122    -0.7735749276     0.7476416154
   69      S       7.6864227141     0.4936522295     3.7869856063
   70      N       7.1097703723    -0.7459921714     2.8927966800
   71      C       5.7193977547    -2.2472218648     0.7715387060
   72      S       5.1083811783    -3.2202842820     2.0853656640
   73      C       5.6234316176    -3.0019855059    -0.3896659902
   74      C       4.7946254704    -4.6135929368     1.0686669139
   75      S       6.1707750160    -2.6119385385    -1.9654542271
   76      C       5.1466843776    -4.3012892098    -0.2538132969
   77      C       4.1067537026    -5.8600083328     1.4994268141
   78      C       5.7798467363    -4.2633099766    -2.4665484834
   79      C       5.2707393894    -5.0095795258    -1.4656136857
   80      N       3.7592220400    -5.9601871845     2.7678557404
   81      S       3.0820434839    -6.7992301201     0.4047549902
   82      C       2.9315858413    -7.0181116188     2.9550113278
   83      C       2.5987134359    -7.6766627242     1.8214755307
   84      C       5.3983659968     7.7031294605    -0.0163122408
   85      H       3.3855949705     5.8168620035    -0.2467333256
   86      H       3.7397738481     3.3363177224    -0.0477499287
   87      H       7.5894237525     4.1158811848     1.6885105418
   88      H       4.8556785347     1.7156160439    -1.0882093464
   89      H       5.9130019562    -4.5706612285    -3.4951275495
   90      H       4.9302719070    -6.0289712702    -1.6051427685
   91      H       2.6657780181    -7.3149606111     3.9604743440
   92      H       1.9791732109    -8.5591116121     1.7286161215
   93      H       4.3221638164     7.8780304861    -0.1321720624
   94      C       6.2684867567     8.0536535868    -1.2542636534
   95      H       5.6930616617     8.4929581963     0.6849380948
   96      H       5.9529277679     7.3396457303    -2.0256133182
   97      H       7.3465902114     7.8764017902    -1.1560916533
   98      C       6.0017569790     9.4798898876    -1.7479864905
   99      H       4.9249609753     9.6830306413    -1.7006557330
  100      C       6.5520599704     9.7622073937    -3.2127449837
  101      H       6.3444702032    10.2238089903    -1.0182296717
  102      H       5.8431674069     9.3324534799    -3.9316885886
  103      H       7.5295772178     9.2775632108    -3.3221526932
  104      C       6.8031835726    11.2193054273    -3.6630462795
  105      H       7.0107457688    11.2605618516    -4.7399087787
  106      C       8.0337281488    11.8218984608    -2.9677631128
  107      H       5.9641256542    11.9046253369    -3.4902329956
  108      H       8.2777159605    12.8351961523    -3.3102667422
  109      H       8.8736177999    11.1409988572    -3.1498375584
  110      H       7.9510939991    11.8646659615    -1.8745616043
 ----------------------------------------------------------------

   10   -5663.5101113869      3.44E-06 Convergence criterion met
 Total energy in the final basis set = -5663.5101113869

                    Orbital Energies (a.u.)
 --------------------------------------------------------------

 Alpha MOs
 -- Occupied --
-88.991 -88.989 -88.929 -88.929 -88.929 -88.915 -88.912 -88.900
-14.396 -14.390 -14.387 -14.377 -14.349 -14.346 -14.343 -14.336
-14.334 -14.332 -10.273 -10.267 -10.266 -10.265 -10.259 -10.257
-10.256 -10.252 -10.247 -10.241 -10.239 -10.238 -10.235 -10.233
-10.233 -10.232 -10.232 -10.232 -10.231 -10.230 -10.229 -10.228
-10.228 -10.227 -10.227 -10.222 -10.222 -10.221 -10.220 -10.218
-10.216 -10.216 -10.211 -10.207 -10.206 -10.204 -10.200 -10.191
-10.186 -10.184 -10.184 -10.183 -10.182 -10.179 -10.177 -10.177
-10.170 -10.169 -10.169 -10.166  -8.046  -8.046  -7.990  -7.990
 -7.988  -7.975  -7.973  -7.960  -6.011  -6.011  -6.006  -6.005
 -6.004  -6.003  -5.954  -5.954  -5.952  -5.951  -5.951  -5.948
 -5.947  -5.947  -5.945  -5.939  -5.938  -5.935  -5.934  -5.931
 -5.929  -5.925  -5.921  -5.916  -1.059  -1.036  -0.980  -0.977
 -0.970  -0.967  -0.932  -0.930  -0.923  -0.922  -0.914  -0.908
 -0.855  -0.841  -0.834  -0.833  -0.813  -0.812  -0.810  -0.809
 -0.806  -0.804  -0.796  -0.794  -0.792  -0.783  -0.772  -0.767
 -0.753  -0.749  -0.747  -0.743  -0.731  -0.718  -0.712  -0.710
 -0.695  -0.694  -0.678  -0.678  -0.657  -0.657  -0.648  -0.645
 -0.639  -0.637  -0.628  -0.627  -0.613  -0.609  -0.601  -0.599
 -0.594  -0.590  -0.586  -0.579  -0.579  -0.578  -0.572  -0.567
 -0.552  -0.547  -0.546  -0.543  -0.531  -0.525  -0.522  -0.514
 -0.508  -0.507  -0.507  -0.503  -0.490  -0.489  -0.482  -0.481
 -0.476  -0.476  -0.474  -0.472  -0.466  -0.461  -0.457  -0.450
 -0.448  -0.444  -0.442  -0.441  -0.439  -0.436  -0.435  -0.434
 -0.432  -0.428  -0.428  -0.426  -0.424  -0.418  -0.416  -0.415
 -0.413  -0.412  -0.407  -0.406  -0.404  -0.401  -0.400  -0.397
 -0.397  -0.395  -0.393  -0.389  -0.388  -0.387  -0.386  -0.383
 -0.380  -0.378  -0.372  -0.371  -0.366  -0.366  -0.362  -0.358
 -0.355  -0.354  -0.350  -0.349  -0.348  -0.346  -0.342  -0.340
 -0.339  -0.337  -0.334  -0.333  -0.329  -0.328  -0.328  -0.321
 -0.320  -0.317  -0.311  -0.310  -0.308  -0.303  -0.303  -0.300
 -0.299  -0.296  -0.294  -0.291  -0.287  -0.283  -0.281  -0.278
 -0.276  -0.274  -0.270  -0.268  -0.260  -0.254  -0.252  -0.249
 -0.248  -0.239  -0.235  -0.235  -0.199  -0.193

          Ground-State Mulliken Net Atomic Charges

     Atom                 Charge (a.u.)
  ----------------------------------------
      1 C                     0.275988
      2 C                    -0.114787
      3 N                    -0.486438
      4 C                    -0.105614
      5 C                     0.090564
      6 C                     0.043314
      7 C                     0.065001
      8 C                     0.056622
      9 C                     0.219543
     10 N                    -0.510376
     11 N                    -0.546959
     12 C                     0.227116
     13 C                     0.290849
     14 S                     0.597784
     15 N                    -0.557239
     16 C                    -0.235735
     17 S                     0.294865
     18 C                    -0.100577
     19 C                    -0.212155
     20 S                     0.258396
     21 C                     0.136215
     22 C                     0.037293
     23 C                    -0.321782
     24 C                    -0.019154
     25 N                    -0.412243
     26 S                     0.282789
     27 C                     0.134399
     28 C                    -0.313822
     29 C                    -0.226073
     30 H                     0.100122
     31 H                     0.096743
     32 H                     0.121353
     33 H                     0.107464
     34 H                     0.126834
     35 H                     0.107480
     36 H                     0.112720
     37 H                     0.125609
     38 H                     0.093756
     39 C                    -0.181132
     40 H                     0.116522
     41 H                     0.093318
     42 H                     0.124266
     43 C                    -0.181939
     44 H                     0.091788
     45 C                    -0.162924
     46 H                     0.093525
     47 H                     0.087934
     48 H                     0.093357
     49 C                    -0.169814
     50 H                     0.088992
     51 C                    -0.317322
     52 H                     0.089729
     53 H                     0.094693
     54 H                     0.094502
     55 H                     0.101596
     56 C                     0.279555
     57 C                    -0.121016
     58 N                    -0.482855
     59 C                    -0.108923
     60 C                     0.071859
     61 C                     0.064603
     62 C                     0.022698
     63 C                     0.061405
     64 C                     0.264246
     65 N                    -0.480847
     66 N                    -0.569388
     67 C                     0.173228
     68 C                     0.241518
     69 S                     0.608272
     70 N                    -0.533436
     71 C                    -0.203181
     72 S                     0.365408
     73 C                    -0.118295
     74 C                    -0.236706
     75 S                     0.264889
     76 C                     0.153240
     77 C                     0.052751
     78 C                    -0.307176
     79 C                    -0.077785
     80 N                    -0.421862
     81 S                     0.274575
     82 C                     0.128990
     83 C                    -0.313447
     84 C                    -0.225419
     85 H                     0.099318
     86 H                     0.105735
     87 H                     0.120574
     88 H                     0.115048
     89 H                     0.130786
     90 H                     0.109616
     91 H                     0.116872
     92 H                     0.133095
     93 H                     0.091955
     94 C                    -0.167920
     95 H                     0.111339
     96 H                     0.092313
     97 H                     0.116860
     98 C                    -0.184307
     99 H                     0.090466
    100 C                    -0.175032
    101 H                     0.094683
    102 H                     0.092804
    103 H                     0.093193
    104 C                    -0.181061
    105 H                     0.094877
    106 C                    -0.315982
    107 H                     0.090974
    108 H                     0.098106
    109 H                     0.098498
    110 H                     0.103333
  ----------------------------------------
  Sum of atomic charges =     0.000000

                    Cartesian Multipole Moments
 -----------------------------------------------------------------
    Charge (ESU x 10^10)
                 0.0000
    Dipole Moment (Debye)
         X      -0.1942      Y      -0.5474      Z      -1.5965
       Tot       1.6989
    Quadrupole Moments (Debye-Ang)
        XX    -460.0453     XY     -19.2619     YY    -413.7092
        XZ      -8.6345     YZ     -18.1569     ZZ    -441.5598

 Total job time:  91.44s(wall), 984.81s(cpu)
        *  Thank you very much for using Q-Chem.  Have a nice day.  *
