 Q-Chem 4.4, Q-Chem, Inc., Pleasanton, CA (2016)
 Q-Chem 4.4.2 for Intel X86 Linux

User input:
--------------------------------------------------------------
$comment
SP
$end

$rem
MEM_STATIC 5000
MEM_TOTAL 20000
JOBTYPE SP
EXCHANGE B3LYP
BASIS 6-31g(d,p)
$end

$molecule
0 1
C          -6.574000    -25.097000      7.448000
C          -5.582000    -25.382000      6.599000
N          -6.463000    -24.514000      8.649000
C          -4.264000    -25.348000      7.072000
C          -5.205000    -24.418000      9.126000
C          -4.079000    -24.839000      8.409000
C          -2.659000    -24.737000      8.902000
C          -1.711000    -25.727000      8.470000
C          -2.236000    -23.757000      9.769000
N          -0.486000    -25.754000      8.985000
N          -3.012000    -22.775000     10.332000
C          -0.932000    -23.697000     10.163000
C          -0.020000    -24.726000      9.799000
S          -1.988000    -21.753000     11.056000
N          -0.597000    -22.605000     10.898000
C           1.450000    -24.732000     10.113000
S           2.454000    -23.403000     10.653000
C           2.301000    -25.720000      9.712000
C           3.957000    -24.173000     10.415000
S           1.949000    -27.321000      9.107000
C           3.709000    -25.487000      9.947000
C           5.259000    -23.676000     10.952000
C           3.638000    -27.786000      9.373000
C           4.480000    -26.678000      9.695000
N           5.428000    -22.386000     10.946000
S           6.282000    -24.519000     12.061000
C           6.477000    -22.024000     11.803000
C           7.008000    -23.039000     12.506000
C          -7.981000    -25.167000      6.928000
H          -5.836000    -25.770000      5.617000
H          -3.420000    -25.682000      6.476000
H          -5.186000    -23.949000     10.109000
H          -2.000000    -26.637000      7.946000
H           3.945000    -28.817000      9.256000
H           5.526000    -26.707000      9.977000
H           6.652000    -20.962000     11.910000
H           7.694000    -22.925000     13.334000
H          -8.797000    -25.049000      7.652000
C          -8.346000    -26.552000      6.307000
H          -7.933000    -24.328000      6.223000
H          -7.669000    -26.782000      5.475000
H          -9.360000    -26.491000      5.894000
C          -8.401000    -27.714000      7.323000
H          -7.486000    -27.656000      7.925000
C          -8.502000    -29.048000      6.621000
H          -9.268000    -27.473000      7.950000
H          -7.713000    -29.222000      5.879000
H          -9.499000    -29.097000      6.165000
C          -8.327000    -30.252000      7.614000
H          -9.208000    -30.325000      8.265000
C          -6.968000    -30.263000      8.349000
H          -8.352000    -31.188000      7.042000
H          -6.672000    -31.279000      8.638000
H          -7.006000    -29.765000      9.325000
H          -6.156000    -29.905000      7.704000
C          -4.771000    -15.077000      6.739000
C          -5.046000    -16.161000      5.844000
N          -3.957000    -15.190000      7.826000
C          -4.540000    -17.392000      6.115000
C          -3.361000    -16.366000      8.083000
C          -3.547000    -17.503000      7.183000
C          -2.697000    -18.734000      7.197000
C          -1.335000    -18.659000      7.472000
C          -3.231000    -20.036000      6.945000
N          -0.574000    -19.815000      7.468000
N          -4.528000    -20.235000      6.885000
C          -2.396000    -21.112000      6.862000
C          -1.042000    -21.013000      7.024000
S          -4.634000    -21.835000      6.600000
N          -3.061000    -22.273000      6.597000
C          -0.104000    -22.146000      7.019000
S          -0.370000    -23.682000      6.220000
C           1.247000    -22.043000      7.407000
C           1.258000    -24.230000      6.449000
S           2.186000    -20.724000      7.940000
C           1.901000    -23.249000      7.164000
C           1.796000    -25.366000      5.693000
C           3.582000    -21.751000      7.759000
C           3.315000    -23.027000      7.264000
N           3.075000    -25.681000      5.637000
S           0.739000    -26.479000      4.901000
C           3.259000    -26.938000      4.981000
C           2.114000    -27.572000      4.570000
C          -5.332000    -13.655000      6.550000
H          -5.702000    -16.098000      4.982000
H          -4.647000    -18.246000      5.453000
H          -2.600000    -16.371000      8.861000
H          -0.819000    -17.770000      7.833000
H           4.571000    -21.332000      7.894000
H           4.017000    -23.809000      7.001000
H           4.271000    -27.312000      4.900000
H           2.047000    -28.550000      4.112000
H          -6.323000    -13.470000      6.982000
C          -5.221000    -13.141000      5.049000
H          -4.651000    -13.012000      7.121000
H          -5.850000    -13.709000      4.353000
H          -4.207000    -13.415000      4.733000
C          -5.631000    -11.677000      4.760000
H          -6.671000    -11.483000      5.050000
C          -5.334000    -11.478000      3.277000
H          -5.041000    -10.963000      5.349000
H          -5.676000    -12.350000      2.705000
H          -4.258000    -11.559000      3.080000
C          -5.916000    -10.235000      2.600000
H          -5.333000     -9.368000      2.933000
C          -7.450000     -9.955000      2.851000
H          -5.660000    -10.294000      1.535000
H          -7.589000     -9.659000      3.898000
H          -8.054000    -10.852000      2.669000
H          -7.859000     -9.174000      2.198000
$end

--------------------------------------------------------------

             Standard Nuclear Orientation (Angstroms)
    I     Atom           X                Y                Z
 ----------------------------------------------------------------
    1      C      -1.0305684140     5.7476468913    -0.7140308199
    2      C      -0.4802816972     5.2646980112     0.4040187803
    3      N      -1.0874141677     5.1443398996    -1.9087693830
    4      C       0.3733921239     4.1583792453     0.3075366805
    5      C      -0.3147903175     4.0458566319    -2.0340526492
    6      C       0.4535319545     3.5253781328    -0.9862029375
    7      C       1.3180314582     2.2953250947    -1.0834815652
    8      C       2.5047922106     2.2263724324    -0.2758477082
    9      C       1.0386738299     1.2489271625    -1.9308472968
   10      N       3.3644617406     1.2243426358    -0.4290912595
   11      N      -0.0079067840     1.1720731949    -2.8152858114
   12      C       1.8424161167     0.1478250372    -1.9595604616
   13      C       3.0577154768     0.1219321997    -1.2210091592
   14      S      -0.0176186382    -0.3480246474    -3.3688598623
   15      N       1.3897730848    -0.8819606073    -2.7208552876
   16      C       3.9848768822    -1.0568516892    -1.1191648088
   17      S       3.6750743804    -2.7265095411    -1.5459224303
   18      C       5.1235031183    -1.0558022102    -0.3677160792
   19      C       5.0605022555    -3.3874400804    -0.8027445076
   20      S       5.9968067582     0.2838856374     0.3363487072
   21      C       5.8083944625    -2.3234102840    -0.2409421945
   22      C       5.5639935539    -4.7751635169    -1.0292443453
   23      C       7.3908865172    -0.7756610157     0.6076502280
   24      C       7.1000003293    -2.1546802363     0.3752643098
   25      N       4.6588322874    -5.7008125176    -1.1579067291
   26      S       7.1052171194    -5.1953524991    -1.6888882948
   27      C       5.2114948693    -6.8509237041    -1.7390283422
   28      C       6.4941070724    -6.7297918689    -2.1219487188
   29      C      -1.9199320150     6.9514266923    -0.5919833876
   30      H      -0.5953360979     5.8300514729     1.3240850541
   31      H       0.9473984276     3.7873093081     1.1512972300
   32      H      -0.3958330369     3.6128821934    -3.0303338411
   33      H       2.9008537054     3.0805379897     0.2716315088
   34      H       8.3320027630    -0.3630659370     0.9467144003
   35      H       7.7950793437    -2.9859079586     0.3954295634
   36      H       4.5176345081    -7.6555191094    -1.9417647055
   37      H       7.0245441984    -7.4413951827    -2.7395514869
   38      H      -2.2752838591     7.4171028315    -1.5197909110
   39      C      -1.2258126606     8.1701532758     0.0935783065
   40      H      -2.7375301085     6.4895444742    -0.0250193904
   41      H      -0.8925398082     7.8956184354     1.1020488451
   42      H      -1.9636852067     8.9740160347     0.2023660382
   43      C      -0.0759907150     8.7957406820    -0.7262234321
   44      H       0.5656001812     7.9705557788    -1.0585244968
   45      C       0.7063287827     9.7887082049     0.1011535690
   46      H      -0.5824459767     9.2379261026    -1.5927533632
   47      H       1.0847500127     9.3808794714     1.0465815657
   48      H       0.0514782257    10.6528309593     0.2708845716
   49      C       2.0131071209    10.2646458517    -0.6283008375
   50      H       1.7486332167    10.9081164883    -1.4775888298
   51      C       2.9973428284     9.1198269317    -0.9567771872
   52      H       2.5661509258    10.9361856232     0.0403409837
   53      H       4.0327465760     9.4783922696    -1.0093412240
   54      H       2.8594876945     8.7141467969    -1.9659568492
   55      H       3.0034053593     8.3534458258    -0.1718209806
   56      C      -7.9655943521    -1.7359299944    -0.9493651218
   57      C      -7.5292403066    -0.7366434736    -0.0205338151
   58      N      -7.1149333908    -2.4409867470    -1.7469896604
   59      C      -6.2128164802    -0.4062099510     0.0312348671
   60      C      -5.7938261752    -2.2124918006    -1.6650947012
   61      C      -5.2671844330    -1.2489718929    -0.6998782163
   62      C      -3.8261811947    -1.1518511615    -0.3098343331
   63      C      -3.0339621393    -2.2915997271    -0.2115684926
   64      C      -3.1905181364     0.0984500908    -0.0331698164
   65      N      -1.7066479912    -2.1692537467     0.1609118602
   66      N      -3.7902996670     1.2359391071    -0.3011079689
   67      C      -1.9049466068     0.1244045907     0.4234725010
   68      C      -1.1670911520    -1.0090870966     0.6237895561
   69      S      -2.6895027065     2.3419992027     0.1650873942
   70      N      -1.4566119933     1.3911950123     0.6571584063
   71      C       0.2427574399    -1.0382033093     1.0421640225
   72      S       1.0609933717     0.2201274209     1.9452402835
   73      C       1.0382442281    -2.2015138951     1.0259390200
   74      C       2.4744844452    -0.7360359229     2.2467757626
   75      S       0.6973010411    -3.8136246725     0.5895589279
   76      C       2.2774396178    -1.9338853680     1.6038410513
   77      C       3.4517618962    -0.3541265065     3.2717391675
   78      C       2.2367843831    -4.2405412301     1.2852882521
   79      C       2.9369697407    -3.1816400461     1.8623140292
   80      N       4.4075480359    -1.1455458019     3.7170821297
   81      S       3.4944390828     1.2566198046     3.8937978294
   82      C       5.3049464099    -0.4273485387     4.5674407891
   83      C       5.0316845176     0.9063935784     4.7358507159
   84      C      -9.4386353541    -2.1521773621    -1.1208712011
   85      H      -8.1891669064    -0.1529787306     0.6128549682
   86      H      -5.7947973233     0.2902616151     0.7517876702
   87      H      -5.1423513347    -2.9023962548    -2.1980509623
   88      H      -3.3297227082    -3.2876444702    -0.5391636018
   89      H       2.5117011050    -5.2843840707     1.3672633710
   90      H       3.8693832469    -3.2100287341     2.4130373136
   91      H       6.1477413981    -0.9718263238     4.9721895376
   92      H       5.6248885802     1.6214591928     5.2904019823
   93      H     -10.0260696535    -1.5535914113    -1.8276567438
   94      C     -10.1884897629    -2.3580764842     0.2665155212
   95      H      -9.3919503433    -3.1522524667    -1.5691136521
   96      H     -10.2982593630    -1.4281892417     0.8374282563
   97      H      -9.4869680119    -2.9348887840     0.8815625142
   98      C     -11.6358516498    -2.9043111819     0.2254275276
   99      H     -12.2973486205    -2.2545821064    -0.3607549409
  100      C     -12.0308980254    -3.0627917472     1.6903238624
  101      H     -11.6909476924    -3.8798706141    -0.2746376885
  102      H     -11.7076755982    -2.1846006348     2.2637692675
  103      H     -11.4108012957    -3.8223438914     2.1819605026
  104      C     -13.5119945570    -3.2882969929     2.0027377675
  105      H     -13.7603507278    -4.3191180246     1.7231054855
  106      C     -14.5317674049    -2.3029415925     1.3072558672
  107      H     -13.6149538914    -3.3107991941     3.0945871281
  108      H     -14.5509061414    -2.5150098746     0.2312415771
  109      H     -14.2303880824    -1.2571551662     1.4416071031
  110      H     -15.5498828573    -2.3811041143     1.7084821697
 ----------------------------------------------------------------

   10   -5663.4945144535      7.05E-06 Convergence criterion met
 Total energy in the final basis set = -5663.4945144535

                    Orbital Energies (a.u.)
 --------------------------------------------------------------

 Alpha MOs
 -- Occupied --
-88.989 -88.983 -88.927 -88.920 -88.918 -88.917 -88.904 -88.904
-14.384 -14.381 -14.380 -14.377 -14.348 -14.343 -14.340 -14.338
-14.330 -14.325 -10.268 -10.267 -10.265 -10.255 -10.247 -10.247
-10.246 -10.244 -10.240 -10.238 -10.237 -10.237 -10.235 -10.235
-10.233 -10.231 -10.231 -10.230 -10.228 -10.225 -10.225 -10.221
-10.221 -10.221 -10.220 -10.220 -10.220 -10.217 -10.216 -10.215
-10.208 -10.208 -10.208 -10.204 -10.199 -10.198 -10.193 -10.185
-10.183 -10.183 -10.180 -10.180 -10.180 -10.179 -10.179 -10.179
-10.176 -10.176 -10.175 -10.173  -8.044  -8.038  -7.989  -7.979
 -7.979  -7.975  -7.964  -7.963  -6.009  -6.004  -6.003  -6.002
 -5.998  -5.996  -5.953  -5.949  -5.946  -5.944  -5.944  -5.940
 -5.940  -5.940  -5.936  -5.936  -5.936  -5.932  -5.929  -5.928
 -5.925  -5.924  -5.921  -5.920  -1.046  -1.035  -0.973  -0.955
 -0.949  -0.947  -0.942  -0.931  -0.912  -0.909  -0.904  -0.894
 -0.844  -0.835  -0.830  -0.824  -0.812  -0.812  -0.807  -0.804
 -0.803  -0.794  -0.794  -0.792  -0.786  -0.779  -0.763  -0.762
 -0.748  -0.746  -0.736  -0.735  -0.717  -0.714  -0.706  -0.705
 -0.691  -0.687  -0.673  -0.669  -0.656  -0.654  -0.646  -0.644
 -0.636  -0.631  -0.623  -0.620  -0.612  -0.606  -0.598  -0.595
 -0.590  -0.586  -0.581  -0.577  -0.574  -0.573  -0.566  -0.562
 -0.551  -0.539  -0.537  -0.533  -0.522  -0.515  -0.514  -0.505
 -0.503  -0.501  -0.500  -0.495  -0.485  -0.484  -0.479  -0.475
 -0.473  -0.470  -0.467  -0.465  -0.464  -0.461  -0.454  -0.446
 -0.446  -0.439  -0.438  -0.435  -0.434  -0.432  -0.430  -0.430
 -0.427  -0.425  -0.423  -0.421  -0.420  -0.417  -0.416  -0.406
 -0.406  -0.403  -0.401  -0.400  -0.398  -0.396  -0.396  -0.394
 -0.392  -0.390  -0.389  -0.384  -0.382  -0.380  -0.379  -0.377
 -0.376  -0.371  -0.371  -0.367  -0.364  -0.358  -0.357  -0.356
 -0.352  -0.352  -0.349  -0.347  -0.345  -0.342  -0.338  -0.336
 -0.336  -0.334  -0.327  -0.327  -0.325  -0.322  -0.321  -0.321
 -0.316  -0.310  -0.310  -0.305  -0.305  -0.301  -0.301  -0.297
 -0.294  -0.291  -0.289  -0.286  -0.284  -0.280  -0.278  -0.274
 -0.270  -0.269  -0.266  -0.258  -0.256  -0.253  -0.251  -0.248
 -0.241  -0.234  -0.225  -0.222  -0.194  -0.188

          Ground-State Mulliken Net Atomic Charges

     Atom                 Charge (a.u.)
  ----------------------------------------
      1 C                     0.278789
      2 C                    -0.108396
      3 N                    -0.483223
      4 C                    -0.079734
      5 C                     0.072146
      6 C                     0.020806
      7 C                     0.041271
      8 C                     0.060833
      9 C                     0.256732
     10 N                    -0.518930
     11 N                    -0.573319
     12 C                     0.208397
     13 C                     0.292161
     14 S                     0.621112
     15 N                    -0.563131
     16 C                    -0.216350
     17 S                     0.363648
     18 C                    -0.125318
     19 C                    -0.223095
     20 S                     0.296285
     21 C                     0.138355
     22 C                     0.045990
     23 C                    -0.315326
     24 C                    -0.087210
     25 N                    -0.409717
     26 S                     0.281395
     27 C                     0.105205
     28 C                    -0.302203
     29 C                    -0.223705
     30 H                     0.093250
     31 H                     0.113797
     32 H                     0.124936
     33 H                     0.122314
     34 H                     0.126707
     35 H                     0.100331
     36 H                     0.115251
     37 H                     0.141228
     38 H                     0.109962
     39 C                    -0.200047
     40 H                     0.109073
     41 H                     0.082622
     42 H                     0.090563
     43 C                    -0.164979
     44 H                     0.105171
     45 C                    -0.172061
     46 H                     0.095140
     47 H                     0.090914
     48 H                     0.090233
     49 C                    -0.180816
     50 H                     0.092412
     51 C                    -0.321070
     52 H                     0.089268
     53 H                     0.097973
     54 H                     0.111643
     55 H                     0.101721
     56 C                     0.253881
     57 C                    -0.105534
     58 N                    -0.467644
     59 C                    -0.044212
     60 C                     0.073259
     61 C                     0.011565
     62 C                     0.016343
     63 C                     0.053685
     64 C                     0.236123
     65 N                    -0.543556
     66 N                    -0.545125
     67 C                     0.203101
     68 C                     0.316603
     69 S                     0.605707
     70 N                    -0.567428
     71 C                    -0.247205
     72 S                     0.313124
     73 C                    -0.084755
     74 C                    -0.199701
     75 S                     0.305018
     76 C                     0.100191
     77 C                     0.099083
     78 C                    -0.298486
     79 C                    -0.063767
     80 N                    -0.452159
     81 S                     0.241667
     82 C                     0.117835
     83 C                    -0.305474
     84 C                    -0.237394
     85 H                     0.095984
     86 H                     0.107309
     87 H                     0.104209
     88 H                     0.121683
     89 H                     0.128529
     90 H                     0.131460
     91 H                     0.115467
     92 H                     0.135598
     93 H                     0.111494
     94 C                    -0.191262
     95 H                     0.125234
     96 H                     0.092929
     97 H                     0.100625
     98 C                    -0.170745
     99 H                     0.098407
    100 C                    -0.176492
    101 H                     0.094582
    102 H                     0.086493
    103 H                     0.093666
    104 C                    -0.183620
    105 H                     0.092025
    106 C                    -0.320050
    107 H                     0.089540
    108 H                     0.107740
    109 H                     0.102340
    110 H                     0.103108
  ----------------------------------------
  Sum of atomic charges =     0.000000

                    Cartesian Multipole Moments
 -----------------------------------------------------------------
    Charge (ESU x 10^10)
                 0.0000
    Dipole Moment (Debye)
         X       2.3465      Y       0.6343      Z       2.5667
       Tot       3.5350
    Quadrupole Moments (Debye-Ang)
        XX    -404.6183     XY     -14.2767     YY    -417.6148
        XZ      -5.3217     YZ      21.9632     ZZ    -442.1333

 Total job time:  126.31s(wall), 1304.01s(cpu)
        *  Thank you very much for using Q-Chem.  Have a nice day.  *
