 Q-Chem 4.4, Q-Chem, Inc., Pleasanton, CA (2016)
 Q-Chem 4.4.2 for Intel X86 Linux

User input:
--------------------------------------------------------------
$comment
SP
$end

$rem
MEM_STATIC 5000
MEM_TOTAL 20000
JOBTYPE SP
EXCHANGE B3LYP
BASIS 6-31g(d,p)
$end

$molecule
0 1
C           2.851000    -30.692000     -0.724000
C           2.110000    -30.274000      0.352000
N           3.962000    -30.042000     -1.126000
C           2.444000    -29.064000      1.036000
C           4.302000    -28.899000     -0.477000
C           3.624000    -28.342000      0.656000
C           3.984000    -27.010000      1.217000
C           2.924000    -26.217000      1.783000
C           5.299000    -26.459000      1.386000
N           3.115000    -24.906000      2.179000
N           6.436000    -27.106000      1.052000
C           5.492000    -25.212000      1.983000
C           4.381000    -24.419000      2.336000
S           7.659000    -26.150000      1.574000
N           6.778000    -24.812000      2.005000
C           4.596000    -23.017000      2.808000
S           6.201000    -22.145000      3.124000
C           3.631000    -22.241000      3.357000
C           5.387000    -20.753000      3.842000
S           1.855000    -22.408000      3.197000
C           4.037000    -20.983000      3.772000
C           6.164000    -19.698000      4.497000
C           1.671000    -20.819000      3.902000
C           2.896000    -20.204000      4.127000
N           5.627000    -19.158000      5.555000
S           7.739000    -19.155000      3.931000
C           6.448000    -18.155000      5.942000
C           7.602000    -18.025000      5.245000
C           2.540000    -31.963000     -1.364000
H           1.324000    -30.856000      0.825000
H           1.898000    -28.607000      1.855000
H           5.217000    -28.445000     -0.856000
H           1.941000    -26.667000      1.918000
H           0.739000    -20.418000      4.277000
H           2.979000    -19.220000      4.574000
H           6.131000    -17.407000      6.657000
H           8.357000    -17.306000      5.536000
H           1.466000    -32.165000     -1.266000
C           3.371000    -33.203000     -0.751000
H           2.615000    -31.917000     -2.458000
H           3.130000    -33.157000      0.319000
H           4.465000    -33.245000     -0.819000
C           2.790000    -34.532000     -1.169000
H           1.700000    -34.479000     -1.065000
C           3.409000    -35.751000     -0.429000
H           3.006000    -34.670000     -2.236000
H           3.269000    -35.673000      0.656000
H           4.487000    -35.873000     -0.595000
C           2.701000    -37.011000     -0.945000
H           1.625000    -36.797000     -0.949000
C           3.074000    -38.312000     -0.150000
H           2.882000    -37.218000     -2.007000
H           4.150000    -38.395000      0.047000
H           2.742000    -39.067000     -0.873000
H           2.502000    -38.345000      0.785000
C          -4.771000    -15.077000      6.739000
C          -5.046000    -16.161000      5.844000
N          -3.957000    -15.190000      7.826000
C          -4.540000    -17.392000      6.115000
C          -3.361000    -16.366000      8.083000
C          -3.547000    -17.503000      7.183000
C          -2.697000    -18.734000      7.197000
C          -1.335000    -18.659000      7.472000
C          -3.231000    -20.036000      6.945000
N          -0.574000    -19.815000      7.468000
N          -4.528000    -20.235000      6.885000
C          -2.396000    -21.112000      6.862000
C          -1.042000    -21.013000      7.024000
S          -4.634000    -21.835000      6.600000
N          -3.061000    -22.273000      6.597000
C          -0.104000    -22.146000      7.019000
S          -0.370000    -23.682000      6.220000
C           1.247000    -22.043000      7.407000
C           1.258000    -24.230000      6.449000
S           2.186000    -20.724000      7.940000
C           1.901000    -23.249000      7.164000
C           1.796000    -25.366000      5.693000
C           3.582000    -21.751000      7.759000
C           3.315000    -23.027000      7.264000
N           3.075000    -25.681000      5.637000
S           0.739000    -26.479000      4.901000
C           3.259000    -26.938000      4.981000
C           2.114000    -27.572000      4.570000
C          -5.332000    -13.655000      6.550000
H          -5.702000    -16.098000      4.982000
H          -4.647000    -18.246000      5.453000
H          -2.600000    -16.371000      8.861000
H          -0.819000    -17.770000      7.833000
H           4.571000    -21.332000      7.894000
H           4.017000    -23.809000      7.001000
H           4.271000    -27.312000      4.900000
H           2.047000    -28.550000      4.112000
H          -6.323000    -13.470000      6.982000
C          -5.221000    -13.141000      5.049000
H          -4.651000    -13.012000      7.121000
H          -5.850000    -13.709000      4.353000
H          -4.207000    -13.415000      4.733000
C          -5.631000    -11.677000      4.760000
H          -6.671000    -11.483000      5.050000
C          -5.334000    -11.478000      3.277000
H          -5.041000    -10.963000      5.349000
H          -5.676000    -12.350000      2.705000
H          -4.258000    -11.559000      3.080000
C          -5.916000    -10.235000      2.600000
H          -5.333000     -9.368000      2.933000
C          -7.450000     -9.955000      2.851000
H          -5.660000    -10.294000      1.535000
H          -7.589000     -9.659000      3.898000
H          -8.054000    -10.852000      2.669000
H          -7.859000     -9.174000      2.198000
$end

--------------------------------------------------------------

             Standard Nuclear Orientation (Angstroms)
    I     Atom           X                Y                Z
 ----------------------------------------------------------------
    1      C       8.7453403079     2.2672975393     2.2737751611
    2      C       7.7672909363     2.6993348327     1.4145055853
    3      N       8.7675840206     1.0104011067     2.7617726765
    4      C       6.6711793594     1.8463584480     1.0761526660
    5      C       7.7416610789     0.1823440423     2.4376529215
    6      C       6.6542017024     0.4953470028     1.5584013925
    7      C       5.4989431222    -0.4257942568     1.3701956737
    8      C       4.2086635103     0.1649228257     1.1272206716
    9      C       5.5299301636    -1.8576643292     1.2693249699
   10      N       3.0472726423    -0.5851488690     1.1031021217
   11      N       6.6608886339    -2.5929715247     1.3258074170
   12      C       4.3673331681    -2.5938659318     1.0347137460
   13      C       3.1161665719    -1.9449422277     0.9992288911
   14      S       6.2039088339    -4.1331076196     1.0075319521
   15      N       4.5579795584    -3.9272577116     1.0341521553
   16      C       1.8648843856    -2.7595456018     0.9262409922
   17      S       1.6996754595    -4.5978514158     0.7541865101
   18      C       0.6340787457    -2.2465702169     0.6879644068
   19      C      -0.0461891871    -4.4917320641     0.5165327309
   20      S       0.0757035601    -0.5608894731     0.9211222550
   21      C      -0.3965491340    -3.1696977988     0.6153927789
   22      C      -0.8140405635    -5.6780326186     0.1306904600
   23      C      -1.5709007225    -1.1070788970     0.7062421735
   24      C      -1.6488568066    -2.4878351349     0.5762034849
   25      N      -1.8061620193    -5.4810736712    -0.6916447454
   26      S      -0.4576390794    -7.2998950384     0.7123864916
   27      C      -2.4344722516    -6.6699383976    -0.8387702508
   28      C      -1.8623388462    -7.7288796942    -0.2176972305
   29      C       9.8911595457     3.1227974035     2.5512283226
   30      H       7.8031135396     3.6295445411     0.8544380541
   31      H       5.8147370190     2.1001521722     0.4598562574
   32      H       7.8436592391    -0.8156709911     2.8625580502
   33      H       4.1439934029     1.2365831002     0.9418129227
   34      H      -2.4153324574    -0.4553462471     0.5267161356
   35      H      -2.5885774183    -3.0047410545     0.4190811051
   36      H      -3.4155600514    -6.7404768394    -1.2901116487
   37      H      -2.2465201964    -8.7324118868    -0.3480614459
   38      H       9.5850980541     4.1738762666     2.4774476544
   39      C      11.1346796488     2.8614182521     1.5566084494
   40      H      10.1942882374     3.0976106357     3.6057688021
   41      H      10.6892490601     2.9991305148     0.5627654420
   42      H      11.6507863031     1.8938255768     1.5316617854
   43      C      12.1536357391     3.9730076113     1.6246053806
   44      H      11.6194991311     4.9302840589     1.6179056197
   45      C      13.2536900016     3.8872281507     0.5295051553
   46      H      12.6669275243     3.8966701261     2.5915040991
   47      H      12.8189536892     3.9192174658    -0.4769192196
   48      H      13.8598393429     2.9735263352     0.5770021918
   49      C      14.1876219774     5.0900133607     0.7197649867
   50      H      13.5514288367     5.9726173760     0.8606778674
   51      C      15.2390894620     5.2582595646    -0.4334324568
   52      H      14.7441859697     5.0742446187     1.6649855266
   53      H      15.7075558453     4.3092538705    -0.7222255319
   54      H      15.9552431918     5.9190611494     0.0699988701
   55      H      14.7607446772     5.7363726451    -1.2966196608
   56      C     -10.0356242838     2.1266208507     0.0658220197
   57      C      -8.9631811001     2.8848949739     0.6373042783
   58      N      -9.9047723722     1.3767011040    -1.0644134207
   59      C      -7.7669656048     2.9329952085    -0.0042507515
   60      C      -8.7140551021     1.3209362843    -1.6835448022
   61      C      -7.5570703548     2.0214500370    -1.1285386969
   62      C      -6.1429257901     1.7730830759    -1.5487362725
   63      C      -5.7123209911     0.4941655596    -1.8882115936
   64      C      -5.1746534844     2.8213228327    -1.6353743368
   65      N      -4.3951246378     0.2955529823    -2.2637376392
   66      N      -5.5322443897     4.0817443383    -1.5411598339
   67      C      -3.8727358578     2.5264212636    -1.9180995712
   68      C      -3.4340292308     1.2509939013    -2.1421141665
   69      S      -4.1177230361     4.8709756450    -1.7105832227
   70      N      -3.0773625654     3.6341746033    -1.9432960809
   71      C      -2.0618387721     0.8826542886    -2.5228729811
   72      S      -0.6236033137     1.8186513359    -2.1709620639
   73      C      -1.6921228403    -0.4045821425    -2.9618336856
   74      C       0.4686672549     0.5655060611    -2.6605546756
   75      S      -2.5844526537    -1.8421817593    -3.1682939619
   76      C      -0.3089298315    -0.4717126055    -3.1150381284
   77      C       1.8886467709     0.6027588690    -2.2948411233
   78      C      -1.0606748249    -2.6595337018    -3.3835680437
   79      C       0.0667324265    -1.8499345950    -3.2494331268
   80      N       2.7143636749    -0.4172497214    -2.4212376031
   81      S       2.6275372197     2.0745696480    -1.7741723847
   82      C       4.0610780193    -0.0143617723    -2.1599278733
   83      C       4.2419850686     1.3126559280    -1.8629452769
   84      C     -11.4428281883     2.0427573332     0.6865233018
   85      H      -9.0484455091     3.5003368074     1.5268605329
   86      H      -6.8881650935     3.4287841280     0.3968876394
   87      H      -8.6106471139     0.5907696714    -2.4839156571
   88      H      -6.3634569038    -0.3691818290    -2.0206929498
   89      H      -1.0435758385    -3.7388249042    -3.4656967547
   90      H       1.1106303910    -2.1387921860    -3.2677451914
   91      H       4.8323117088    -0.7665495061    -2.2598939146
   92      H       5.1864028921     1.8131790330    -1.6947531370
   93      H     -12.1422711825     2.8360267364     0.3959494699
   94      C     -11.4118674867     1.8100388976     2.2595463673
   95      H     -11.8723475729     1.1224114787     0.2721230045
   96      H     -10.9894986057     2.6587162808     2.8109375421
   97      H     -10.6590797087     1.0270570241     2.4124448536
   98      C     -12.7632293092     1.5775362301     2.9769588946
   99      H     -13.4506639102     2.4193642429     2.8283141294
  100      C     -12.3877692305     1.3089336907     4.4309126096
  101      H     -13.2973334036     0.7084027169     2.5717962699
  102      H     -11.6180029698     2.0197267779     4.7576618881
  103      H     -11.8089578394     0.3814466582     4.5197449129
  104      C     -13.5108366542     1.3475223551     5.4698218823
  105      H     -14.1068517062     0.4344924250     5.3531625294
  106      C     -14.4692316906     2.6018547854     5.4179942021
  107      H     -13.0493160807     1.2014650876     6.4541531450
  108      H     -15.0805024901     2.5428277459     4.5091433792
  109      H     -13.8991686324     3.5379997474     5.3832131728
  110      H     -15.1283680036     2.6781919711     6.2917006487
 ----------------------------------------------------------------

   10   -5663.5030850034      6.92E-06 Convergence criterion met
 Total energy in the final basis set = -5663.5030850034

                    Orbital Energies (a.u.)
 --------------------------------------------------------------

 Alpha MOs
 -- Occupied --
-88.989 -88.986 -88.934 -88.922 -88.921 -88.919 -88.907 -88.902
-14.390 -14.386 -14.385 -14.382 -14.353 -14.348 -14.346 -14.342
-14.333 -14.329 -10.273 -10.273 -10.265 -10.259 -10.257 -10.253
-10.251 -10.249 -10.247 -10.242 -10.240 -10.240 -10.239 -10.238
-10.238 -10.235 -10.234 -10.234 -10.229 -10.227 -10.226 -10.225
-10.224 -10.224 -10.224 -10.223 -10.222 -10.220 -10.218 -10.214
-10.212 -10.212 -10.202 -10.202 -10.202 -10.201 -10.188 -10.187
-10.187 -10.187 -10.185 -10.184 -10.182 -10.181 -10.179 -10.178
-10.178 -10.177 -10.177 -10.175  -8.045  -8.042  -7.995  -7.983
 -7.981  -7.977  -7.967  -7.961  -6.010  -6.007  -6.004  -6.003
 -6.001  -5.999  -5.959  -5.956  -5.952  -5.948  -5.946  -5.944
 -5.942  -5.942  -5.940  -5.938  -5.938  -5.934  -5.931  -5.928
 -5.925  -5.923  -5.922  -5.917  -1.052  -1.034  -0.985  -0.959
 -0.951  -0.944  -0.935  -0.934  -0.917  -0.912  -0.907  -0.900
 -0.847  -0.834  -0.828  -0.828  -0.816  -0.808  -0.807  -0.806
 -0.804  -0.798  -0.796  -0.791  -0.786  -0.782  -0.766  -0.763
 -0.749  -0.749  -0.738  -0.737  -0.720  -0.719  -0.708  -0.706
 -0.690  -0.688  -0.674  -0.671  -0.660  -0.658  -0.647  -0.646
 -0.640  -0.635  -0.625  -0.624  -0.611  -0.609  -0.598  -0.592
 -0.590  -0.587  -0.583  -0.579  -0.578  -0.577  -0.577  -0.567
 -0.554  -0.550  -0.537  -0.535  -0.522  -0.519  -0.515  -0.510
 -0.505  -0.504  -0.499  -0.492  -0.488  -0.486  -0.479  -0.475
 -0.474  -0.472  -0.471  -0.470  -0.467  -0.463  -0.449  -0.449
 -0.441  -0.438  -0.437  -0.436  -0.435  -0.434  -0.432  -0.430
 -0.429  -0.428  -0.426  -0.423  -0.420  -0.419  -0.411  -0.410
 -0.407  -0.406  -0.404  -0.401  -0.399  -0.397  -0.396  -0.395
 -0.392  -0.392  -0.390  -0.389  -0.384  -0.383  -0.382  -0.381
 -0.378  -0.374  -0.373  -0.370  -0.361  -0.360  -0.358  -0.355
 -0.355  -0.352  -0.350  -0.350  -0.348  -0.345  -0.344  -0.343
 -0.339  -0.337  -0.334  -0.333  -0.328  -0.323  -0.322  -0.320
 -0.319  -0.317  -0.311  -0.310  -0.307  -0.303  -0.302  -0.300
 -0.297  -0.296  -0.293  -0.292  -0.289  -0.282  -0.281  -0.278
 -0.273  -0.270  -0.265  -0.263  -0.255  -0.252  -0.251  -0.251
 -0.245  -0.241  -0.228  -0.225  -0.193  -0.191

          Ground-State Mulliken Net Atomic Charges

     Atom                 Charge (a.u.)
  ----------------------------------------
      1 C                     0.281684
      2 C                    -0.114297
      3 N                    -0.475049
      4 C                    -0.090184
      5 C                     0.068890
      6 C                     0.046952
      7 C                     0.030611
      8 C                     0.073267
      9 C                     0.221195
     10 N                    -0.539779
     11 N                    -0.550224
     12 C                     0.226884
     13 C                     0.315365
     14 S                     0.596182
     15 N                    -0.569531
     16 C                    -0.215613
     17 S                     0.302450
     18 C                    -0.131664
     19 C                    -0.253549
     20 S                     0.291940
     21 C                     0.201438
     22 C                     0.050269
     23 C                    -0.316033
     24 C                    -0.058534
     25 N                    -0.405012
     26 S                     0.284642
     27 C                     0.117149
     28 C                    -0.295733
     29 C                    -0.237637
     30 H                     0.091220
     31 H                     0.079005
     32 H                     0.116850
     33 H                     0.116497
     34 H                     0.132287
     35 H                     0.108537
     36 H                     0.112328
     37 H                     0.126241
     38 H                     0.094182
     39 C                    -0.169364
     40 H                     0.114436
     41 H                     0.089594
     42 H                     0.110680
     43 C                    -0.175865
     44 H                     0.087921
     45 C                    -0.170934
     46 H                     0.095164
     47 H                     0.090099
     48 H                     0.093581
     49 C                    -0.183404
     50 H                     0.090517
     51 C                    -0.319160
     52 H                     0.092663
     53 H                     0.105072
     54 H                     0.102158
     55 H                     0.106285
     56 C                     0.253700
     57 C                    -0.105350
     58 N                    -0.466984
     59 C                    -0.044918
     60 C                     0.073877
     61 C                     0.010587
     62 C                     0.018643
     63 C                     0.052460
     64 C                     0.239295
     65 N                    -0.540666
     66 N                    -0.543353
     67 C                     0.199581
     68 C                     0.308232
     69 S                     0.593005
     70 N                    -0.549152
     71 C                    -0.235434
     72 S                     0.321111
     73 C                    -0.089734
     74 C                    -0.200331
     75 S                     0.308247
     76 C                     0.099994
     77 C                     0.108639
     78 C                    -0.307998
     79 C                    -0.062506
     80 N                    -0.451738
     81 S                     0.251055
     82 C                     0.119341
     83 C                    -0.324061
     84 C                    -0.237368
     85 H                     0.096907
     86 H                     0.106895
     87 H                     0.105812
     88 H                     0.122847
     89 H                     0.131136
     90 H                     0.129906
     91 H                     0.118278
     92 H                     0.139666
     93 H                     0.111995
     94 C                    -0.191989
     95 H                     0.125620
     96 H                     0.093306
     97 H                     0.100508
     98 C                    -0.170550
     99 H                     0.098633
    100 C                    -0.176586
    101 H                     0.094705
    102 H                     0.086574
    103 H                     0.093591
    104 C                    -0.183157
    105 H                     0.092033
    106 C                    -0.320793
    107 H                     0.089902
    108 H                     0.107774
    109 H                     0.102496
    110 H                     0.103650
  ----------------------------------------
  Sum of atomic charges =     0.000000

                    Cartesian Multipole Moments
 -----------------------------------------------------------------
    Charge (ESU x 10^10)
                 0.0000
    Dipole Moment (Debye)
         X      -0.2359      Y       0.2664      Z       0.6499
       Tot       0.7409
    Quadrupole Moments (Debye-Ang)
        XX    -435.7741     XY      12.2221     YY    -398.9853
        XZ     -26.3264     YZ       7.6442     ZZ    -460.7426

 Total job time:  108.60s(wall), 1169.44s(cpu)
        *  Thank you very much for using Q-Chem.  Have a nice day.  *
