 Q-Chem 4.4, Q-Chem, Inc., Pleasanton, CA (2016)
 Q-Chem 4.4.2 for Intel X86 Linux

User input:
--------------------------------------------------------------
$comment
SP
$end

$rem
MEM_STATIC 5000
MEM_TOTAL 20000
JOBTYPE SP
EXCHANGE B3LYP
BASIS 6-31g(d,p)
$end

$molecule
0 1
C          -1.098000    -17.778000     12.009000
C          -0.302000    -17.043000     12.912000
N          -0.579000    -18.160000     10.807000
C           0.959000    -16.510000     12.578000
C           0.768000    -17.867000     10.569000
C           1.568000    -16.988000     11.395000
C           2.921000    -16.471000     11.001000
C           3.290000    -15.128000     11.238000
C           3.866000    -17.246000     10.298000
N           4.348000    -14.503000     10.679000
N           3.863000    -18.598000     10.136000
C           5.076000    -16.671000      9.928000
C           5.220000    -15.265000     10.013000
S           5.348000    -19.034000      9.531000
N           6.006000    -17.547000      9.376000
C           6.302000    -14.594000      9.279000
S           7.311000    -15.320000      7.921000
C           6.582000    -13.217000      9.320000
C           7.979000    -13.762000      7.590000
S           5.794000    -12.035000     10.343000
C           7.496000    -12.813000      8.373000
C           8.733000    -13.511000      6.451000
C           6.843000    -10.834000      9.508000
C           7.670000    -11.390000      8.461000
N           9.029000    -14.588000      5.776000
S           8.569000    -12.028000      5.485000
C           9.122000    -14.284000      4.453000
C           9.032000    -12.980000      4.103000
C          -2.340000    -18.440000     12.424000
H          -0.788000    -16.670000     13.808000
H           1.503000    -15.911000     13.302000
H           1.149000    -18.269000      9.631000
H           2.584000    -14.430000     11.686000
H           6.904000     -9.816000      9.869000
H           8.412000    -10.817000      7.916000
H           9.208000    -15.096000      3.744000
H           8.969000    -12.601000      3.091000
H          -2.099000    -19.392000     12.912000
C          -3.464000    -18.602000     11.314000
H          -2.667000    -17.845000     13.286000
H          -3.015000    -19.102000     10.447000
H          -3.854000    -17.610000     11.052000
C          -4.565000    -19.550000     11.770000
H          -4.158000    -20.447000     12.252000
C          -5.618000    -19.934000     10.650000
H          -5.212000    -19.244000     12.601000
H          -6.442000    -20.510000     11.090000
H          -5.136000    -20.717000     10.051000
C          -6.240000    -18.853000      9.800000
H          -5.468000    -18.255000      9.299000
C          -7.144000    -17.983000     10.580000
H          -6.687000    -19.338000      8.924000
H          -7.556000    -17.182000      9.953000
H          -6.559000    -17.540000     11.395000
H          -8.029000    -18.535000     10.917000
C          -4.771000    -15.077000      6.739000
C          -5.046000    -16.161000      5.844000
N          -3.957000    -15.190000      7.826000
C          -4.540000    -17.392000      6.115000
C          -3.361000    -16.366000      8.083000
C          -3.547000    -17.503000      7.183000
C          -2.697000    -18.734000      7.197000
C          -1.335000    -18.659000      7.472000
C          -3.231000    -20.036000      6.945000
N          -0.574000    -19.815000      7.468000
N          -4.528000    -20.235000      6.885000
C          -2.396000    -21.112000      6.862000
C          -1.042000    -21.013000      7.024000
S          -4.634000    -21.835000      6.600000
N          -3.061000    -22.273000      6.597000
C          -0.104000    -22.146000      7.019000
S          -0.370000    -23.682000      6.220000
C           1.247000    -22.043000      7.407000
C           1.258000    -24.230000      6.449000
S           2.186000    -20.724000      7.940000
C           1.901000    -23.249000      7.164000
C           1.796000    -25.366000      5.693000
C           3.582000    -21.751000      7.759000
C           3.315000    -23.027000      7.264000
N           3.075000    -25.681000      5.637000
S           0.739000    -26.479000      4.901000
C           3.259000    -26.938000      4.981000
C           2.114000    -27.572000      4.570000
C          -5.332000    -13.655000      6.550000
H          -5.702000    -16.098000      4.982000
H          -4.647000    -18.246000      5.453000
H          -2.600000    -16.371000      8.861000
H          -0.819000    -17.770000      7.833000
H           4.571000    -21.332000      7.894000
H           4.017000    -23.809000      7.001000
H           4.271000    -27.312000      4.900000
H           2.047000    -28.550000      4.112000
H          -6.323000    -13.470000      6.982000
C          -5.221000    -13.141000      5.049000
H          -4.651000    -13.012000      7.121000
H          -5.850000    -13.709000      4.353000
H          -4.207000    -13.415000      4.733000
C          -5.631000    -11.677000      4.760000
H          -6.671000    -11.483000      5.050000
C          -5.334000    -11.478000      3.277000
H          -5.041000    -10.963000      5.349000
H          -5.676000    -12.350000      2.705000
H          -4.258000    -11.559000      3.080000
C          -5.916000    -10.235000      2.600000
H          -5.333000     -9.368000      2.933000
C          -7.450000     -9.955000      2.851000
H          -5.660000    -10.294000      1.535000
H          -7.589000     -9.659000      3.898000
H          -8.054000    -10.852000      2.669000
H          -7.859000     -9.174000      2.198000
$end

--------------------------------------------------------------

             Standard Nuclear Orientation (Angstroms)
    I     Atom           X                Y                Z
 ----------------------------------------------------------------
    1      C      -1.4287826991     0.8988848982     4.3086235295
    2      C      -0.3143506835     1.1306726206     5.1414294699
    3      N      -1.2488675210     0.3321508972     3.0812148360
    4      C       1.0193552111     0.9795711847     4.7122873692
    5      C       0.0478890619    -0.0718402583     2.7463782924
    6      C       1.2314065543     0.2846501143     3.4994506391
    7      C       2.6329542798     0.0753895201     3.0044678345
    8      C       3.6305467795     1.0582554693     3.1909154959
    9      C       3.0232415071    -1.0518837725     2.2529428489
   10      N       4.8179773531     1.0911290038     2.5495123750
   11      N       2.3439445862    -2.2240982262     2.1164658628
   12      C       4.3309031148    -1.1406913952     1.7906017129
   13      C       5.1538563742     0.0104558151     1.8396428501
   14      S       3.3764083113    -3.3239514668     1.4195530235
   15      N       4.6688001439    -2.3511377945     1.1925840608
   16      C       6.3727653282     0.0746324113     1.0211910638
   17      S       6.7978221031    -1.0299492341    -0.3889674828
   18      C       7.2964367837     1.1343625824     1.0175845997
   19      C       8.1217832087     0.0028335103    -0.7934866958
   20      S       7.2646785478     2.5328760968     2.0700808537
   21      C       8.2235267902     1.0526583848     0.0030652337
   22      C       8.8215575763    -0.1298545568    -1.9857734530
   23      C       8.7089509377     3.0763037449     1.1433712687
   24      C       9.0810864496     2.2037766502     0.0527358439
   25      N       8.5019365374    -1.2009090854    -2.6594607605
   26      S       9.3431339053     1.2584861980    -2.9654719176
   27      C       8.6416285784    -0.9587975099    -3.9910996450
   28      C       9.1815091889     0.2264684664    -4.3581003149
   29      C      -2.8039578021     0.9269429427     4.8196413200
   30      H      -0.4910320639     1.6787279881     6.0615164244
   31      H       1.8359011246     1.2202338877     5.3862660295
   32      H       0.1163045308    -0.5926963994     1.7921051638
   33      H       3.3922627692     2.0053544527     3.6731687965
   34      H       9.2877846005     3.9257943816     1.4805407351
   35      H       9.9696763949     2.3467274925    -0.5521533739
   36      H       8.2679156701    -1.6952518262    -4.6892362378
   37      H       9.2440721015     0.6051621956    -5.3702420744
   38      H      -3.0300649002    -0.0287795005     5.3074929283
   39      C      -3.9350998397     1.3589342362     3.7922070334
   40      H      -2.7357103490     1.5905088304     5.6908592020
   41      H      -3.8510591217     0.7180641266     2.9059155123
   42      H      -3.8031034618     2.4188345766     3.5392322824
   43      C      -5.3259145597     1.0679644887     4.3397579630
   44      H      -5.3813142842     0.0784837612     4.8092691563
   45      C      -6.5054245542     1.2719858493     3.3015881998
   46      H      -5.6797379862     1.6381267515     5.2072428199
   47      H      -7.4738403688     1.1686484425     3.8073986292
   48      H      -6.5137041730     0.3638641655     2.6855845835
   49      C      -6.5712209358     2.5339343159     2.4762992178
   50      H      -5.6412764265     2.6830944770     1.9127892748
   51      C      -6.8738860282     3.7223349807     3.3000793473
   52      H      -7.2578919996     2.3474042819     1.6419735040
   53      H      -6.8800227983     4.6332942943     2.6880422006
   54      H      -6.0923262628     3.8054503484     4.0649029668
   55      H      -7.8904763303     3.6717329799     3.7068736382
   56      C      -3.6473772240     5.1507093049    -0.7469731266
   57      C      -4.4809907437     4.3585662627    -1.6009660425
   58      N      -2.9221883721     4.6324331148     0.2837668600
   59      C      -4.6293746055     3.0334119156    -1.3425358083
   60      C      -2.9663600289     3.3110787585     0.5210694724
   61      C      -3.7491808682     2.4290844055    -0.3430153005
   62      C      -3.6166804655     0.9391040622    -0.3644447113
   63      C      -2.3790736463     0.3289644083    -0.1845754146
   64      C      -4.7382907999     0.0734167209    -0.5553365258
   65      N      -2.2881114897    -1.0516136658    -0.2192606764
   66      N      -5.9658069869     0.5398520962    -0.5229011842
   67      C      -4.5491469437    -1.2725812115    -0.6753538898
   68      C      -3.3144106147    -1.8559024750    -0.6080969113
   69      S      -6.8649994034    -0.7952985789    -0.7704626374
   70      N      -5.7159053170    -1.9508415039    -0.8728605333
   71      C      -3.0586071345    -3.3035900531    -0.6562970735
   72      S      -4.1003525598    -4.4952020734    -1.4068170680
   73      C      -1.8090168715    -3.8859418849    -0.3634754239
   74      C      -2.9417878266    -5.7776427793    -1.2795276546
   75      S      -0.3083526455    -3.2098134678     0.0797268374
   76      C      -1.8518949168    -5.2531342129    -0.6283293677
   77      C      -3.0860167419    -7.0177552488    -2.0494595237
   78      C       0.3849904307    -4.7876378364    -0.1772782999
   79      C      -0.5087910168    -5.7578628576    -0.6292828711
   80      N      -2.1351121428    -7.9205795214    -2.1869032443
   81      S      -4.6054075111    -7.4519505440    -2.7467457891
   82      C      -2.6392303377    -9.0934697206    -2.8306690607
   83      C      -3.9730580960    -9.0742239152    -3.1507239153
   84      C      -3.4470689961     6.6677085194    -0.9233703974
   85      H      -5.0782751270     4.7515719821    -2.4171442521
   86      H      -5.1880137279     2.3545982088    -1.9798295259
   87      H      -2.2551678311     2.9183341358     1.2452153963
   88      H      -1.4689330697     0.8421852144     0.1238829051
   89      H       1.4586941767    -4.9123086252    -0.1179111339
   90      H      -0.3026530900    -6.7793567121    -0.9251789007
   91      H      -1.9507667565    -9.9157441921    -2.9737200689
   92      H      -4.5440534892    -9.8842395178    -3.5849772796
   93      H      -4.1863012003     7.3089761674    -0.4281517064
   94      C      -3.2005730344     7.0868477388    -2.4376623295
   95      H      -2.5004689702     6.8819122611    -0.4121794860
   96      H      -4.0736951717     6.9145160675    -3.0784747267
   97      H      -2.4772485145     6.3547588789    -2.8171034187
   98      C      -2.8554150625     8.5678195601    -2.7248999297
   99      H      -3.6424662965     9.2435494855    -2.3681431174
  100      C      -2.6013641459     8.6209453796    -4.2281413538
  101      H      -1.9515908363     8.8882939803    -2.1908447696
  102      H      -3.3666117842     8.0405767892    -4.7592725535
  103      H      -1.7210714728     8.0241862401    -4.4966731753
  104      C      -2.5408429766    10.0011247124    -4.8865820856
  105      H      -1.5853144699    10.4627084958    -4.6102260039
  106      C      -3.7168839695    10.9955937470    -4.5365593402
  107      H      -2.4207367583     9.8425399085    -5.9653162309
  108      H      -3.6200246946    11.3031380108    -3.4881410999
  109      H      -4.6950555946    10.5155771405    -4.6603063782
  110      H      -3.7320453975    11.8881303293    -5.1743677601
 ----------------------------------------------------------------

    9   -5663.4900007522      7.11E-06 Convergence criterion met
 Total energy in the final basis set = -5663.4900007522

                    Orbital Energies (a.u.)
 --------------------------------------------------------------

 Alpha MOs
 -- Occupied --
-88.992 -88.985 -88.926 -88.921 -88.920 -88.920 -88.917 -88.908
-14.390 -14.386 -14.382 -14.380 -14.353 -14.343 -14.342 -14.341
-14.333 -14.330 -10.270 -10.261 -10.261 -10.255 -10.254 -10.254
-10.248 -10.245 -10.242 -10.239 -10.239 -10.237 -10.236 -10.235
-10.235 -10.232 -10.232 -10.231 -10.229 -10.229 -10.228 -10.228
-10.227 -10.227 -10.226 -10.223 -10.222 -10.219 -10.218 -10.214
-10.213 -10.212 -10.208 -10.201 -10.200 -10.199 -10.198 -10.189
-10.186 -10.185 -10.183 -10.180 -10.180 -10.180 -10.177 -10.176
-10.172 -10.167 -10.161 -10.160  -8.046  -8.041  -7.988  -7.981
 -7.981  -7.978  -7.975  -7.967  -6.011  -6.006  -6.006  -6.004
 -6.000  -5.998  -5.951  -5.948  -5.945  -5.945  -5.944  -5.943
 -5.941  -5.941  -5.940  -5.939  -5.938  -5.938  -5.936  -5.935
 -5.932  -5.932  -5.928  -5.924  -1.047  -1.027  -0.982  -0.963
 -0.957  -0.946  -0.930  -0.923  -0.914  -0.914  -0.910  -0.893
 -0.847  -0.841  -0.831  -0.824  -0.812  -0.810  -0.804  -0.803
 -0.800  -0.795  -0.795  -0.794  -0.782  -0.779  -0.768  -0.763
 -0.749  -0.747  -0.740  -0.736  -0.720  -0.719  -0.707  -0.706
 -0.691  -0.688  -0.676  -0.670  -0.657  -0.656  -0.644  -0.643
 -0.638  -0.636  -0.624  -0.620  -0.611  -0.606  -0.604  -0.596
 -0.595  -0.588  -0.586  -0.581  -0.578  -0.575  -0.566  -0.553
 -0.544  -0.542  -0.540  -0.533  -0.522  -0.519  -0.516  -0.506
 -0.504  -0.500  -0.497  -0.495  -0.484  -0.481  -0.477  -0.475
 -0.471  -0.469  -0.467  -0.466  -0.465  -0.458  -0.450  -0.446
 -0.445  -0.440  -0.439  -0.437  -0.434  -0.433  -0.432  -0.430
 -0.430  -0.426  -0.425  -0.418  -0.418  -0.413  -0.411  -0.409
 -0.407  -0.404  -0.400  -0.399  -0.399  -0.398  -0.396  -0.394
 -0.392  -0.390  -0.390  -0.386  -0.385  -0.382  -0.379  -0.379
 -0.376  -0.371  -0.369  -0.368  -0.364  -0.362  -0.358  -0.357
 -0.355  -0.352  -0.348  -0.347  -0.346  -0.344  -0.342  -0.338
 -0.338  -0.335  -0.335  -0.333  -0.331  -0.327  -0.321  -0.317
 -0.310  -0.310  -0.307  -0.305  -0.302  -0.299  -0.299  -0.296
 -0.295  -0.292  -0.289  -0.287  -0.286  -0.286  -0.280  -0.280
 -0.276  -0.269  -0.265  -0.259  -0.255  -0.253  -0.252  -0.248
 -0.244  -0.240  -0.230  -0.226  -0.193  -0.191

          Ground-State Mulliken Net Atomic Charges

     Atom                 Charge (a.u.)
  ----------------------------------------
      1 C                     0.275009
      2 C                    -0.125448
      3 N                    -0.491028
      4 C                    -0.085942
      5 C                     0.068476
      6 C                     0.043890
      7 C                     0.027461
      8 C                     0.057420
      9 C                     0.247772
     10 N                    -0.530705
     11 N                    -0.558085
     12 C                     0.171350
     13 C                     0.309834
     14 S                     0.616036
     15 N                    -0.548386
     16 C                    -0.232744
     17 S                     0.358155
     18 C                    -0.128299
     19 C                    -0.220518
     20 S                     0.304454
     21 C                     0.189888
     22 C                     0.049608
     23 C                    -0.307291
     24 C                    -0.105087
     25 N                    -0.416824
     26 S                     0.269967
     27 C                     0.111424
     28 C                    -0.306296
     29 C                    -0.234027
     30 H                     0.083413
     31 H                     0.106977
     32 H                     0.134697
     33 H                     0.113877
     34 H                     0.126802
     35 H                     0.117196
     36 H                     0.113574
     37 H                     0.138787
     38 H                     0.127510
     39 C                    -0.170333
     40 H                     0.093811
     41 H                     0.129787
     42 H                     0.106757
     43 C                    -0.191857
     44 H                     0.087225
     45 C                    -0.186498
     46 H                     0.088189
     47 H                     0.079547
     48 H                     0.080659
     49 C                    -0.177674
     50 H                     0.104290
     51 C                    -0.306226
     52 H                     0.091306
     53 H                     0.096764
     54 H                     0.106238
     55 H                     0.096272
     56 C                     0.252767
     57 C                    -0.105263
     58 N                    -0.468760
     59 C                    -0.045609
     60 C                     0.066313
     61 C                     0.004728
     62 C                     0.017706
     63 C                     0.086398
     64 C                     0.246032
     65 N                    -0.547959
     66 N                    -0.551500
     67 C                     0.201754
     68 C                     0.317689
     69 S                     0.591255
     70 N                    -0.550321
     71 C                    -0.235185
     72 S                     0.325344
     73 C                    -0.106278
     74 C                    -0.206381
     75 S                     0.335820
     76 C                     0.102291
     77 C                     0.089042
     78 C                    -0.330306
     79 C                    -0.063365
     80 N                    -0.453607
     81 S                     0.253222
     82 C                     0.113390
     83 C                    -0.305742
     84 C                    -0.237146
     85 H                     0.095238
     86 H                     0.106401
     87 H                     0.121003
     88 H                     0.124875
     89 H                     0.115600
     90 H                     0.129390
     91 H                     0.116729
     92 H                     0.138517
     93 H                     0.110668
     94 C                    -0.191312
     95 H                     0.125259
     96 H                     0.092842
     97 H                     0.100906
     98 C                    -0.170996
     99 H                     0.098284
    100 C                    -0.177138
    101 H                     0.094602
    102 H                     0.086566
    103 H                     0.093838
    104 C                    -0.182956
    105 H                     0.091873
    106 C                    -0.320587
    107 H                     0.089518
    108 H                     0.107775
    109 H                     0.102460
    110 H                     0.103164
  ----------------------------------------
  Sum of atomic charges =     0.000000

                    Cartesian Multipole Moments
 -----------------------------------------------------------------
    Charge (ESU x 10^10)
                 0.0000
    Dipole Moment (Debye)
         X       0.1773      Y       1.2244      Z      -2.4238
       Tot       2.7213
    Quadrupole Moments (Debye-Ang)
        XX    -420.5720     XY      18.6568     YY    -420.2225
        XZ       0.2007     YZ       6.1706     ZZ    -416.5908

 Total job time:  92.05s(wall), 1013.11s(cpu)
        *  Thank you very much for using Q-Chem.  Have a nice day.  *
