 Q-Chem 4.4, Q-Chem, Inc., Pleasanton, CA (2016)
 Q-Chem 4.4.2 for Intel X86 Linux

User input:
--------------------------------------------------------------
$comment
SP
$end

$rem
MEM_STATIC 5000
MEM_TOTAL 20000
JOBTYPE SP
EXCHANGE B3LYP
BASIS 6-31g(d,p)
$end

$molecule
0 1
C           0.505000      8.613000     12.309000
C           0.126000      9.022000     10.979000
N           0.059000      7.430000     12.802000
C          -0.517000      8.107000     10.171000
C          -0.599000      6.581000     12.013000
C          -0.931000      6.896000     10.678000
C          -1.715000      5.915000      9.907000
C          -2.765000      5.169000     10.484000
C          -1.253000      5.503000      8.610000
N          -3.376000      4.124000      9.884000
N          -0.353000      6.086000      7.873000
C          -1.910000      4.437000      7.962000
C          -2.997000      3.779000      8.678000
S          -0.248000      5.205000      6.482000
N          -1.530000      4.194000      6.736000
C          -3.792000      2.700000      8.010000
S          -3.103000      1.456000      6.954000
C          -5.003000      2.308000      8.529000
C          -4.621000      0.556000      7.080000
S          -6.139000      3.279000      9.503000
C          -5.429000      1.109000      8.045000
C          -4.749000     -0.802000      6.635000
C          -7.165000      1.784000      9.495000
C          -6.655000      0.765000      8.702000
N          -5.842000     -1.503000      6.932000
S          -3.500000     -1.600000      5.711000
C          -5.720000     -2.723000      6.329000
C          -4.466000     -2.954000      5.735000
C           1.311000      9.470000     13.264000
H           0.443000      9.970000     10.556000
H          -0.702000      8.306000      9.120000
H          -0.875000      5.579000     12.339000
H          -2.929000      5.227000     11.559000
H          -8.145000      1.783000      9.954000
H          -7.239000     -0.115000      8.460000
H          -6.414000     -3.519000      6.564000
H          -4.067000     -3.857000      5.290000
H           1.971000      8.926000     13.951000
C           0.369000     10.189000     14.252000
H           2.025000     10.132000     12.759000
H          -0.212000      9.475000     14.849000
H          -0.312000     10.884000     13.745000
C           1.121000     10.947000     15.313000
H           1.946000     11.535000     14.893000
C           1.704000     10.142000     16.542000
H           0.447000     11.680000     15.773000
H           2.410000      9.349000     16.268000
H           0.897000      9.569000     17.015000
C           2.145000     11.007000     17.699000
H           1.328000     11.670000     18.009000
C           3.499000     11.626000     17.383000
H           2.230000     10.286000     18.521000
H           3.775000     12.264000     18.232000
H           3.298000     12.279000     16.524000
H           4.308000     10.896000     17.262000
C         -12.664000      6.068000     -2.680000
C         -12.572000      5.532000     -1.362000
N         -11.575000      6.126000     -3.501000
C         -11.384000      4.914000     -1.002000
C         -10.379000      5.559000     -3.082000
C         -10.242000      4.873000     -1.845000
C          -9.011000      4.162000     -1.435000
C          -9.060000      3.084000     -0.533000
C          -7.772000      4.548000     -1.904000
N          -8.021000      2.319000     -0.189000
N          -7.410000      5.652000     -2.636000
C          -6.627000      3.709000     -1.584000
C          -6.836000      2.633000     -0.769000
S          -5.845000      5.501000     -3.013000
N          -5.497000      4.090000     -2.233000
C          -5.676000      1.730000     -0.396000
S          -4.233000      1.472000     -1.396000
C          -5.538000      1.055000      0.733000
C          -3.459000      0.740000     -0.036000
S          -6.640000      0.851000      2.093000
C          -4.314000      0.475000      0.933000
C          -2.078000      0.256000     -0.217000
C          -5.432000     -0.118000      2.906000
C          -4.212000     -0.115000      2.226000
N          -1.504000     -0.380000      0.836000
S          -1.330000      0.014000     -1.780000
C          -0.228000     -0.746000      0.491000
C           0.050000     -0.596000     -0.846000
C         -14.028000      6.610000     -3.203000
H         -13.485000      5.452000     -0.779000
H         -11.283000      4.485000     -0.009000
H          -9.450000      5.647000     -3.643000
H         -10.046000      2.862000     -0.128000
H          -5.713000     -0.616000      3.825000
H          -3.381000     -0.658000      2.660000
H           0.398000     -1.298000      1.179000
H           0.942000     -0.931000     -1.358000
H         -14.373000      7.371000     -2.492000
C         -15.057000      5.449000     -3.229000
H         -13.935000      7.038000     -4.209000
H         -16.017000      5.770000     -3.652000
H         -15.299000      5.194000     -2.190000
C         -14.500000      4.200000     -4.070000
H         -13.986000      4.570000     -4.965000
C         -15.638000      3.210000     -4.512000
H         -13.829000      3.655000     -3.394000
H         -16.418000      3.802000     -5.008000
H         -16.044000      2.767000     -3.594000
C         -15.036000      2.183000     -5.528000
H         -14.245000      2.678000     -6.105000
C         -16.025000      1.341000     -6.476000
H         -14.467000      1.431000     -4.968000
H         -16.606000      0.610000     -5.900000
H         -15.480000      0.856000     -7.295000
H         -16.749000      2.030000     -6.928000
$end

--------------------------------------------------------------

             Standard Nuclear Orientation (Angstroms)
    I     Atom           X                Y                Z
 ----------------------------------------------------------------
    1      C     -10.6877475387    -2.2888187496    -1.3724748159
    2      C      -9.4957429655    -2.6659915289    -2.0912847992
    3      N     -10.5818293732    -1.5998222792    -0.2082071465
    4      C      -8.2882569057    -2.1427388253    -1.6768912379
    5      C      -9.3963894405    -1.1421503711     0.1937313940
    6      C      -8.2047399226    -1.4150039287    -0.5113901294
    7      C      -6.9362385730    -0.9165089132     0.0488464683
    8      C      -6.6694249411    -0.9259687437     1.4347274147
    9      C      -6.0423514916    -0.1623148172    -0.7863506050
   10      N      -5.6188455766    -0.3030789860     2.0123409087
   11      N      -6.0618611123    -0.0765547049    -2.0845503499
   12      C      -4.9232765706     0.4596036697    -0.1957596154
   13      C      -4.7688299382     0.3393382371     1.2495332488
   14      S      -4.7938240126     0.8909603798    -2.5065260303
   15      N      -4.0803849262     1.0197858037    -1.0217466931
   16      C      -3.5559908357     0.9009517400     1.9248861824
   17      S      -2.7943208644     2.4417067530     1.4967205080
   18      C      -3.2341963768     0.5168306223     3.2049038750
   19      C      -1.8742571713     2.3677953748     3.0060978329
   20      S      -3.6265796913    -1.0240461945     4.0134500828
   21      C      -2.3433147322     1.3526854831     3.8057445751
   22      C      -1.1406390527     3.4908130707     3.5152232699
   23      C      -2.7309724420    -0.3209167024     5.4245707625
   24      C      -2.1360344840     0.9030761286     5.1503438935
   25      N      -0.6335873979     3.4559614095     4.7464596327
   26      S      -0.8885886095     4.9410976871     2.5751561949
   27      C       0.0620788066     4.6169488578     4.9336752219
   28      C      -0.0828993084     5.5543523116     3.8949408424
   29      C     -12.0896274894    -2.6950164668    -1.7797167813
   30      H      -9.5361177664    -3.2361837898    -3.0139833746
   31      H      -7.3804694322    -2.2758065813    -2.2570997134
   32      H      -9.2874670952    -0.4927233229     1.0613928670
   33      H      -7.4653539889    -1.1971535070     2.1267106334
   34      H      -2.5728703581    -0.9010664251     6.3242996273
   35      H      -1.4272273052     1.3574277175     5.8323827612
   36      H       0.4248285038     4.8823753276     5.9177679239
   37      H       0.2639692327     6.5783449169     3.8336516971
   38      H     -12.8820628564    -1.9741029076    -1.5434228347
   39      C     -12.5419632264    -3.9233633511    -0.9630006049
   40      H     -12.2143109166    -2.8037882794    -2.8640081332
   41      H     -12.5521915523    -3.7116593030     0.1134949953
   42      H     -11.9178764076    -4.8043670643    -1.1584055690
   43      C     -13.9784566934    -4.2889443716    -1.2249663217
   44      H     -14.2155588842    -4.2872571485    -2.2957364671
   45      C     -15.1103857225    -3.4590479424    -0.4980800927
   46      H     -14.1507462130    -5.3195266458    -0.8912276552
   47      H     -15.0928113016    -2.3845908704    -0.7162409052
   48      H     -14.9293475815    -3.4703269464     0.5837724737
   49      C     -16.4804259312    -4.0922243223    -0.5566676197
   50      H     -16.4380945461    -5.1217833706    -0.1806699868
   51      C     -17.0949109915    -3.8470568990    -1.9273003368
   52      H     -17.0317566032    -3.5473225170     0.2191329427
   53      H     -18.0752215891    -4.3398293060    -1.9409929362
   54      H     -16.4356367118    -4.3923936450    -2.6148003423
   55      H     -17.2711901909    -2.7895062844    -2.1565040487
   56      C       9.1578580677    -5.3088120496    -0.1070556817
   57      C       8.1592042684    -4.9771955194     0.8550280289
   58      N       9.2215881891    -4.6726168515    -1.3130905657
   59      C       7.3628758584    -3.8713711915     0.5983538788
   60      C       8.3616922567    -3.6125780320    -1.5667885884
   61      C       7.4379078334    -3.1213356352    -0.6051040004
   62      C       6.5985673691    -1.9210771510    -0.8145536514
   63      C       6.1346467376    -1.1592928778     0.2728981262
   64      C       6.2224267997    -1.5232727669    -2.0811822252
   65      N       5.4647419556    -0.0081116753     0.1775491762
   66      N       6.3733955309    -2.1610300655    -3.2878959735
   67      C       5.5311907515    -0.2506019476    -2.2220641313
   68      C       5.2239078817     0.4350097150    -1.0813643960
   69      S       5.8663664313    -1.1517248863    -4.4447795231
   70      N       5.3610773153     0.1158045459    -3.5182391582
   71      C       4.4958893963     1.7625392814    -1.1696386013
   72      S       4.5839274507     2.8744694522    -2.5497377268
   73      C       3.6566775019     2.2586932267    -0.2758463106
   74      C       3.2261509993     3.7288531697    -1.9086670823
   75      S       3.1955639697     1.6698799260     1.3198645678
   76      C       2.9621199552     3.3720792487    -0.6664066519
   77      C       2.7341520110     4.8936953326    -2.6671245504
   78      C       2.0995605591     3.0229186876     1.4849603997
   79      C       1.9903994226     3.7573275816     0.3019403565
   80      N       1.7120244214     5.5996057591    -2.1196515735
   81      S       3.6510348119     5.6919015250    -3.9253891506
   82      C       1.3834210283     6.6303336976    -2.9627273274
   83      C       2.2836392353     6.8214124413    -3.9827513925
   84      C      10.1985386553    -6.4245836075     0.2088980257
   85      H       8.1981805726    -5.4711024594     1.8216690079
   86      H       6.5989639101    -3.5835623992     1.3152190225
   87      H       8.2944348585    -3.1195816131    -2.5352600507
   88      H       6.3891806490    -1.5510794333     1.2563719606
   89      H       1.6176909529     3.1737425477     2.4423421657
   90      H       1.3103964634     4.6005144593     0.2819938121
   91      H       0.6103529164     7.3396553520    -2.6997587267
   92      H       2.2912162433     7.6421661815    -4.6872646196
   93      H       9.6385169323    -7.3344486235     0.4582738916
   94      C      11.0357044377    -6.0000532819     1.4443596623
   95      H      10.8682848709    -6.6063316133    -0.6409705930
   96      H      11.8261852507    -6.7278895032     1.6656389409
   97      H      10.3811199573    -6.0466615272     2.3232548947
   98      C      11.6955543364    -4.5526259274     1.2273731085
   99      H      12.0605508393    -4.4750291024     0.1964137079
  100      C      12.8907673194    -4.2769849615     2.2102240551
  101      H      10.9063122367    -3.8236199492     1.4507319943
  102      H      13.5825054136    -5.1261155628     2.1370418780
  103      H      12.4650241157    -4.2387678623     3.2207146180
  104      C      13.6185532189    -2.9691484484     1.7527523733
  105      H      13.5479334110    -2.8881246837     0.6609268413
  106      C      15.1103849282    -2.6740891631     2.2754063402
  107      H      13.0248107732    -2.1069532549     2.0797911423
  108      H      15.1209845734    -2.4455317625     3.3484148035
  109      H      15.5881086083    -1.8746203847     1.6960612291
  110      H      15.7144737170    -3.5799501242     2.1423888431
 ----------------------------------------------------------------

   10   -5663.4975446344      5.80E-06 Convergence criterion met
 Total energy in the final basis set = -5663.4975446344

                    Orbital Energies (a.u.)
 --------------------------------------------------------------

 Alpha MOs
 -- Occupied --
-88.995 -88.983 -88.929 -88.928 -88.925 -88.915 -88.907 -88.899
-14.388 -14.388 -14.385 -14.380 -14.356 -14.347 -14.346 -14.340
-14.333 -14.327 -10.268 -10.266 -10.263 -10.262 -10.260 -10.255
-10.253 -10.252 -10.242 -10.238 -10.237 -10.236 -10.236 -10.236
-10.231 -10.231 -10.229 -10.228 -10.227 -10.226 -10.226 -10.226
-10.224 -10.224 -10.223 -10.222 -10.219 -10.216 -10.214 -10.211
-10.204 -10.203 -10.202 -10.201 -10.201 -10.196 -10.194 -10.191
-10.191 -10.187 -10.187 -10.181 -10.181 -10.180 -10.179 -10.176
-10.175 -10.174 -10.172 -10.170  -8.050  -8.039  -7.991  -7.989
 -7.984  -7.976  -7.966  -7.960  -6.015  -6.010  -6.008  -6.005
 -5.999  -5.996  -5.955  -5.953  -5.951  -5.950  -5.949  -5.948
 -5.946  -5.945  -5.941  -5.940  -5.936  -5.932  -5.931  -5.928
 -5.924  -5.922  -5.920  -5.916  -1.046  -1.033  -0.974  -0.965
 -0.964  -0.959  -0.937  -0.924  -0.922  -0.918  -0.911  -0.902
 -0.843  -0.838  -0.838  -0.835  -0.824  -0.810  -0.809  -0.802
 -0.799  -0.798  -0.795  -0.793  -0.785  -0.775  -0.769  -0.763
 -0.747  -0.743  -0.736  -0.735  -0.725  -0.724  -0.706  -0.704
 -0.694  -0.688  -0.677  -0.673  -0.660  -0.657  -0.647  -0.647
 -0.634  -0.631  -0.623  -0.622  -0.610  -0.609  -0.595  -0.594
 -0.592  -0.585  -0.585  -0.582  -0.578  -0.575  -0.568  -0.557
 -0.552  -0.546  -0.540  -0.540  -0.527  -0.525  -0.515  -0.511
 -0.510  -0.505  -0.498  -0.496  -0.489  -0.485  -0.479  -0.476
 -0.471  -0.471  -0.469  -0.468  -0.460  -0.455  -0.450  -0.449
 -0.447  -0.440  -0.436  -0.436  -0.434  -0.432  -0.431  -0.430
 -0.427  -0.424  -0.420  -0.418  -0.418  -0.416  -0.413  -0.412
 -0.411  -0.410  -0.406  -0.404  -0.402  -0.398  -0.398  -0.393
 -0.392  -0.390  -0.389  -0.388  -0.386  -0.386  -0.383  -0.382
 -0.380  -0.378  -0.374  -0.374  -0.365  -0.365  -0.356  -0.354
 -0.353  -0.352  -0.351  -0.350  -0.347  -0.347  -0.341  -0.340
 -0.338  -0.337  -0.335  -0.331  -0.329  -0.328  -0.322  -0.320
 -0.315  -0.313  -0.309  -0.307  -0.304  -0.300  -0.300  -0.298
 -0.298  -0.296  -0.295  -0.292  -0.292  -0.287  -0.285  -0.281
 -0.276  -0.273  -0.269  -0.265  -0.248  -0.248  -0.246  -0.244
 -0.243  -0.242  -0.233  -0.230  -0.191  -0.190

          Ground-State Mulliken Net Atomic Charges

     Atom                 Charge (a.u.)
  ----------------------------------------
      1 C                     0.261683
      2 C                    -0.126958
      3 N                    -0.483464
      4 C                    -0.055242
      5 C                     0.083540
      6 C                     0.045490
      7 C                    -0.003191
      8 C                     0.037125
      9 C                     0.274360
     10 N                    -0.502099
     11 N                    -0.559445
     12 C                     0.226496
     13 C                     0.288423
     14 S                     0.576140
     15 N                    -0.559730
     16 C                    -0.221395
     17 S                     0.317583
     18 C                    -0.097814
     19 C                    -0.232437
     20 S                     0.270870
     21 C                     0.167381
     22 C                     0.056948
     23 C                    -0.292628
     24 C                    -0.065353
     25 N                    -0.437588
     26 S                     0.288570
     27 C                     0.104775
     28 C                    -0.308110
     29 C                    -0.220816
     30 H                     0.091510
     31 H                     0.111433
     32 H                     0.102430
     33 H                     0.114863
     34 H                     0.126227
     35 H                     0.126136
     36 H                     0.112750
     37 H                     0.135890
     38 H                     0.121121
     39 C                    -0.170613
     40 H                     0.096861
     41 H                     0.117400
     42 H                     0.091541
     43 C                    -0.182637
     44 H                     0.087069
     45 C                    -0.177293
     46 H                     0.085217
     47 H                     0.091492
     48 H                     0.084165
     49 C                    -0.179838
     50 H                     0.094344
     51 C                    -0.307623
     52 H                     0.089103
     53 H                     0.094760
     54 H                     0.106609
     55 H                     0.107167
     56 C                     0.275458
     57 C                    -0.112101
     58 N                    -0.504558
     59 C                    -0.095911
     60 C                     0.079678
     61 C                     0.052252
     62 C                     0.049603
     63 C                     0.076445
     64 C                     0.216564
     65 N                    -0.513931
     66 N                    -0.565555
     67 C                     0.243309
     68 C                     0.259330
     69 S                     0.625248
     70 N                    -0.566699
     71 C                    -0.236715
     72 S                     0.297380
     73 C                    -0.084606
     74 C                    -0.248390
     75 S                     0.268001
     76 C                     0.194437
     77 C                     0.045515
     78 C                    -0.305175
     79 C                    -0.071200
     80 N                    -0.437947
     81 S                     0.278041
     82 C                     0.135005
     83 C                    -0.310460
     84 C                    -0.226315
     85 H                     0.093320
     86 H                     0.096240
     87 H                     0.125785
     88 H                     0.109331
     89 H                     0.145399
     90 H                     0.121739
     91 H                     0.113955
     92 H                     0.124951
     93 H                     0.107698
     94 C                    -0.197599
     95 H                     0.120487
     96 H                     0.095505
     97 H                     0.089734
     98 C                    -0.180279
     99 H                     0.109101
    100 C                    -0.177317
    101 H                     0.104356
    102 H                     0.090811
    103 H                     0.093140
    104 C                    -0.183243
    105 H                     0.096850
    106 C                    -0.327978
    107 H                     0.094675
    108 H                     0.105766
    109 H                     0.105684
    110 H                     0.101990
  ----------------------------------------
  Sum of atomic charges =     0.000000

                    Cartesian Multipole Moments
 -----------------------------------------------------------------
    Charge (ESU x 10^10)
                 0.0000
    Dipole Moment (Debye)
         X      -0.0877      Y       1.4495      Z      -0.6798
       Tot       1.6034
    Quadrupole Moments (Debye-Ang)
        XX    -457.1273     XY       7.8665     YY    -408.3763
        XZ      21.4435     YZ     -12.5690     ZZ    -422.7654

 Total job time:  92.36s(wall), 1000.58s(cpu)
        *  Thank you very much for using Q-Chem.  Have a nice day.  *
