 Q-Chem 4.4, Q-Chem, Inc., Pleasanton, CA (2016)
 Q-Chem 4.4.2 for Intel X86 Linux

User input:
--------------------------------------------------------------
$comment
SP
$end

$rem
MEM_STATIC 5000
MEM_TOTAL 20000
JOBTYPE SP
EXCHANGE B3LYP
BASIS 6-31g(d,p)
$end

$molecule
0 1
C         -13.680000      0.609000     -0.515000
C         -12.562000      1.134000     -1.087000
N         -13.640000     -0.483000      0.291000
C         -11.302000      0.546000     -0.824000
C         -12.415000     -1.031000      0.607000
C         -11.194000     -0.486000      0.118000
C          -9.883000     -1.090000      0.492000
C          -9.803000     -1.771000      1.743000
C          -8.731000     -1.202000     -0.361000
N          -8.795000     -2.533000      2.171000
N          -8.712000     -0.809000     -1.616000
C          -7.671000     -1.974000      0.098000
C          -7.703000     -2.661000      1.370000
S          -7.278000     -1.403000     -2.121000
N          -6.705000     -2.213000     -0.791000
C          -6.666000     -3.700000      1.800000
S          -5.278000     -4.369000      0.802000
C          -6.852000     -4.530000      2.868000
C          -5.100000     -5.734000      1.823000
S          -7.920000     -4.461000      4.214000
C          -5.943000     -5.587000      2.915000
C          -4.317000     -6.945000      1.495000
C          -7.405000     -6.120000      4.621000
C          -6.283000     -6.526000      3.936000
N          -3.391000     -7.368000      2.375000
S          -4.631000     -7.925000      0.115000
C          -2.762000     -8.435000      1.867000
C          -3.324000     -8.986000      0.676000
C         -15.072000      1.205000     -0.768000
H         -12.630000      1.994000     -1.747000
H         -10.491000      0.932000     -1.436000
H         -12.461000     -1.881000      1.286000
H         -10.656000     -1.730000      2.420000
H          -7.988000     -6.607000      5.392000
H          -5.889000     -7.523000      4.092000
H          -1.903000     -8.829000      2.395000
H          -2.951000     -9.878000      0.190000
H         -15.476000      0.862000     -1.728000
C         -15.211000      2.681000     -0.662000
H         -15.750000      0.846000      0.016000
H         -14.736000      3.044000     -1.581000
H         -14.612000      3.055000      0.177000
C         -16.675000      3.143000     -0.546000
H         -16.624000      4.204000     -0.818000
C         -17.321000      2.966000      0.855000
H         -17.319000      2.564000     -1.220000
H         -16.747000      3.577000      1.563000
H         -17.187000      1.933000      1.198000
C         -18.915000      3.287000      0.997000
H         -19.458000      3.204000      0.047000
C         -18.984000      4.739000      1.559000
H         -19.397000      2.671000      1.766000
H         -20.002000      5.107000      1.736000
H         -18.509000      5.405000      0.829000
H         -18.383000      4.672000      2.475000
C         -12.664000      6.068000     -2.680000
C         -12.572000      5.532000     -1.362000
N         -11.575000      6.126000     -3.501000
C         -11.384000      4.914000     -1.002000
C         -10.379000      5.559000     -3.082000
C         -10.242000      4.873000     -1.845000
C          -9.011000      4.162000     -1.435000
C          -9.060000      3.084000     -0.533000
C          -7.772000      4.548000     -1.904000
N          -8.021000      2.319000     -0.189000
N          -7.410000      5.652000     -2.636000
C          -6.627000      3.709000     -1.584000
C          -6.836000      2.633000     -0.769000
S          -5.845000      5.501000     -3.013000
N          -5.497000      4.090000     -2.233000
C          -5.676000      1.730000     -0.396000
S          -4.233000      1.472000     -1.396000
C          -5.538000      1.055000      0.733000
C          -3.459000      0.740000     -0.036000
S          -6.640000      0.851000      2.093000
C          -4.314000      0.475000      0.933000
C          -2.078000      0.256000     -0.217000
C          -5.432000     -0.118000      2.906000
C          -4.212000     -0.115000      2.226000
N          -1.504000     -0.380000      0.836000
S          -1.330000      0.014000     -1.780000
C          -0.228000     -0.746000      0.491000
C           0.050000     -0.596000     -0.846000
C         -14.028000      6.610000     -3.203000
H         -13.485000      5.452000     -0.779000
H         -11.283000      4.485000     -0.009000
H          -9.450000      5.647000     -3.643000
H         -10.046000      2.862000     -0.128000
H          -5.713000     -0.616000      3.825000
H          -3.381000     -0.658000      2.660000
H           0.398000     -1.298000      1.179000
H           0.942000     -0.931000     -1.358000
H         -14.373000      7.371000     -2.492000
C         -15.057000      5.449000     -3.229000
H         -13.935000      7.038000     -4.209000
H         -16.017000      5.770000     -3.652000
H         -15.299000      5.194000     -2.190000
C         -14.500000      4.200000     -4.070000
H         -13.986000      4.570000     -4.965000
C         -15.638000      3.210000     -4.512000
H         -13.829000      3.655000     -3.394000
H         -16.418000      3.802000     -5.008000
H         -16.044000      2.767000     -3.594000
C         -15.036000      2.183000     -5.528000
H         -14.245000      2.678000     -6.105000
C         -16.025000      1.341000     -6.476000
H         -14.467000      1.431000     -4.968000
H         -16.606000      0.610000     -5.900000
H         -15.480000      0.856000     -7.295000
H         -16.749000      2.030000     -6.928000
$end

--------------------------------------------------------------

             Standard Nuclear Orientation (Angstroms)
    I     Atom           X                Y                Z
 ----------------------------------------------------------------
    1      C       4.2668944464    -2.9472842177     0.2410279050
    2      C       3.8655737326    -1.6688100189     0.4801479748
    3      N       3.3880341144    -3.9472598165    -0.0260925145
    4      C       2.4879765154    -1.3491146771     0.4298111519
    5      C       2.0484277304    -3.6417175927    -0.1395988382
    6      C       1.5605604391    -2.3126880872     0.0109105614
    7      C       0.1078019318    -2.0102505404    -0.1355040891
    8      C      -0.6618689410    -2.8630446491    -0.9813828960
    9      C      -0.6340922042    -1.0425887433     0.6263887756
   10      N      -1.9910466878    -2.8820331011    -1.0945993080
   11      N      -0.1117635742    -0.3199683606     1.5932535980
   12      C      -2.0164005916    -1.0458305129     0.4868251242
   13      C      -2.7092122045    -1.9822580916    -0.3699668337
   14      S      -1.4415076998     0.3793169493     2.2312172458
   15      N      -2.6838400827    -0.2713825434     1.3443523064
   16      C      -4.2271391882    -2.1711665273    -0.3688376088
   17      S      -5.4484579861    -1.3780416012     0.7489469168
   18      C      -4.8392092930    -3.2316400240    -0.9728956768
   19      C      -6.6479830389    -2.5503424369     0.3965261480
   20      S      -4.3055192226    -4.3487065330    -2.1663940317
   21      C      -6.1783230474    -3.3797596792    -0.6115455413
   22      C      -7.8932963717    -2.7514640024     1.1684968850
   23      C      -5.7912997158    -5.2862436156    -1.8555314500
   24      C      -6.7269311568    -4.5967368470    -1.1192439907
   25      N      -9.0650163231    -2.7531627101     0.5067760451
   26      S      -7.9102372205    -3.1304354797     2.8476304792
   27      C     -10.0632174179    -2.8921431421     1.3879531067
   28      C      -9.6788992759    -3.2066898970     2.7263424016
   29      C       5.7476541080    -3.3501084464     0.2854403524
   30      H       4.5916335373    -0.8958663231     0.7151356404
   31      H       2.2472400354    -0.3485135753     0.7792455266
   32      H       1.4108298606    -4.4880227438    -0.3903846982
   33      H      -0.1485726445    -3.6240460823    -1.5687692515
   34      H      -5.8233360639    -6.2647301826    -2.3170904501
   35      H      -7.6630818449    -5.0744069565    -0.8565004739
   36      H     -11.0819390693    -2.7928461146     1.0354658059
   37      H     -10.3820013949    -3.3996318258     3.5259734555
   38      H       6.0806828197    -3.5034910303     1.3188960409
   39      C       6.7135642661    -2.4759393520    -0.4300866986
   40      H       5.8617864323    -4.3075568201    -0.2375198988
   41      H       6.7891859302    -1.5987864049     0.2232425226
   42      H       6.2793054162    -2.1331434930    -1.3769278946
   43      C       8.0803798108    -3.1465209439    -0.6588476992
   44      H       8.7430518991    -2.2978006904    -0.8658395700
   45      C       8.1311945453    -4.1780975662    -1.8184655393
   46      H       8.3864497233    -3.7157028326     0.2280605183
   47      H       7.8895940503    -3.6443191729    -2.7462428982
   48      H       7.3270575098    -4.9137776213    -1.6966768505
   49      C       9.5064433768    -5.0372457868    -2.0044655031
   50      H      10.0991160596    -5.1073323840    -1.0835610782
   51      C      10.2951097822    -4.2955263544    -3.1255215163
   52      H       9.3204190479    -6.0374743038    -2.4144397251
   53      H      11.2504522263    -4.7641791250    -3.3915335373
   54      H      10.5071075443    -3.2796826963    -2.7716859455
   55      H       9.5763570687    -4.2778055345    -3.9548745830
   56      C       7.2848527376     2.1755976151    -0.1690592561
   57      C       6.5769096126     1.4051937429    -1.1376553563
   58      N       6.6853304106     3.2066781831     0.4948472448
   59      C       5.2130073474     1.6238635572    -1.2594014998
   60      C       5.3317520230     3.4442300614     0.2977161876
   61      C       4.5189299290     2.6297080238    -0.5361951349
   62      C       3.0544287814     2.7953092510    -0.6657892015
   63      C       2.2288696800     1.7135578608    -1.0212538271
   64      C       2.4526612189     4.0210087503    -0.4667551890
   65      N       0.8943836970     1.7422061536    -1.0587829669
   66      N       3.0140910492     5.2618768622    -0.2914643602
   67      C       0.9986356677     4.0762223175    -0.4564034576
   68      C       0.3172891667     2.9235401484    -0.7261677301
   69      S       1.8193246445     6.3007624033     0.0362627683
   70      N       0.5202656963     5.2919789108    -0.0871338050
   71      C      -1.1992880842     2.9262608076    -0.7373050534
   72      S      -2.2156130687     4.0343019230     0.2051074956
   73      C      -1.9803623382     2.1580364767    -1.4782938436
   74      C      -3.5717988146     3.5553622409    -0.7519071352
   75      S      -1.5878099751     0.8289423679    -2.5668853612
   76      C      -3.3105640271     2.4822500779    -1.4732930731
   77      C      -4.8728535244     4.1805482084    -0.4509467588
   78      C      -3.2861875711     0.6622127273    -2.9501721578
   79      C      -4.0525288989     1.6904992396    -2.3968577644
   80      N      -5.9451277081     3.7464743105    -1.1612909895
   81      S      -5.2139572639     5.0508989248     1.0279632687
   82      C      -7.0559076417     4.4420674032    -0.7569703390
   83      C      -6.8573547256     5.1956745441     0.3744031700
   84      C       8.7766363108     1.8496597323     0.1409976214
   85      H       7.0859921325     0.5567135009    -1.5857337721
   86      H       4.6403493017     1.0467656838    -1.9800344210
   87      H       4.8099749753     4.3006621980     0.7217193809
   88      H       2.7512225663     0.7846863461    -1.2445253465
   89      H      -3.5908683387    -0.1815595087    -3.5557661172
   90      H      -5.1166850365     1.7039355249    -2.5997300912
   91      H      -8.0299179294     4.2275393015    -1.1755460825
   92      H      -7.6163405083     5.7240236086     0.9354921538
   93      H       9.3258092047     1.8922105632    -0.8078256285
   94      C       8.8720605423     0.4085773369     0.7081076158
   95      H       9.2037215460     2.5556287193     0.8642368565
   96      H       9.8989056904     0.1575800872     1.0016368690
   97      H       8.6545556087    -0.2876827735    -0.1110526021
   98      C       7.8995675531     0.2175303607     1.9711552946
   99      H       7.9438577110     1.1160635526     2.5978908728
  100      C       8.2805727573    -1.0306557214     2.8471544606
  101      H       6.8982835540     0.0409777523     1.5582369859
  102      H       9.3500618537    -0.9560815089     3.0827637974
  103      H       8.1045387108    -1.9172778624     2.2252845436
  104      C       7.4488639583    -0.9802491238     4.1719595967
  105      H       7.2803698799     0.0690286956     4.4444679511
  106      C       7.9263031963    -1.8531395407     5.4352501785
  107      H       6.4291273292    -1.3218865828     3.9568176581
  108      H       7.7931891686    -2.9268867253     5.2534655829
  109      H       7.4159037967    -1.5414685864     6.3546873265
  110      H       9.0006626052    -1.6922606369     5.5871410566
 ----------------------------------------------------------------

   10   -5663.4913267568      5.57E-06 Convergence criterion met
 Total energy in the final basis set = -5663.4913267568

                    Orbital Energies (a.u.)
 --------------------------------------------------------------

 Alpha MOs
 -- Occupied --
-88.998 -88.978 -88.938 -88.929 -88.921 -88.918 -88.903 -88.903
-14.391 -14.389 -14.387 -14.383 -14.360 -14.346 -14.345 -14.341
-14.336 -14.328 -10.272 -10.269 -10.265 -10.265 -10.262 -10.258
-10.251 -10.250 -10.244 -10.240 -10.239 -10.237 -10.236 -10.235
-10.233 -10.232 -10.231 -10.231 -10.229 -10.227 -10.227 -10.227
-10.223 -10.222 -10.221 -10.220 -10.219 -10.219 -10.217 -10.216
-10.214 -10.206 -10.204 -10.204 -10.199 -10.196 -10.194 -10.194
-10.192 -10.190 -10.187 -10.186 -10.185 -10.185 -10.183 -10.183
-10.181 -10.177 -10.177 -10.173  -8.053  -8.034  -7.998  -7.990
 -7.980  -7.979  -7.963  -7.963  -6.018  -6.012  -6.011  -5.999
 -5.994  -5.992  -5.962  -5.959  -5.956  -5.954  -5.951  -5.947
 -5.944  -5.943  -5.941  -5.940  -5.937  -5.936  -5.928  -5.927
 -5.924  -5.924  -5.919  -5.919  -1.044  -1.035  -0.970  -0.968
 -0.959  -0.950  -0.928  -0.927  -0.925  -0.916  -0.910  -0.904
 -0.846  -0.842  -0.841  -0.826  -0.813  -0.811  -0.810  -0.801
 -0.800  -0.796  -0.796  -0.789  -0.779  -0.778  -0.766  -0.763
 -0.746  -0.745  -0.737  -0.737  -0.727  -0.721  -0.707  -0.707
 -0.696  -0.688  -0.680  -0.667  -0.660  -0.651  -0.649  -0.642
 -0.634  -0.631  -0.625  -0.621  -0.613  -0.610  -0.597  -0.595
 -0.591  -0.587  -0.583  -0.582  -0.577  -0.577  -0.571  -0.565
 -0.548  -0.548  -0.543  -0.533  -0.530  -0.519  -0.514  -0.510
 -0.508  -0.502  -0.499  -0.497  -0.489  -0.483  -0.479  -0.476
 -0.474  -0.470  -0.468  -0.468  -0.463  -0.456  -0.451  -0.450
 -0.444  -0.443  -0.440  -0.439  -0.437  -0.434  -0.433  -0.431
 -0.426  -0.423  -0.422  -0.422  -0.421  -0.419  -0.414  -0.414
 -0.412  -0.411  -0.407  -0.403  -0.399  -0.395  -0.395  -0.393
 -0.392  -0.391  -0.390  -0.388  -0.387  -0.386  -0.382  -0.381
 -0.379  -0.379  -0.377  -0.374  -0.368  -0.363  -0.359  -0.354
 -0.351  -0.350  -0.347  -0.346  -0.345  -0.343  -0.341  -0.341
 -0.339  -0.337  -0.336  -0.331  -0.330  -0.328  -0.326  -0.323
 -0.322  -0.316  -0.312  -0.310  -0.307  -0.303  -0.302  -0.301
 -0.300  -0.297  -0.293  -0.291  -0.288  -0.285  -0.283  -0.277
 -0.276  -0.271  -0.271  -0.266  -0.250  -0.250  -0.249  -0.247
 -0.244  -0.242  -0.233  -0.227  -0.195  -0.192

          Ground-State Mulliken Net Atomic Charges

     Atom                 Charge (a.u.)
  ----------------------------------------
      1 C                     0.272727
      2 C                    -0.119331
      3 N                    -0.495755
      4 C                    -0.095832
      5 C                     0.064119
      6 C                     0.030276
      7 C                     0.043444
      8 C                     0.054021
      9 C                     0.274929
     10 N                    -0.522888
     11 N                    -0.552942
     12 C                     0.206021
     13 C                     0.302777
     14 S                     0.580884
     15 N                    -0.549111
     16 C                    -0.244945
     17 S                     0.318988
     18 C                    -0.080126
     19 C                    -0.219892
     20 S                     0.272847
     21 C                     0.142260
     22 C                     0.001477
     23 C                    -0.307439
     24 C                    -0.056276
     25 N                    -0.378273
     26 S                     0.305342
     27 C                     0.119276
     28 C                    -0.317871
     29 C                    -0.237083
     30 H                     0.098146
     31 H                     0.132780
     32 H                     0.110487
     33 H                     0.109057
     34 H                     0.126309
     35 H                     0.112813
     36 H                     0.113757
     37 H                     0.132789
     38 H                     0.113903
     39 C                    -0.187963
     40 H                     0.117601
     41 H                     0.097192
     42 H                     0.091824
     43 C                    -0.182106
     44 H                     0.092983
     45 C                    -0.188165
     46 H                     0.099026
     47 H                     0.090215
     48 H                     0.100167
     49 C                    -0.188113
     50 H                     0.096848
     51 C                    -0.312958
     52 H                     0.101148
     53 H                     0.095999
     54 H                     0.102546
     55 H                     0.106574
     56 C                     0.273496
     57 C                    -0.114309
     58 N                    -0.503839
     59 C                    -0.098935
     60 C                     0.080320
     61 C                     0.048714
     62 C                     0.052187
     63 C                     0.066010
     64 C                     0.215415
     65 N                    -0.520482
     66 N                    -0.563015
     67 C                     0.242848
     68 C                     0.260749
     69 S                     0.627930
     70 N                    -0.568366
     71 C                    -0.245174
     72 S                     0.296499
     73 C                    -0.093933
     74 C                    -0.246631
     75 S                     0.262671
     76 C                     0.201300
     77 C                     0.047238
     78 C                    -0.304001
     79 C                    -0.065574
     80 N                    -0.434437
     81 S                     0.277453
     82 C                     0.136805
     83 C                    -0.309650
     84 C                    -0.227683
     85 H                     0.097250
     86 H                     0.100353
     87 H                     0.126303
     88 H                     0.116713
     89 H                     0.142945
     90 H                     0.128723
     91 H                     0.117871
     92 H                     0.126013
     93 H                     0.108767
     94 C                    -0.203702
     95 H                     0.121094
     96 H                     0.096328
     97 H                     0.099567
     98 C                    -0.182281
     99 H                     0.107876
    100 C                    -0.186492
    101 H                     0.105097
    102 H                     0.092702
    103 H                     0.100780
    104 C                    -0.185228
    105 H                     0.097111
    106 C                    -0.327449
    107 H                     0.095721
    108 H                     0.106975
    109 H                     0.106637
    110 H                     0.102240
  ----------------------------------------
  Sum of atomic charges =     0.000000

                    Cartesian Multipole Moments
 -----------------------------------------------------------------
    Charge (ESU x 10^10)
                 0.0000
    Dipole Moment (Debye)
         X      -2.1062      Y       0.4749      Z       2.0433
       Tot       2.9727
    Quadrupole Moments (Debye-Ang)
        XX    -396.3697     XY      -2.2512     YY    -438.2219
        XZ     -25.4146     YZ       5.6263     ZZ    -440.6289

 Total job time:  109.62s(wall), 1217.42s(cpu)
        *  Thank you very much for using Q-Chem.  Have a nice day.  *
