 Q-Chem 4.4, Q-Chem, Inc., Pleasanton, CA (2016)
 Q-Chem 4.4.2 for Intel X86 Linux

User input:
--------------------------------------------------------------
$comment
SP
$end

$rem
MEM_STATIC 5000
MEM_TOTAL 20000
JOBTYPE SP
EXCHANGE B3LYP
BASIS 6-31g(d,p)
$end

$molecule
0 1
C           1.253000      7.360000      3.278000
C           0.117000      6.548000      3.290000
N           2.451000      6.788000      2.989000
C           0.293000      5.180000      3.167000
C           2.587000      5.548000      2.779000
C           1.538000      4.623000      2.944000
C           1.711000      3.161000      2.834000
C           2.007000      2.500000      1.663000
C           1.524000      2.305000      3.984000
N           2.444000      1.246000      1.613000
N           1.033000      2.651000      5.212000
C           1.941000      0.959000      3.938000
C           2.461000      0.487000      2.737000
S           0.816000      1.258000      5.975000
N           1.558000      0.188000      4.972000
C           3.279000     -0.710000      2.605000
S           3.436000     -1.770000      1.242000
C           4.271000     -0.931000      3.507000
C           4.886000     -2.556000      1.891000
S           4.693000     -0.135000      5.033000
C           5.162000     -1.916000      3.079000
C           5.712000     -3.615000      1.347000
C           6.107000     -1.214000      5.146000
C           6.188000     -2.102000      4.033000
N           7.053000     -3.510000      1.541000
S           5.195000     -4.639000      0.117000
C           7.649000     -4.365000      0.753000
C           6.866000     -5.133000     -0.049000
C           1.190000      8.870000      3.563000
H          -0.824000      6.985000      3.611000
H          -0.534000      4.482000      3.269000
H           3.619000      5.252000      2.597000
H           2.232000      3.081000      0.770000
H           6.659000     -1.166000      6.075000
H           6.936000     -2.885000      3.990000
H           8.717000     -4.492000      0.879000
H           6.994000     -5.987000     -0.701000
H           1.873000      9.382000      2.874000
C           1.563000      9.263000      4.994000
H           0.156000      9.164000      3.344000
H           2.500000      8.785000      5.307000
H           0.771000      8.999000      5.706000
C           1.784000     10.770000      5.192000
H           2.722000     11.093000      4.722000
C           1.640000     11.214000      6.653000
H           1.035000     11.359000      4.648000
H           0.653000     10.846000      6.959000
H           1.623000     12.309000      6.720000
C           2.798000     10.723000      7.503000
H           2.588000      9.675000      7.750000
C           2.836000     11.338000      8.918000
H           3.759000     10.922000      7.013000
H           2.829000     12.434000      8.940000
H           3.655000     11.064000      9.595000
H           1.887000     11.129000      9.427000
C         -12.664000      6.068000     -2.680000
C         -12.572000      5.532000     -1.362000
N         -11.575000      6.126000     -3.501000
C         -11.384000      4.914000     -1.002000
C         -10.379000      5.559000     -3.082000
C         -10.242000      4.873000     -1.845000
C          -9.011000      4.162000     -1.435000
C          -9.060000      3.084000     -0.533000
C          -7.772000      4.548000     -1.904000
N          -8.021000      2.319000     -0.189000
N          -7.410000      5.652000     -2.636000
C          -6.627000      3.709000     -1.584000
C          -6.836000      2.633000     -0.769000
S          -5.845000      5.501000     -3.013000
N          -5.497000      4.090000     -2.233000
C          -5.676000      1.730000     -0.396000
S          -4.233000      1.472000     -1.396000
C          -5.538000      1.055000      0.733000
C          -3.459000      0.740000     -0.036000
S          -6.640000      0.851000      2.093000
C          -4.314000      0.475000      0.933000
C          -2.078000      0.256000     -0.217000
C          -5.432000     -0.118000      2.906000
C          -4.212000     -0.115000      2.226000
N          -1.504000     -0.380000      0.836000
S          -1.330000      0.014000     -1.780000
C          -0.228000     -0.746000      0.491000
C           0.050000     -0.596000     -0.846000
C         -14.028000      6.610000     -3.203000
H         -13.485000      5.452000     -0.779000
H         -11.283000      4.485000     -0.009000
H          -9.450000      5.647000     -3.643000
H         -10.046000      2.862000     -0.128000
H          -5.713000     -0.616000      3.825000
H          -3.381000     -0.658000      2.660000
H           0.398000     -1.298000      1.179000
H           0.942000     -0.931000     -1.358000
H         -14.373000      7.371000     -2.492000
C         -15.057000      5.449000     -3.229000
H         -13.935000      7.038000     -4.209000
H         -16.017000      5.770000     -3.652000
H         -15.299000      5.194000     -2.190000
C         -14.500000      4.200000     -4.070000
H         -13.986000      4.570000     -4.965000
C         -15.638000      3.210000     -4.512000
H         -13.829000      3.655000     -3.394000
H         -16.418000      3.802000     -5.008000
H         -16.044000      2.767000     -3.594000
C         -15.036000      2.183000     -5.528000
H         -14.245000      2.678000     -6.105000
C         -16.025000      1.341000     -6.476000
H         -14.467000      1.431000     -4.968000
H         -16.606000      0.610000     -5.900000
H         -15.480000      0.856000     -7.295000
H         -16.749000      2.030000     -6.928000
$end

--------------------------------------------------------------

             Standard Nuclear Orientation (Angstroms)
    I     Atom           X                Y                Z
 ----------------------------------------------------------------
    1      C       3.0141427928     5.5403694637    -1.4193897210
    2      C       2.1503630624     4.7697519341    -0.6383537421
    3      N       4.1195235110     4.9440455072    -1.9375018777
    4      C       2.5476239848     3.4870136284    -0.3002780127
    5      C       4.4229327687     3.7385290268    -1.7032608956
    6      C       3.7163520782     2.9340707564    -0.7884704173
    7      C       4.1348358278     1.5717712697    -0.4031336038
    8      C       4.1212606335     0.4864562682    -1.2502965526
    9      C       4.5517321469     1.2806083722     0.9502424068
   10      N       4.7589838438    -0.6525791056    -1.0015144709
   11      N       4.4727576203     2.0982575638     2.0429426509
   12      C       5.1915613897     0.0593659659     1.2450415337
   13      C       5.3324895982    -0.8596438387     0.2100800759
   14      S       4.8341463812     1.1557311069     3.2882333967
   15      N       5.3709540780    -0.2115096985     2.5506948712
   16      C       6.2762380634    -1.9681060393     0.2127974823
   17      S       6.1492892390    -3.5009900373    -0.5873079136
   18      C       7.5479982351    -1.7475778015     0.6376531778
   19      C       7.8637749497    -3.8822242380    -0.3491982080
   20      S       8.3149182315    -0.3627834214     1.4342423091
   21      C       8.4088044645    -2.7877151616     0.2849253680
   22      C       8.6390644213    -5.0410308309    -0.7438962135
   23      C       9.8650117645    -1.2384339824     1.3514646909
   24      C       9.7229534757    -2.5121600242     0.7259126044
   25      N       9.9084848655    -4.8144083405    -1.1730302051
   26      S       7.9383317895    -6.5094212323    -1.1700046597
   27      C      10.3450639693    -5.9010783866    -1.7524539680
   28      C       9.5025769642    -6.9655411817    -1.8094768055
   29      C       2.7486168689     7.0245975472    -1.7224688854
   30      H       1.3182682139     5.2670548261    -0.1486609847
   31      H       1.9741140827     2.8690940031     0.3858697329
   32      H       5.3586982697     3.4312143525    -2.1676579434
   33      H       3.8874058624     0.6397959713    -2.3026433973
   34      H      10.6903734345    -0.7793162258     1.8787577776
   35      H      10.5497565302    -3.2109947730     0.6762265601
   36      H      11.3891130248    -5.9231539637    -2.0389905950
   37      H       9.5612876846    -8.0105417949    -2.0839413200
   38      H       3.0191316458     7.2191732732    -2.7676081308
   39      C       3.5196743477     8.0027982404    -0.8336872652
   40      H       1.6679699212     7.1593100212    -1.5897747873
   41      H       4.5833788063     7.7381981790    -0.7794504489
   42      H       3.1071647467     8.0382418364     0.1824247270
   43      C       3.4823453330     9.4576729900    -1.3246455195
   44      H       4.1023190125     9.5839456450    -2.2217301606
   45      C       3.7827050601    10.4758261691    -0.2176039041
   46      H       2.4844549221     9.7311666831    -1.6897125377
   47      H       3.0686605641    10.2372537532     0.5801759277
   48      H       3.5663134991    11.4937238327    -0.5652560849
   49      C       5.2425262175    10.4361853244     0.1969992700
   50      H       5.3548248169     9.5861510222     0.8812826248
   51      C       5.6571018519    11.5960202432     1.1269476581
   52      H       5.9017614672    10.4426762330    -0.6796926677
   53      H       5.4335141949    12.5960299542     0.7374118604
   54      H       6.7016525669    11.6665058458     1.4557509179
   55      H       5.0176494314    11.5890166504     2.0182470194
   56      C     -11.5297760753     1.3261745736    -0.1684291355
   57      C     -10.8643368788     1.4060644751     1.0900192263
   58      N     -10.8434089925     1.0689539450    -1.3199775608
   59      C      -9.5264186536     1.0440892053     1.1326423021
   60      C      -9.4875678460     0.7784994845    -1.2507172417
   61      C      -8.7793114518     0.6899363923    -0.0218708482
   62      C      -7.3652344861     0.2667405444     0.0794879669
   63      C      -6.8657663304    -0.3256640971     1.2532329572
   64      C      -6.4836473381     0.4614181675    -0.9640553832
   65      N      -5.6391141451    -0.8328100643     1.3988673768
   66      N      -6.6425070942     1.1611648751    -2.1348679741
   67      C      -5.1538247988    -0.1189683183    -0.8541939211
   68      C      -4.8316452107    -0.7524620297     0.3122399736
   69      S      -5.3207546016     0.9214415331    -3.0346779916
   70      N      -4.4349042215    -0.0094348243    -2.0006744562
   71      C      -3.4560526312    -1.3675979873     0.4839688556
   72      S      -2.4463586406    -1.9737619450    -0.8433955636
   73      C      -2.7877847100    -1.4921589610     1.6185227544
   74      C      -1.1043776470    -2.0282255629     0.2431681608
   75      S      -3.2631663545    -1.1379411808     3.2780895824
   76      C      -1.4821214928    -1.8865781511     1.4991365512
   77      C       0.1882737011    -2.4923083497    -0.2933555193
   78      C      -1.6728705286    -1.6236661489     3.8205141776
   79      C      -0.8054275809    -1.8657872610     2.7529332207
   80      N       1.2185120300    -2.5980018997     0.5842656172
   81      S       0.3601456503    -3.3491430442    -1.8090505214
   82      C       2.3326049369    -3.0290655685    -0.0896320813
   83      C       2.0766884308    -3.4524823723    -1.3712630548
   84      C     -13.0707307051     1.5435986679    -0.2457246224
   85      H     -11.4710118849     1.5485131644     1.9796887199
   86      H      -8.9910341588     1.0826832209     2.0771871367
   87      H      -8.8600895015     0.6532356779    -2.1316746220
   88      H      -7.5734631202    -0.3900524583     2.0781719808
   89      H      -1.4977717078    -1.6929462471     4.8863784611
   90      H       0.2183573229    -2.1415209436     2.9756469541
   91      H       3.2623712982    -3.2123045686     0.4317909545
   92      H       2.7748634174    -3.9406764110    -2.0377848239
   93      H     -13.2869078041     2.5216909071     0.2017907779
   94      C     -13.7789621482     0.4451878572     0.5905408341
   95      H     -13.4338380695     1.5056689206    -1.2804146128
   96      H     -14.8707316136     0.5201700980     0.5131644944
   97      H     -13.5753069846     0.6481218510     1.6490550610
   98      C     -13.3159576223    -1.0216918154     0.1307345324
   99      H     -13.2439330222    -1.0493886597    -0.9629593653
  100      C     -14.3074366134    -2.1465982280     0.6019701139
  101      H     -12.3509297757    -1.2020633325     0.6210705101
  102      H     -15.3170088531    -1.8510918245     0.2884101384
  103      H     -14.2578586203    -2.1711549048     1.6977565859
  104      C     -13.9116428589    -3.4856229285    -0.1049592712
  105      H     -13.4991835073    -3.2547801649    -1.0950218458
  106      C     -14.9788230074    -4.6866895455    -0.1709479985
  107      H     -13.0385228442    -3.9062644166     0.4084481483
  108      H     -15.1518755193    -5.1236382032     0.8204281655
  109      H     -14.6757790050    -5.4539056444    -0.8938275115
  110      H     -15.9415606691    -4.2827021029    -0.5072980259
 ----------------------------------------------------------------

   10   -5663.4878313970      5.07E-06 Convergence criterion met
 Total energy in the final basis set = -5663.4878313970

                    Orbital Energies (a.u.)
 --------------------------------------------------------------

 Alpha MOs
 -- Occupied --
-88.996 -88.989 -88.930 -88.929 -88.927 -88.916 -88.910 -88.902
-14.389 -14.388 -14.385 -14.385 -14.357 -14.346 -14.341 -14.339
-14.334 -14.318 -10.269 -10.267 -10.263 -10.260 -10.259 -10.259
-10.256 -10.252 -10.243 -10.239 -10.237 -10.235 -10.232 -10.232
-10.230 -10.230 -10.229 -10.229 -10.228 -10.226 -10.226 -10.225
-10.224 -10.223 -10.222 -10.222 -10.219 -10.218 -10.215 -10.212
-10.206 -10.204 -10.204 -10.202 -10.200 -10.198 -10.195 -10.194
-10.192 -10.189 -10.188 -10.182 -10.181 -10.181 -10.180 -10.177
-10.176 -10.176 -10.174 -10.168  -8.051  -8.045  -7.993  -7.988
 -7.987  -7.977  -7.970  -7.962  -6.016  -6.010  -6.009  -6.009
 -6.004  -6.002  -5.956  -5.953  -5.953  -5.951  -5.950  -5.949
 -5.948  -5.945  -5.944  -5.941  -5.937  -5.934  -5.933  -5.931
 -5.927  -5.926  -5.923  -5.918  -1.042  -1.034  -0.984  -0.966
 -0.961  -0.957  -0.952  -0.925  -0.923  -0.917  -0.907  -0.902
 -0.845  -0.843  -0.839  -0.832  -0.820  -0.812  -0.811  -0.811
 -0.799  -0.799  -0.798  -0.794  -0.789  -0.776  -0.771  -0.764
 -0.751  -0.743  -0.741  -0.736  -0.727  -0.725  -0.710  -0.705
 -0.695  -0.693  -0.678  -0.675  -0.658  -0.652  -0.647  -0.643
 -0.637  -0.632  -0.626  -0.623  -0.612  -0.610  -0.600  -0.596
 -0.594  -0.589  -0.585  -0.582  -0.580  -0.575  -0.569  -0.561
 -0.555  -0.547  -0.543  -0.541  -0.528  -0.526  -0.517  -0.511
 -0.511  -0.507  -0.505  -0.497  -0.495  -0.486  -0.479  -0.477
 -0.472  -0.472  -0.470  -0.469  -0.465  -0.460  -0.449  -0.448
 -0.444  -0.442  -0.438  -0.437  -0.436  -0.434  -0.432  -0.431
 -0.430  -0.426  -0.423  -0.422  -0.419  -0.417  -0.414  -0.413
 -0.411  -0.410  -0.406  -0.405  -0.401  -0.399  -0.394  -0.394
 -0.392  -0.391  -0.389  -0.389  -0.389  -0.387  -0.384  -0.380
 -0.379  -0.378  -0.375  -0.371  -0.366  -0.362  -0.358  -0.357
 -0.356  -0.353  -0.352  -0.348  -0.344  -0.342  -0.340  -0.340
 -0.338  -0.337  -0.333  -0.330  -0.330  -0.329  -0.324  -0.322
 -0.320  -0.314  -0.312  -0.310  -0.305  -0.302  -0.301  -0.300
 -0.299  -0.298  -0.294  -0.291  -0.289  -0.288  -0.288  -0.282
 -0.276  -0.274  -0.269  -0.262  -0.253  -0.249  -0.247  -0.247
 -0.242  -0.241  -0.234  -0.232  -0.195  -0.192

          Ground-State Mulliken Net Atomic Charges

     Atom                 Charge (a.u.)
  ----------------------------------------
      1 C                     0.258869
      2 C                    -0.125001
      3 N                    -0.456926
      4 C                    -0.043583
      5 C                     0.087911
      6 C                     0.013648
      7 C                    -0.008480
      8 C                     0.061529
      9 C                     0.224660
     10 N                    -0.459900
     11 N                    -0.525058
     12 C                     0.170713
     13 C                     0.237347
     14 S                     0.614583
     15 N                    -0.510408
     16 C                    -0.206775
     17 S                     0.306001
     18 C                    -0.103776
     19 C                    -0.214691
     20 S                     0.254418
     21 C                     0.149943
     22 C                     0.015671
     23 C                    -0.312996
     24 C                    -0.053965
     25 N                    -0.407698
     26 S                     0.281238
     27 C                     0.146245
     28 C                    -0.322806
     29 C                    -0.218070
     30 H                     0.089909
     31 H                     0.102931
     32 H                     0.096958
     33 H                     0.112331
     34 H                     0.136284
     35 H                     0.116925
     36 H                     0.109872
     37 H                     0.138088
     38 H                     0.117885
     39 C                    -0.165858
     40 H                     0.096240
     41 H                     0.118543
     42 H                     0.088385
     43 C                    -0.186906
     44 H                     0.092709
     45 C                    -0.175538
     46 H                     0.083273
     47 H                     0.090510
     48 H                     0.088585
     49 C                    -0.162515
     50 H                     0.104170
     51 C                    -0.328905
     52 H                     0.098048
     53 H                     0.094066
     54 H                     0.099698
     55 H                     0.097133
     56 C                     0.275647
     57 C                    -0.112257
     58 N                    -0.504530
     59 C                    -0.095609
     60 C                     0.080430
     61 C                     0.051706
     62 C                     0.050672
     63 C                     0.075188
     64 C                     0.215141
     65 N                    -0.514532
     66 N                    -0.564112
     67 C                     0.243050
     68 C                     0.258734
     69 S                     0.625985
     70 N                    -0.567591
     71 C                    -0.236446
     72 S                     0.300280
     73 C                    -0.086978
     74 C                    -0.249711
     75 S                     0.263239
     76 C                     0.196056
     77 C                     0.044595
     78 C                    -0.301388
     79 C                    -0.070829
     80 N                    -0.445029
     81 S                     0.276128
     82 C                     0.141753
     83 C                    -0.308828
     84 C                    -0.226681
     85 H                     0.093269
     86 H                     0.095297
     87 H                     0.126015
     88 H                     0.109061
     89 H                     0.132027
     90 H                     0.123591
     91 H                     0.117924
     92 H                     0.133263
     93 H                     0.107670
     94 C                    -0.197193
     95 H                     0.120716
     96 H                     0.095638
     97 H                     0.089526
     98 C                    -0.180404
     99 H                     0.109248
    100 C                    -0.177568
    101 H                     0.104155
    102 H                     0.090991
    103 H                     0.093110
    104 C                    -0.183209
    105 H                     0.096850
    106 C                    -0.327695
    107 H                     0.094665
    108 H                     0.105736
    109 H                     0.105791
    110 H                     0.101979
  ----------------------------------------
  Sum of atomic charges =     0.000000

                    Cartesian Multipole Moments
 -----------------------------------------------------------------
    Charge (ESU x 10^10)
                 0.0000
    Dipole Moment (Debye)
         X       0.4514      Y      -1.1366      Z       1.6564
       Tot       2.0589
    Quadrupole Moments (Debye-Ang)
        XX    -421.1263     XY     -30.5346     YY    -421.6419
        XZ     -12.3093     YZ      16.4320     ZZ    -435.8821

 Total job time:  94.76s(wall), 1020.85s(cpu)
        *  Thank you very much for using Q-Chem.  Have a nice day.  *
