 Q-Chem 4.4, Q-Chem, Inc., Pleasanton, CA (2016)
 Q-Chem 4.4.2 for Intel X86 Linux

User input:
--------------------------------------------------------------
$comment
SP
$end

$rem
MEM_STATIC 5000
MEM_TOTAL 20000
JOBTYPE SP
EXCHANGE B3LYP
BASIS 6-31g(d,p)
$end

$molecule
0 1
C         -15.142000    -15.577000    -15.147000
C         -14.401000    -16.287000    -14.138000
N         -15.982000    -14.598000    -14.825000
C         -14.806000    -16.138000    -12.817000
C         -16.274000    -14.375000    -13.524000
C         -15.734000    -15.175000    -12.469000
C         -16.149000    -14.946000    -11.068000
C         -16.116000    -15.993000    -10.163000
C         -16.481000    -13.717000    -10.491000
N         -16.474000    -15.896000     -8.822000
N         -16.436000    -12.608000    -11.193000
C         -16.693000    -13.580000     -9.126000
C         -16.728000    -14.693000     -8.341000
S         -16.571000    -11.399000    -10.098000
N         -16.772000    -12.244000     -8.715000
C         -16.905000    -14.628000     -6.894000
S         -16.226000    -15.805000     -5.711000
C         -18.005000    -14.020000     -6.302000
C         -17.308000    -15.177000     -4.405000
S         -19.173000    -12.863000     -6.902000
C         -18.172000    -14.269000     -4.977000
C         -17.133000    -15.392000     -3.042000
C         -19.807000    -12.608000     -5.314000
C         -19.166000    -13.435000     -4.354000
N         -15.899000    -15.773000     -2.754000
S         -18.072000    -15.002000     -1.656000
C         -15.660000    -15.865000     -1.405000
C         -16.701000    -15.341000     -0.602000
C         -14.936000    -15.790000    -16.653000
H         -13.550000    -16.916000    -14.378000
H         -14.346000    -16.760000    -12.055000
H         -17.075000    -13.684000    -13.264000
H         -15.974000    -17.006000    -10.536000
H         -20.493000    -11.779000     -5.200000
H         -19.451000    -13.355000     -3.312000
H         -14.716000    -16.179000     -0.979000
H         -16.696000    -15.402000      0.479000
H         -15.847000    -16.223000    -17.085000
C         -13.739000    -16.651000    -17.119000
H         -14.867000    -14.791000    -17.101000
H         -14.147000    -17.283000    -17.917000
H         -13.453000    -17.346000    -16.321000
C         -12.499000    -15.836000    -17.593000
H         -12.769000    -15.224000    -18.463000
C         -11.290000    -16.778000    -17.841000
H         -12.201000    -15.150000    -16.790000
H         -11.479000    -17.350000    -18.758000
H         -11.231000    -17.502000    -17.019000
C         -10.005000    -16.007000    -18.006000
H         -10.029000    -15.050000    -18.544000
C          -8.989000    -16.879000    -18.838000
H          -9.589000    -15.759000    -17.022000
H          -9.194000    -16.947000    -19.914000
H          -8.948000    -17.924000    -18.505000
H          -7.935000    -16.583000    -18.771000
C          -7.523000    -19.074000     -6.136000
C          -7.191000    -17.930000     -5.412000
N          -8.624000    -19.853000     -5.964000
C          -8.131000    -17.585000     -4.434000
C          -9.495000    -19.473000     -4.994000
C          -9.242000    -18.377000     -4.176000
C         -10.038000    -18.111000     -2.950000
C          -9.434000    -17.608000     -1.768000
C         -11.403000    -18.338000     -2.866000
N         -10.059000    -17.377000     -0.605000
N         -12.195000    -18.818000     -3.928000
C         -12.062000    -18.123000     -1.639000
C         -11.380000    -17.669000     -0.501000
S         -13.681000    -18.924000     -3.275000
N         -13.397000    -18.412000     -1.725000
C         -12.014000    -17.513000      0.835000
S         -13.626000    -18.049000      1.293000
C         -11.486000    -16.916000      1.969000
C         -13.404000    -17.611000      2.995000
S          -9.981000    -16.067000      2.038000
C         -12.178000    -17.028000      3.175000
C         -14.408000    -17.628000      4.006000
C         -10.272000    -15.830000      3.745000
C         -11.509000    -16.359000      4.197000
N         -15.590000    -18.161000      3.608000
S         -14.254000    -17.470000      5.748000
C         -16.440000    -18.257000      4.620000
C         -15.936000    -17.903000      5.822000
C          -6.670000    -19.506000     -7.306000
H          -6.278000    -17.403000     -5.669000
H          -7.871000    -16.779000     -3.754000
H         -10.315000    -20.171000     -4.834000
H          -8.368000    -17.385000     -1.777000
H          -9.579000    -15.253000      4.344000
H         -11.922000    -16.149000      5.177000
H         -17.451000    -18.575000      4.401000
H         -16.389000    -17.962000      6.803000
H          -7.303000    -19.678000     -8.186000
C          -5.837000    -20.798000     -6.999000
H          -5.976000    -18.722000     -7.634000
H          -5.298000    -20.610000     -6.062000
H          -5.035000    -20.781000     -7.748000
C          -6.637000    -22.094000     -7.038000
H          -6.039000    -22.919000     -6.630000
C          -6.913000    -22.470000     -8.524000
H          -7.571000    -22.075000     -6.463000
H          -6.015000    -22.452000     -9.154000
H          -7.440000    -21.678000     -9.070000
C          -7.688000    -23.802000     -8.671000
H          -7.230000    -24.666000     -8.173000
C          -7.769000    -24.080000    -10.196000
H          -8.698000    -23.682000     -8.260000
H          -8.288000    -25.025000    -10.398000
H          -6.812000    -24.070000    -10.732000
H          -8.406000    -23.391000    -10.765000
$end

--------------------------------------------------------------

             Standard Nuclear Orientation (Angstroms)
    I     Atom           X                Y                Z
 ----------------------------------------------------------------
    1      C       9.7549205655    -1.4919888048     0.5895425408
    2      C       8.6809671623    -0.5435433923     0.7249581500
    3      N       9.5263823210    -2.7411139575     0.1956115526
    4      C       7.3821728646    -1.0378589922     0.7322010889
    5      C       8.2523151846    -3.1784563790     0.0812501147
    6      C       7.1274748362    -2.3541446398     0.3972712332
    7      C       5.7557865509    -2.9040149964     0.3374311222
    8      C       4.7659929667    -2.3674448915     1.1428652804
    9      C       5.2878167370    -3.8719600859    -0.5556985195
   10      N       3.4423380175    -2.7954527451     1.1673775789
   11      N       6.0795646104    -4.3870165223    -1.4681469687
   12      C       3.9417936879    -4.1994341688    -0.6446967008
   13      C       3.0668851711    -3.6783924878     0.2604384570
   14      S       5.0913464828    -5.2066781586    -2.4832877148
   15      N       3.6450616272    -5.0018022590    -1.7529446568
   16      C       1.6326979225    -3.9424394701     0.2080063374
   17      S       0.3470470352    -2.8067106359     0.7585340944
   18      C       1.1072851450    -5.2279095516     0.2484548581
   19      C      -0.8883541341    -4.1271344188     0.7267695816
   20      S       1.8163878271    -6.7978533938    -0.0602889170
   21      C      -0.2317438201    -5.3092016089     0.4627164551
   22      C      -2.2666223521    -3.9400631281     0.7265424972
   23      C       0.2632491438    -7.5567474311    -0.0365177011
   24      C      -0.7704382304    -6.6275425983     0.2541346531
   25      N      -2.6007092689    -2.7113019718     0.3668301775
   26      S      -3.6034216212    -5.0172207089     0.8132388653
   27      C      -3.9555228648    -2.5350893070     0.2296616058
   28      C      -4.6989379402    -3.7376062068     0.2956398693
   29      C      11.2351511762    -1.1212246916     0.7547463892
   30      H       8.8569576156     0.5235475840     0.8131976464
   31      H       6.5651675528    -0.3598538459     0.9601031337
   32      H       8.0609685233    -4.2375461424    -0.0872649537
   33      H       5.0511178463    -1.6863875625     1.9430694529
   34      H       0.2275098387    -8.5843656770    -0.3734990697
   35      H      -1.7984890206    -6.9683456069     0.2729464077
   36      H      -4.4179279430    -1.5944393363    -0.0397213488
   37      H      -5.7812295751    -3.7605912201     0.2750606013
   38      H      11.6406056874    -1.6350445305     1.6354448691
   39      C      11.6126430793     0.3741549964     0.8671094255
   40      H      11.7643067836    -1.5713656120    -0.0942727478
   41      H      12.3599213180     0.4112420551     1.6689147535
   42      H      10.7558045693     0.9422918125     1.2474688950
   43      C      12.1378519371     1.0118358795    -0.4535039725
   44      H      13.0592879690     0.5054758921    -0.7679864081
   45      C      12.2911978354     2.5485181775    -0.2933741803
   46      H      11.3914689623     0.8528269596    -1.2420707853
   47      H      13.1593682180     2.7449743680     0.3480922272
   48      H      11.4108199395     2.9392427087     0.2316116301
   49      C      12.5042764272     3.2305736291    -1.6208864682
   50      H      13.1207419557     2.7293407010    -2.3789133834
   51      C      13.2477695012     4.5993131105    -1.3787413030
   52      H      11.5394266010     3.3948841175    -2.1157428879
   53      H      14.3167506674     4.5220879003    -1.1426469717
   54      H      12.8279938347     5.1731873990    -0.5426481917
   55      H      13.1927748846     5.3270984677    -2.1974751218
   56      C       0.3894992022     6.3056779954    -1.1313776089
   57      C      -0.2402533739     5.9353082375    -2.3185481675
   58      N       0.1665050789     5.7827797990     0.1037244506
   59      C      -1.1742694328     4.9038762850    -2.1673161307
   60      C      -0.7574619066     4.7913397761     0.1890045224
   61      C      -1.4839198647     4.3747228032    -0.9214179796
   62      C      -2.6734362103     3.4932605525    -0.7968259889
   63      C      -3.8165538230     3.6691904945    -1.6197960849
   64      C      -2.7592865573     2.4578564381     0.1209855592
   65      N      -4.9483360317     2.9541936707    -1.5534366546
   66      N      -1.7314932650     2.1043680534     1.0177547103
   67      C      -3.9557588163     1.7191682604     0.2149478362
   68      C      -5.0600980648     1.9895033353    -0.6058065555
   69      S      -2.3726828182     0.8708253683     1.8622009199
   70      N      -3.8777781490     0.7515658202     1.1797309897
   71      C      -6.3704262336     1.2973731449    -0.4825836287
   72      S      -6.8517494859     0.1977580023     0.8037982993
   73      C      -7.4569103640     1.3616564547    -1.3408195464
   74      C      -8.5137282074     0.0572663953     0.2071234819
   75      S      -7.4731798468     2.1748048812    -2.8669623773
   76      C      -8.6594195620     0.7707904984    -0.9526275188
   77      C      -9.5101343810    -0.8368105311     0.6952087070
   78      C      -9.1506319743     1.7083911105    -3.0196435947
   79      C      -9.6300193587     0.9218289129    -1.9399113848
   80      N      -9.1435828217    -1.5278359564     1.8032433707
   81      S     -11.2345655862    -0.8874704187     0.3680778553
   82      C     -10.1494982534    -2.2498500488     2.2751435664
   83      C     -11.3237807659    -2.0798976537     1.6299205321
   84      C       1.5086190652     7.3207349355    -1.1504338512
   85      H       0.0486647550     6.4387392801    -3.2352981335
   86      H      -1.7875807118     4.6555590295    -3.0286080764
   87      H      -0.9651878755     4.4630095454     1.2059869124
   88      H      -3.8020789165     4.4502615785    -2.3786665870
   89      H      -9.7077446702     1.9521639013    -3.9152882065
   90      H     -10.5838319444     0.4070591101    -1.9578724938
   91      H      -9.9454206588    -2.9212050063     3.0990615578
   92      H     -12.3006105847    -2.4849213648     1.8597254464
   93      H       2.3788810925     6.9269934009    -0.6098003266
   94      C       1.0843016020     8.6962196509    -0.5296291410
   95      H       1.8924958487     7.5061272803    -2.1614453712
   96      H       0.1597432959     8.9989462981    -1.0369579454
   97      H       1.8221403173     9.4053482843    -0.9261447289
   98      C       1.0245644476     8.7149015985     0.9926124486
   99      H       0.5415961712     9.6372668613     1.3399983521
  100      C       2.4771732980     8.7647953847     1.5522428068
  101      H       0.4647442357     7.8847868672     1.4407785598
  102      H       3.0953374533     9.5478249485     1.0957718008
  103      H       3.0940084823     7.9275857312     1.2033827322
  104      C       2.5217272789     8.8297568140     3.0982870996
  105      H       1.9475454565     9.6498159731     3.5478226492
  106      C       4.0189918039     8.9940646524     3.4733495966
  107      H       2.1347105458     7.8906723086     3.5127256838
  108      H       4.1475796606     9.0715714717     4.5599258047
  109      H       4.5420951737     9.8259564223     2.9859442749
  110      H       4.6514814187     8.1202669184     3.2716433570
 ----------------------------------------------------------------

    9   -5663.5188108182      9.47E-06 Convergence criterion met
 Total energy in the final basis set = -5663.5188108182

                    Orbital Energies (a.u.)
 --------------------------------------------------------------

 Alpha MOs
 -- Occupied --
-88.989 -88.988 -88.934 -88.926 -88.923 -88.918 -88.913 -88.904
-14.391 -14.385 -14.385 -14.378 -14.353 -14.345 -14.338 -14.332
-14.330 -14.326 -10.268 -10.267 -10.258 -10.255 -10.255 -10.250
-10.250 -10.249 -10.242 -10.241 -10.238 -10.234 -10.233 -10.233
-10.232 -10.231 -10.229 -10.228 -10.226 -10.226 -10.225 -10.225
-10.225 -10.224 -10.223 -10.223 -10.222 -10.218 -10.212 -10.211
-10.210 -10.207 -10.206 -10.205 -10.205 -10.202 -10.201 -10.200
-10.184 -10.183 -10.182 -10.181 -10.180 -10.179 -10.178 -10.175
-10.172 -10.169 -10.168 -10.166  -8.044  -8.044  -7.995  -7.987
 -7.982  -7.976  -7.973  -7.966  -6.009  -6.009  -6.003  -6.003
 -6.002  -6.002  -5.958  -5.955  -5.952  -5.950  -5.947  -5.946
 -5.944  -5.942  -5.940  -5.938  -5.937  -5.937  -5.933  -5.932
 -5.930  -5.929  -5.927  -5.922  -1.040  -1.024  -0.974  -0.964
 -0.959  -0.958  -0.937  -0.937  -0.919  -0.912  -0.905  -0.894
 -0.847  -0.841  -0.838  -0.833  -0.812  -0.810  -0.807  -0.805
 -0.802  -0.800  -0.797  -0.796  -0.781  -0.781  -0.769  -0.766
 -0.752  -0.746  -0.743  -0.738  -0.721  -0.720  -0.707  -0.706
 -0.692  -0.691  -0.674  -0.673  -0.657  -0.653  -0.648  -0.646
 -0.639  -0.634  -0.627  -0.626  -0.612  -0.608  -0.602  -0.597
 -0.595  -0.593  -0.583  -0.580  -0.580  -0.578  -0.572  -0.564
 -0.546  -0.544  -0.541  -0.535  -0.527  -0.522  -0.521  -0.513
 -0.508  -0.506  -0.501  -0.495  -0.487  -0.483  -0.477  -0.475
 -0.470  -0.470  -0.466  -0.465  -0.464  -0.454  -0.452  -0.448
 -0.442  -0.440  -0.439  -0.438  -0.437  -0.436  -0.435  -0.431
 -0.427  -0.427  -0.425  -0.421  -0.420  -0.417  -0.413  -0.413
 -0.410  -0.410  -0.402  -0.401  -0.400  -0.398  -0.397  -0.394
 -0.393  -0.392  -0.389  -0.389  -0.387  -0.385  -0.381  -0.381
 -0.380  -0.373  -0.370  -0.366  -0.362  -0.361  -0.359  -0.358
 -0.353  -0.348  -0.347  -0.346  -0.344  -0.344  -0.340  -0.340
 -0.339  -0.335  -0.335  -0.334  -0.329  -0.327  -0.326  -0.323
 -0.319  -0.314  -0.309  -0.306  -0.305  -0.302  -0.299  -0.297
 -0.296  -0.292  -0.290  -0.288  -0.285  -0.283  -0.281  -0.281
 -0.277  -0.271  -0.267  -0.265  -0.258  -0.255  -0.248  -0.245
 -0.244  -0.240  -0.232  -0.227  -0.192  -0.189

          Ground-State Mulliken Net Atomic Charges

     Atom                 Charge (a.u.)
  ----------------------------------------
      1 C                     0.268743
      2 C                    -0.123665
      3 N                    -0.487227
      4 C                    -0.084142
      5 C                     0.095971
      6 C                     0.047793
      7 C                     0.077913
      8 C                     0.015127
      9 C                     0.229884
     10 N                    -0.516801
     11 N                    -0.557997
     12 C                     0.222752
     13 C                     0.253890
     14 S                     0.607795
     15 N                    -0.531104
     16 C                    -0.220702
     17 S                     0.338394
     18 C                    -0.125299
     19 C                    -0.217820
     20 S                     0.267215
     21 C                     0.155338
     22 C                     0.052927
     23 C                    -0.305140
     24 C                    -0.088610
     25 N                    -0.436950
     26 S                     0.268071
     27 C                     0.122181
     28 C                    -0.319358
     29 C                    -0.234800
     30 H                     0.095536
     31 H                     0.099407
     32 H                     0.118134
     33 H                     0.111505
     34 H                     0.139349
     35 H                     0.115969
     36 H                     0.131797
     37 H                     0.145694
     38 H                     0.118712
     39 C                    -0.189240
     40 H                     0.123927
     41 H                     0.095053
     42 H                     0.088220
     43 C                    -0.179363
     44 H                     0.098813
     45 C                    -0.166364
     46 H                     0.096553
     47 H                     0.097261
     48 H                     0.093873
     49 C                    -0.173397
     50 H                     0.100289
     51 C                    -0.336057
     52 H                     0.097223
     53 H                     0.104484
     54 H                     0.099229
     55 H                     0.094653
     56 C                     0.282192
     57 C                    -0.109827
     58 N                    -0.483665
     59 C                    -0.096395
     60 C                     0.093668
     61 C                     0.056925
     62 C                     0.019757
     63 C                     0.063059
     64 C                     0.211544
     65 N                    -0.538249
     66 N                    -0.547611
     67 C                     0.217711
     68 C                     0.318599
     69 S                     0.647303
     70 N                    -0.582744
     71 C                    -0.213225
     72 S                     0.353658
     73 C                    -0.155111
     74 C                    -0.244483
     75 S                     0.304249
     76 C                     0.196717
     77 C                     0.040337
     78 C                    -0.304565
     79 C                    -0.106476
     80 N                    -0.430530
     81 S                     0.281758
     82 C                     0.147285
     83 C                    -0.324455
     84 C                    -0.233059
     85 H                     0.101594
     86 H                     0.095604
     87 H                     0.121291
     88 H                     0.108434
     89 H                     0.127070
     90 H                     0.111206
     91 H                     0.114257
     92 H                     0.131808
     93 H                     0.118120
     94 C                    -0.180991
     95 H                     0.083351
     96 H                     0.082189
     97 H                     0.090208
     98 C                    -0.165779
     99 H                     0.083321
    100 C                    -0.169895
    101 H                     0.124610
    102 H                     0.082813
    103 H                     0.092548
    104 C                    -0.173038
    105 H                     0.094711
    106 C                    -0.328436
    107 H                     0.102570
    108 H                     0.090428
    109 H                     0.101605
    110 H                     0.100395
  ----------------------------------------
  Sum of atomic charges =     0.000000

                    Cartesian Multipole Moments
 -----------------------------------------------------------------
    Charge (ESU x 10^10)
                 0.0000
    Dipole Moment (Debye)
         X      -3.2815      Y      -0.2675      Z      -2.2386
       Tot       3.9814
    Quadrupole Moments (Debye-Ang)
        XX    -388.1728     XY      28.6372     YY    -427.6387
        XZ       4.1927     YZ     -10.8428     ZZ    -437.8361

 Total job time:  86.04s(wall), 927.29s(cpu)
        *  Thank you very much for using Q-Chem.  Have a nice day.  *
