 Q-Chem 4.4, Q-Chem, Inc., Pleasanton, CA (2016)
 Q-Chem 4.4.2 for Intel X86 Linux

User input:
--------------------------------------------------------------
$comment
SP
$end

$rem
MEM_STATIC 5000
MEM_TOTAL 20000
JOBTYPE SP
EXCHANGE B3LYP
BASIS 6-31g(d,p)
$end

$molecule
0 1
C          19.448000     20.136000    -10.324000
C          18.311000     19.380000     -9.967000
N          19.440000     21.118000    -11.230000
C          17.020000     19.744000    -10.404000
C          18.210000     21.438000    -11.779000
C          16.976000     20.845000    -11.338000
C          15.638000     21.349000    -11.870000
C          15.697000     22.126000    -13.017000
C          14.414000     21.413000    -11.146000
N          14.699000     22.918000    -13.465000
N          14.244000     20.715000    -10.023000
C          13.340000     22.160000    -11.588000
C          13.491000     22.961000    -12.775000
S          12.692000     21.032000     -9.590000
N          12.206000     22.022000    -10.831000
C          12.399000     23.777000    -13.358000
S          10.882000     24.213000    -12.526000
C          12.462000     24.549000    -14.508000
C          10.475000     25.427000    -13.738000
S          13.773000     24.669000    -15.648000
C          11.450000     25.394000    -14.696000
C           9.338000     26.327000    -13.654000
C          12.887000     25.970000    -16.456000
C          11.673000     26.221000    -15.848000
N           9.237000     27.208000    -14.639000
S           8.059000     26.314000    -12.451000
C           8.119000     28.000000    -14.487000
C           7.358000     27.695000    -13.393000
C          20.809000     19.850000     -9.753000
H          18.306000     18.686000     -9.131000
H          16.096000     19.290000    -10.057000
H          18.155000     22.418000    -12.251000
H          16.627000     22.207000    -13.578000
H          13.278000     26.279000    -17.417000
H          11.039000     27.040000    -16.171000
H           7.931000     28.927000    -15.013000
H           6.465000     28.162000    -12.998000
H          21.534000     20.657000     -9.918000
C          21.517000     18.516000    -10.211000
H          20.681000     19.744000     -8.668000
H          21.530000     17.906000     -9.300000
H          22.531000     18.795000    -10.521000
C          20.794000     17.586000    -11.260000
H          21.328000     16.628000    -11.280000
C          20.733000     18.149000    -12.695000
H          19.840000     17.238000    -10.846000
H          21.731000     18.564000    -12.878000
H          19.956000     18.919000    -12.778000
C          20.498000     17.090000    -13.777000
H          21.354000     16.403000    -13.788000
C          20.309000     17.727000    -15.171000
H          19.621000     16.469000    -13.557000
H          19.330000     18.207000    -15.289000
H          20.484000     16.938000    -15.914000
H          21.046000     18.491000    -15.447000
C           1.271000     13.768000    -15.587000
C           2.139000     14.897000    -15.840000
N           1.654000     12.738000    -14.726000
C           3.317000     15.063000    -15.097000
C           2.820000     12.922000    -14.098000
C           3.694000     14.044000    -14.213000
C           4.903000     14.115000    -13.427000
C           6.037000     13.687000    -14.042000
C           5.152000     14.582000    -12.089000
N           7.288000     13.841000    -13.570000
N           4.127000     14.922000    -11.266000
C           6.417000     14.707000    -11.547000
C           7.530000     14.362000    -12.337000
S           4.875000     15.348000     -9.861000
N           6.412000     15.234000    -10.293000
C           8.901000     14.617000    -11.936000
S           9.411000     15.749000    -10.618000
C          10.098000     14.095000    -12.434000
C          11.093000     15.528000    -10.806000
S          10.260000     12.954000    -13.696000
C          11.230000     14.632000    -11.865000
C          12.135000     16.251000    -10.132000
C          12.013000     12.957000    -13.334000
C          12.362000     13.889000    -12.427000
N          13.373000     16.171000    -10.546000
S          11.812000     17.313000     -8.783000
C          14.141000     17.118000     -9.828000
C          13.419000     17.865000     -8.911000
C          -0.028000     13.589000    -16.366000
H           1.837000     15.605000    -16.605000
H           3.946000     15.919000    -15.324000
H           3.114000     12.059000    -13.502000
H           5.959000     13.334000    -15.069000
H          12.665000     12.388000    -13.985000
H          13.383000     14.110000    -12.137000
H          15.180000     17.262000    -10.096000
H          13.747000     18.724000     -8.341000
H           0.283000     14.014000    -17.329000
C          -1.261000     14.285000    -15.805000
H          -0.221000     12.517000    -16.491000
H          -1.088000     14.439000    -14.732000
H          -2.172000     13.675000    -15.823000
C          -1.622000     15.578000    -16.488000
H          -0.846000     16.242000    -16.089000
C          -3.055000     16.051000    -16.056000
H          -1.608000     15.437000    -17.576000
H          -3.254000     16.014000    -14.978000
H          -3.754000     15.264000    -16.365000
C          -3.668000     17.310000    -16.722000
H          -4.718000     17.408000    -16.418000
C          -3.539000     17.321000    -18.201000
H          -3.180000     18.257000    -16.462000
H          -2.574000     16.998000    -18.611000
H          -3.675000     18.327000    -18.617000
H          -4.296000     16.715000    -18.714000
$end

--------------------------------------------------------------

             Standard Nuclear Orientation (Angstroms)
    I     Atom           X                Y                Z
 ----------------------------------------------------------------
    1      C       9.2997777258     2.1868532032    -0.3101057212
    2      C       8.0454623888     2.6156113037    -0.7944749262
    3      N       9.4894355062     1.0608631652     0.3837244889
    4      C       6.9143760137     1.7736506047    -0.7509801757
    5      C       8.3800205337     0.2508907703     0.5564790503
    6      C       7.1085225038     0.5203235199    -0.0596254484
    7      C       5.9680349356    -0.4880533284     0.0391077200
    8      C       6.1060304552    -1.4638141127     1.0146419984
    9      C       4.9866763485    -0.7499093878    -0.9582962742
   10      N       5.3946268002    -2.6106821714     1.0653420524
   11      N       4.7706590521     0.1129541870    -1.9512897177
   12      C       4.1904012543    -1.8775660959    -0.9238677541
   13      C       4.4148156857    -2.8565880843     0.1078905069
   14      S       3.5287870921    -0.5542562119    -2.7934692227
   15      N       3.2255528657    -1.9178517125    -1.8962327350
   16      C       3.6028599087    -4.0876751947     0.2607346850
   17      S       2.5023835287    -4.7558358031    -0.9746284755
   18      C       3.7422536252    -5.0583340786     1.2409610481
   19      C       2.3562609189    -6.2935958022    -0.1247276764
   20      S       4.7992279546    -5.0401570020     2.6248670640
   21      C       3.0804192342    -6.1947008141     1.0308209014
   22      C       1.6446486538    -7.4528255419    -0.6342562770
   23      C       4.3113165949    -6.7078177587     2.9585002546
   24      C       3.3861515813    -7.1667025949     2.0420094447
   25      N       1.6996452641    -8.5342090036     0.1300552966
   26      S       0.6656912769    -7.5439681311    -2.0890945782
   27      C       0.9785299153    -9.5717096344    -0.4211951862
   28      C       0.3538519820    -9.2604333556    -1.5967233899
   29      C      10.5454268766     3.0116361509    -0.4781809489
   30      H       7.9344560859     3.4558901554    -1.4743028839
   31      H       5.9615701830     1.9886592797    -1.2266200802
   32      H       8.5985410614    -0.7817971395     0.8248322873
   33      H       6.8959076753    -1.3866004920     1.7605066202
   34      H       4.6194881548    -7.1051325049     3.9171734430
   35      H       3.0400264223    -8.1948258554     2.0563599012
   36      H       1.0468579409   -10.6101945234    -0.1241608171
   37      H      -0.2351015266    -9.8701428046    -2.2697398479
   38      H      11.4712126720     2.4550422984    -0.2852484623
   39      C      10.6455907180     4.3449827821     0.3601137285
   40      H      10.5720360977     3.3344148901    -1.5269663582
   41      H      10.5935667998     5.1320111254    -0.4015094715
   42      H      11.6251726237     4.3277186205     0.8523110861
   43      C       9.4743156864     4.7185278598     1.3483489611
   44      H       9.6215594058     5.7594798763     1.6614913992
   45      C       9.3776108206     3.8317255085     2.6069770868
   46      H       8.5428299448     4.8432195151     0.7831920764
   47      H      10.4121111547     3.7155933186     2.9505471279
   48      H       8.9228301783     2.8628704735     2.3661192687
   49      C       8.6037009078     4.4672090101     3.7665693281
   50      H       9.1448559142     5.3613711413     4.1019069820
   51      C       8.4224670986     3.4827090277     4.9424265010
   52      H       7.6134663898     4.8191875057     3.4523771290
   53      H       7.6730088708     2.7089980180     4.7363958279
   54      H       8.1783830995     4.0802819889     5.8304155535
   55      H       9.3253892095     2.9422173710     5.2516859888
   56      C     -10.5606972432     1.1077031340     1.4365743112
   57      C      -9.4037459153     0.2781950606     1.6924140675
   58      N     -10.4301273544     2.3832086242     0.8843540211
   59      C      -8.1368995886     0.6729704700     1.2379454098
   60      C      -9.1872073837     2.7296207474     0.5337194718
   61      C      -8.0040802932     1.9421286646     0.6604140153
   62      C      -6.7352757094     2.4443069467     0.1887468647
   63      C      -5.9477495539     3.0392456427     1.1232068705
   64      C      -6.1159332453     2.4195654898    -1.1097664285
   65      N      -4.6634935844     3.4014835412     0.9472201956
   66      N      -6.7996136982     1.9901346539    -2.2014276377
   67      C      -4.8173684908     2.8298960882    -1.3442283194
   68      C      -4.0490091517     3.2993035046    -0.2620201123
   69      S      -5.7247460159     2.1743426193    -3.4366328396
   70      N      -4.4243596376     2.6506558645    -2.6340682255
   71      C      -2.6304227528     3.5886616331    -0.3587232778
   72      S      -1.5381102647     3.0291604930    -1.6900609144
   73      C      -1.7987455850     4.3181020585     0.4954001058
   74      C      -0.1014881423     3.7084091376    -1.0671266030
   75      S      -2.2669230350     5.1081750270     1.9367063119
   76      C      -0.4715407939     4.3152597945     0.1319811133
   77      C       1.2266665586     3.5324175487    -1.5846215799
   78      C      -0.5931611189     5.7380914185     2.0127877664
   79      C       0.2110942645     5.2119021370     1.0697224885
   80      N       2.2672076840     3.8890722869    -0.8771531608
   81      S       1.5333135617     2.7861957936    -3.1341681934
   82      C       3.4303870552     3.4329944421    -1.5413547491
   83      C       3.1857332125     2.7467108934    -2.7200580146
   84      C     -11.9494675879     0.6785089380     1.8985183249
   85      H      -9.5581592797    -0.6529014598     2.2280527356
   86      H      -7.2923768769     0.0264094371     1.4585042910
   87      H      -9.1235782233     3.7593253862     0.1843190041
   88      H      -6.3171736242     3.0883463099     2.1462107711
   89      H      -0.3050055371     6.3041269828     2.8898488250
   90      H       1.2771364939     5.3967133708     1.0005793549
   91      H       4.3920273838     3.5577718928    -1.0599407213
   92      H       3.8882127171     2.1987112368    -3.3337223544
   93      H     -11.6739729903     0.1493070465     2.8198017149
   94      C     -12.7418477662    -0.2065564807     0.9455131530
   95      H     -12.5288633831     1.5728338577     2.1564746206
   96      H     -12.3480691928    -0.0321136248    -0.0641809220
   97      H     -13.7993565798     0.0666021550     0.8485365124
   98      C     -12.7288702526    -1.6733381468     1.2876273562
   99      H     -11.7124082278    -1.9449094687     0.9788766973
  100      C     -13.8060452786    -2.4471584391     0.4481405376
  101      H     -12.9485881602    -1.8053355858     2.3544552323
  102      H     -13.8213780191    -2.2115183834    -0.6229769495
  103      H     -14.7803168105    -2.0166963991     0.7107208382
  104      C     -14.0340267984    -3.9567842118     0.7191764266
  105      H     -14.9137447107    -4.2984912849     0.1589508729
  106      C     -14.1595601368    -4.2882623294     2.1608999225
  107      H     -13.2051407037    -4.6117074269     0.4249377066
  108      H     -13.4557413477    -3.7921511346     2.8407284263
  109      H     -13.9968913459    -5.3562964698     2.3517662091
  110      H     -15.1570598150    -4.0919318944     2.5730925378
 ----------------------------------------------------------------

   10   -5663.5095688373      4.83E-06 Convergence criterion met
 Total energy in the final basis set = -5663.5095688373

                    Orbital Energies (a.u.)
 --------------------------------------------------------------

 Alpha MOs
 -- Occupied --
-88.992 -88.988 -88.932 -88.931 -88.927 -88.924 -88.905 -88.904
-14.399 -14.390 -14.386 -14.380 -14.352 -14.351 -14.347 -14.346
-14.336 -14.335 -10.278 -10.275 -10.272 -10.265 -10.262 -10.259
-10.255 -10.253 -10.247 -10.246 -10.244 -10.244 -10.239 -10.238
-10.237 -10.236 -10.236 -10.235 -10.233 -10.232 -10.230 -10.227
-10.226 -10.226 -10.225 -10.223 -10.220 -10.217 -10.216 -10.215
-10.215 -10.213 -10.209 -10.205 -10.205 -10.203 -10.193 -10.192
-10.187 -10.185 -10.183 -10.182 -10.181 -10.179 -10.178 -10.177
-10.174 -10.169 -10.168 -10.168  -8.047  -8.044  -7.993  -7.992
 -7.986  -7.984  -7.965  -7.964  -6.012  -6.009  -6.007  -6.005
 -6.003  -6.002  -5.957  -5.956  -5.953  -5.953  -5.950  -5.950
 -5.949  -5.948  -5.947  -5.944  -5.943  -5.941  -5.930  -5.928
 -5.926  -5.925  -5.922  -5.920  -1.042  -1.041  -0.975  -0.971
 -0.956  -0.949  -0.935  -0.930  -0.921  -0.917  -0.911  -0.903
 -0.849  -0.846  -0.836  -0.829  -0.820  -0.812  -0.811  -0.809
 -0.801  -0.799  -0.797  -0.796  -0.786  -0.781  -0.773  -0.768
 -0.753  -0.749  -0.742  -0.736  -0.729  -0.724  -0.715  -0.708
 -0.695  -0.693  -0.677  -0.674  -0.658  -0.656  -0.648  -0.641
 -0.639  -0.638  -0.628  -0.625  -0.616  -0.613  -0.600  -0.599
 -0.596  -0.591  -0.585  -0.581  -0.578  -0.576  -0.566  -0.561
 -0.557  -0.553  -0.545  -0.538  -0.528  -0.525  -0.516  -0.512
 -0.506  -0.503  -0.502  -0.498  -0.492  -0.488  -0.480  -0.479
 -0.477  -0.475  -0.471  -0.468  -0.464  -0.458  -0.451  -0.450
 -0.446  -0.444  -0.443  -0.442  -0.441  -0.439  -0.435  -0.434
 -0.433  -0.430  -0.427  -0.422  -0.421  -0.417  -0.416  -0.414
 -0.412  -0.407  -0.406  -0.402  -0.401  -0.399  -0.397  -0.395
 -0.394  -0.393  -0.392  -0.390  -0.388  -0.388  -0.388  -0.382
 -0.380  -0.379  -0.375  -0.370  -0.368  -0.361  -0.358  -0.354
 -0.352  -0.351  -0.351  -0.349  -0.345  -0.344  -0.341  -0.340
 -0.339  -0.338  -0.335  -0.333  -0.329  -0.328  -0.323  -0.320
 -0.315  -0.314  -0.313  -0.311  -0.307  -0.304  -0.303  -0.298
 -0.296  -0.296  -0.295  -0.292  -0.290  -0.287  -0.287  -0.283
 -0.273  -0.271  -0.269  -0.265  -0.259  -0.255  -0.254  -0.251
 -0.250  -0.245  -0.242  -0.234  -0.199  -0.196

          Ground-State Mulliken Net Atomic Charges

     Atom                 Charge (a.u.)
  ----------------------------------------
      1 C                     0.285997
      2 C                    -0.116137
      3 N                    -0.477151
      4 C                    -0.080448
      5 C                     0.046745
      6 C                     0.036854
      7 C                     0.042821
      8 C                     0.049153
      9 C                     0.240834
     10 N                    -0.529439
     11 N                    -0.570077
     12 C                     0.220066
     13 C                     0.296830
     14 S                     0.597043
     15 N                    -0.562463
     16 C                    -0.231994
     17 S                     0.313989
     18 C                    -0.117751
     19 C                    -0.249929
     20 S                     0.284078
     21 C                     0.190802
     22 C                     0.081401
     23 C                    -0.315036
     24 C                    -0.052372
     25 N                    -0.450437
     26 S                     0.257042
     27 C                     0.141464
     28 C                    -0.305451
     29 C                    -0.236902
     30 H                     0.089626
     31 H                     0.127260
     32 H                     0.113104
     33 H                     0.117962
     34 H                     0.131475
     35 H                     0.127646
     36 H                     0.123365
     37 H                     0.134110
     38 H                     0.120534
     39 C                    -0.180507
     40 H                     0.100254
     41 H                     0.090605
     42 H                     0.101643
     43 C                    -0.190069
     44 H                     0.086710
     45 C                    -0.154580
     46 H                     0.087339
     47 H                     0.091697
     48 H                     0.105580
     49 C                    -0.179814
     50 H                     0.089320
     51 C                    -0.321308
     52 H                     0.091949
     53 H                     0.105923
     54 H                     0.096531
     55 H                     0.101582
     56 C                     0.242488
     57 C                    -0.118362
     58 N                    -0.463603
     59 C                    -0.052207
     60 C                     0.098900
     61 C                     0.002616
     62 C                     0.021717
     63 C                     0.072044
     64 C                     0.209665
     65 N                    -0.528229
     66 N                    -0.545115
     67 C                     0.201891
     68 C                     0.311032
     69 S                     0.604171
     70 N                    -0.552388
     71 C                    -0.224647
     72 S                     0.318627
     73 C                    -0.105406
     74 C                    -0.219141
     75 S                     0.275646
     76 C                     0.132947
     77 C                     0.091164
     78 C                    -0.303321
     79 C                    -0.053968
     80 N                    -0.443988
     81 S                     0.275041
     82 C                     0.113245
     83 C                    -0.304803
     84 C                    -0.231984
     85 H                     0.093853
     86 H                     0.105585
     87 H                     0.101207
     88 H                     0.112794
     89 H                     0.124817
     90 H                     0.121875
     91 H                     0.114044
     92 H                     0.141920
     93 H                     0.100493
     94 C                    -0.179271
     95 H                     0.122688
     96 H                     0.108905
     97 H                     0.094817
     98 C                    -0.169691
     99 H                     0.097801
    100 C                    -0.188335
    101 H                     0.099127
    102 H                     0.091774
    103 H                     0.091661
    104 C                    -0.172353
    105 H                     0.094203
    106 C                    -0.319185
    107 H                     0.092605
    108 H                     0.103574
    109 H                     0.096233
    110 H                     0.097358
  ----------------------------------------
  Sum of atomic charges =     0.000000

                    Cartesian Multipole Moments
 -----------------------------------------------------------------
    Charge (ESU x 10^10)
                 0.0000
    Dipole Moment (Debye)
         X      -0.2560      Y      -3.0945      Z      -2.4044
       Tot       3.9271
    Quadrupole Moments (Debye-Ang)
        XX    -460.3047     XY      36.2503     YY    -414.0306
        XZ     -12.5712     YZ       1.8158     ZZ    -430.6155

 Total job time:  93.10s(wall), 1008.48s(cpu)
        *  Thank you very much for using Q-Chem.  Have a nice day.  *
