 Q-Chem 4.4, Q-Chem, Inc., Pleasanton, CA (2016)
 Q-Chem 4.4.2 for Intel X86 Linux

User input:
--------------------------------------------------------------
$comment
SP
$end

$rem
MEM_STATIC 5000
MEM_TOTAL 20000
JOBTYPE SP
EXCHANGE B3LYP
BASIS 6-31g(d,p)
$end

$molecule
0 1
C         -14.422000     -6.323000     -9.688000
C         -13.412000     -6.803000     -8.898000
N         -14.968000     -7.154000    -10.632000
C         -13.014000     -8.168000     -9.015000
C         -14.680000     -8.449000    -10.680000
C         -13.644000     -9.030000     -9.950000
C         -13.358000    -10.460000    -10.003000
C         -13.216000    -11.162000    -11.201000
C         -13.203000    -11.253000     -8.841000
N         -12.935000    -12.439000    -11.338000
N         -13.317000    -10.754000     -7.585000
C         -12.911000    -12.596000     -8.946000
C         -12.809000    -13.241000    -10.280000
S         -12.936000    -12.059000     -6.595000
N         -12.632000    -13.167000     -7.726000
C         -12.445000    -14.633000    -10.433000
S         -12.739000    -15.889000     -9.144000
C         -11.988000    -15.240000    -11.600000
C         -11.845000    -17.020000    -10.201000
S         -11.341000    -14.452000    -13.027000
C         -11.705000    -16.572000    -11.474000
C         -11.415000    -18.243000     -9.801000
C         -10.850000    -16.103000    -13.621000
C         -11.062000    -17.094000    -12.698000
N         -11.147000    -19.253000    -10.642000
S         -11.316000    -18.659000     -8.069000
C         -10.609000    -20.353000     -9.951000
C         -10.524000    -20.147000     -8.574000
C         -14.858000     -4.829000     -9.735000
H         -12.743000     -6.231000     -8.263000
H         -12.202000     -8.531000     -8.391000
H         -15.243000     -8.960000    -11.459000
H         -13.323000    -10.612000    -12.135000
H         -10.229000    -16.235000    -14.497000
H         -10.801000    -18.127000    -12.896000
H         -10.326000    -21.201000    -10.561000
H         -10.145000    -20.808000     -7.806000
H         -13.988000     -4.244000    -10.058000
C         -15.489000     -4.266000     -8.396000
H         -15.626000     -4.678000    -10.503000
H         -15.418000     -5.045000     -7.627000
H         -16.581000     -4.210000     -8.485000
C         -14.780000     -3.080000     -7.821000
H         -13.705000     -3.297000     -7.842000
C         -15.152000     -2.780000     -6.321000
H         -14.950000     -2.194000     -8.446000
H         -15.381000     -3.608000     -5.639000
H         -16.070000     -2.182000     -6.374000
C         -14.043000     -1.983000     -5.624000
H         -13.111000     -2.561000     -5.661000
C         -14.506000     -1.639000     -4.171000
H         -13.843000     -1.070000     -6.199000
H         -14.816000     -2.518000     -3.592000
H         -15.379000     -0.977000     -4.114000
H         -13.687000     -1.160000     -3.621000
C          -7.523000    -19.074000     -6.136000
C          -7.191000    -17.930000     -5.412000
N          -8.624000    -19.853000     -5.964000
C          -8.131000    -17.585000     -4.434000
C          -9.495000    -19.473000     -4.994000
C          -9.242000    -18.377000     -4.176000
C         -10.038000    -18.111000     -2.950000
C          -9.434000    -17.608000     -1.768000
C         -11.403000    -18.338000     -2.866000
N         -10.059000    -17.377000     -0.605000
N         -12.195000    -18.818000     -3.928000
C         -12.062000    -18.123000     -1.639000
C         -11.380000    -17.669000     -0.501000
S         -13.681000    -18.924000     -3.275000
N         -13.397000    -18.412000     -1.725000
C         -12.014000    -17.513000      0.835000
S         -13.626000    -18.049000      1.293000
C         -11.486000    -16.916000      1.969000
C         -13.404000    -17.611000      2.995000
S          -9.981000    -16.067000      2.038000
C         -12.178000    -17.028000      3.175000
C         -14.408000    -17.628000      4.006000
C         -10.272000    -15.830000      3.745000
C         -11.509000    -16.359000      4.197000
N         -15.590000    -18.161000      3.608000
S         -14.254000    -17.470000      5.748000
C         -16.440000    -18.257000      4.620000
C         -15.936000    -17.903000      5.822000
C          -6.670000    -19.506000     -7.306000
H          -6.278000    -17.403000     -5.669000
H          -7.871000    -16.779000     -3.754000
H         -10.315000    -20.171000     -4.834000
H          -8.368000    -17.385000     -1.777000
H          -9.579000    -15.253000      4.344000
H         -11.922000    -16.149000      5.177000
H         -17.451000    -18.575000      4.401000
H         -16.389000    -17.962000      6.803000
H          -7.303000    -19.678000     -8.186000
C          -5.837000    -20.798000     -6.999000
H          -5.976000    -18.722000     -7.634000
H          -5.298000    -20.610000     -6.062000
H          -5.035000    -20.781000     -7.748000
C          -6.637000    -22.094000     -7.038000
H          -6.039000    -22.919000     -6.630000
C          -6.913000    -22.470000     -8.524000
H          -7.571000    -22.075000     -6.463000
H          -6.015000    -22.452000     -9.154000
H          -7.440000    -21.678000     -9.070000
C          -7.688000    -23.802000     -8.671000
H          -7.230000    -24.666000     -8.173000
C          -7.769000    -24.080000    -10.196000
H          -8.698000    -23.682000     -8.260000
H          -8.288000    -25.025000    -10.398000
H          -6.812000    -24.070000    -10.732000
H          -8.406000    -23.391000    -10.765000
$end

--------------------------------------------------------------

             Standard Nuclear Orientation (Angstroms)
    I     Atom           X                Y                Z
 ----------------------------------------------------------------
    1      C      -9.7976118151     2.8339250848     0.0459479354
    2      C      -8.7720087202     2.7894448811    -0.8600100124
    3      N      -9.8783608403     1.8473069136     0.9945664990
    4      C      -7.7729996452     1.7775626316    -0.7442811002
    5      C      -8.9032253568     0.9650935069     1.1764546344
    6      C      -7.8376757846     0.8089888215     0.2910211607
    7      C      -6.7657733551    -0.1540355175     0.5214865685
    8      C      -7.0027830346    -1.4937103290     0.8333676535
    9      C      -5.3958002439     0.1938854831     0.4490804108
   10      N      -6.1000708792    -2.4289017792     1.0308181942
   11      N      -4.9658657212     1.4496770314     0.1703746635
   12      C      -4.4215124985    -0.7595234216     0.6533176492
   13      C      -4.7955864659    -2.1529464027     1.0060584360
   14      S      -3.2929140425     1.2966229440     0.0923161800
   15      N      -3.1598055041    -0.2839627381     0.3808850950
   16      C      -3.8051553849    -3.1951601142     1.1685572149
   17      S      -2.0769297921    -2.8638247336     1.6470404078
   18      C      -4.0444658729    -4.5668844578     1.1515332471
   19      C      -1.7884169047    -4.6084750090     1.3851210873
   20      S      -5.4608687657    -5.3929374821     0.5291818619
   21      C      -2.9292479646    -5.3400569272     1.3208918886
   22      C      -0.5532647490    -5.1674773495     1.3346776992
   23      C      -4.5458373672    -6.9546698335     0.7375747657
   24      C      -3.2404540745    -6.7697128789     1.1127005901
   25      N      -0.3095721300    -6.4646623530     1.5736964727
   26      S       0.8992899135    -4.1613954510     1.0885777881
   27      C       1.0402278594    -6.7752737794     1.3318586541
   28      C       1.7971288224    -5.6682317580     0.9479981390
   29      C     -11.0051287728     3.8121636126    -0.0504532036
   30      H      -8.6812818896     3.3555156110    -1.7815861465
   31      H      -6.9727245154     1.7467753666    -1.4785159815
   32      H      -9.1169033085     0.2908111553     2.0038699130
   33      H      -8.0363070086    -1.8298677811     0.9050011832
   34      H      -4.9235475727    -7.8946232139     0.3577542246
   35      H      -2.5618697211    -7.6023937056     1.2561576083
   36      H       1.3162955222    -7.8135485578     1.4624922263
   37      H       2.8465492610    -5.6135080823     0.6908832573
   38      H     -11.5174334545     3.6075353174    -0.9986753158
   39      C     -10.6476463423     5.3462823668     0.1130611987
   40      H     -11.7349351516     3.5989832501     0.7397276507
   41      H      -9.5569172017     5.4410157986     0.1807259509
   42      H     -10.9140131853     5.6931373039     1.1191731993
   43      C     -11.0462098224     6.2079645631    -1.0438972902
   44      H     -10.7344439721     5.6929188422    -1.9607860293
   45      C     -10.3488360405     7.6192949029    -1.0580563933
   46      H     -12.1377733114     6.3158365129    -1.0809619895
   47      H      -9.3241815439     7.7259698631    -0.6814231293
   48      H     -10.9679824616     8.2445523313    -0.4031916306
   49      C     -10.3177392324     8.2076212842    -2.4736142542
   50      H      -9.7699467824     7.5224845640    -3.1328472226
   51      C      -9.6975801541     9.6412661397    -2.4105337824
   52      H     -11.3402903912     8.2391373260    -2.8705901560
   53      H      -8.7144908065     9.6706194952    -1.9240610544
   54      H     -10.2857607652    10.3690523422    -1.8378272152
   55      H      -9.5702005350    10.0386507152    -3.4247142061
   56      C       3.0461907217    -4.2928579459    -2.6085964751
   57      C       2.7183275741    -3.2139212105    -3.4280702559
   58      N       3.5690285371    -4.2312081685    -1.3550152357
   59      C       2.9554675522    -1.9646825010    -2.8430264307
   60      C       3.7854835104    -2.9917442235    -0.8443124123
   61      C       3.5424622441    -1.8434689627    -1.5904716376
   62      C       4.0218593538    -0.5065946885    -1.1541305024
   63      C       4.5102694409     0.4467036749    -2.0855953795
   64      C       4.0368168880    -0.0998772108     0.1710740725
   65      N       5.0007533458     1.6572700979    -1.7847474533
   66      N       3.5807732663    -0.8857268900     1.2480942658
   67      C       4.5756905075     1.1606205984     0.4978698729
   68      C       5.0837659664     2.0259811230    -0.4815659292
   69      S       3.8579885446     0.0534997007     2.5468806612
   70      N       4.5305643419     1.3954842423     1.8454397962
   71      C       5.7413108869     3.3243400680    -0.1764647533
   72      S       6.1918231161     3.9154623185     1.4182820028
   73      C       6.1169865800     4.3228079288    -1.0613820967
   74      C       7.0089425499     5.3487531265     0.7733593016
   75      S       5.7608193778     4.3389359199    -2.7535617007
   76      C       6.8801608306     5.3908000280    -0.5893630938
   77      C       7.5268372185     6.4360290371     1.5349643216
   78      C       6.6522294328     5.8387599842    -2.8565902892
   79      C       7.1509013159     6.2988604025    -1.6100157996
   80      N       7.4831684911     6.2463235849     2.8772466629
   81      S       8.5677195511     7.7611881726     1.0412425019
   82      C       8.0839450182     7.2351628685     3.5230983762
   83      C       8.6808455838     8.1521972867     2.7313322550
   84      C       2.7353467975    -5.7038692049    -3.0508139351
   85      H       2.2986886312    -3.4181685458    -4.4076279028
   86      H       2.8391410805    -1.0880092798    -3.4735406773
   87      H       4.2832211723    -2.9901570721     0.1239120972
   88      H       4.5014779945     0.1972712544    -3.1457237576
   89      H       6.7194542918     6.3727407102    -3.7959115348
   90      H       7.5701577979     7.2881998770    -1.4668361692
   91      H       8.0232130221     7.2421376629     4.6035931596
   92      H       9.2945605069     9.0011623995     3.0027419645
   93      H       2.1932456384    -6.2330376411    -2.2565972773
   94      C       4.0227424547    -6.5117640957    -3.4346371590
   95      H       2.0450128814    -5.7361889431    -3.9030290011
   96      H       4.5757282478    -5.8984952822    -4.1570927458
   97      H       3.6446719753    -7.3350013924    -4.0541830137
   98      C       4.8383231877    -7.0089253757    -2.2477101480
   99      H       5.8085576385    -7.3911325056    -2.5901365202
  100      C       4.1075877877    -8.2279981750    -1.6108151132
  101      H       5.0561316056    -6.2475851409    -1.4885905659
  102      H       3.8209551928    -8.9961301415    -2.3398165108
  103      H       3.0828246086    -7.9915558223    -1.2992634473
  104      C       4.8833869696    -8.8344537187    -0.4163255558
  105      H       5.9198529591    -9.1238440942    -0.6313963888
  106      C       4.0841947650   -10.0937940013     0.0135859151
  107      H       4.9076931817    -8.1096596003     0.4067805698
  108      H       4.5756508093   -10.6070182274     0.8492065529
  109      H       3.8737523247   -10.8176007789    -0.7833223155
  110      H       3.1041971310    -9.8954055761     0.4658001012
 ----------------------------------------------------------------

   10   -5663.5302186815      6.97E-06 Convergence criterion met
 Total energy in the final basis set = -5663.5302186815

                    Orbital Energies (a.u.)
 --------------------------------------------------------------

 Alpha MOs
 -- Occupied --
-88.994 -88.982 -88.934 -88.924 -88.923 -88.915 -88.914 -88.907
-14.391 -14.390 -14.383 -14.375 -14.356 -14.340 -14.339 -14.339
-14.337 -14.319 -10.270 -10.269 -10.262 -10.260 -10.260 -10.255
-10.253 -10.246 -10.245 -10.243 -10.240 -10.240 -10.233 -10.233
-10.232 -10.232 -10.229 -10.229 -10.229 -10.228 -10.228 -10.227
-10.226 -10.225 -10.225 -10.224 -10.218 -10.218 -10.217 -10.212
-10.208 -10.207 -10.207 -10.206 -10.206 -10.206 -10.200 -10.193
-10.185 -10.184 -10.183 -10.182 -10.180 -10.179 -10.177 -10.176
-10.174 -10.174 -10.174 -10.172  -8.049  -8.038  -7.995  -7.982
 -7.982  -7.976  -7.974  -7.966  -6.014  -6.008  -6.007  -6.003
 -5.997  -5.995  -5.959  -5.956  -5.952  -5.947  -5.946  -5.944
 -5.942  -5.939  -5.939  -5.938  -5.938  -5.936  -5.935  -5.933
 -5.931  -5.931  -5.928  -5.922  -1.029  -1.025  -0.975  -0.963
 -0.960  -0.951  -0.945  -0.930  -0.920  -0.909  -0.899  -0.892
 -0.848  -0.843  -0.837  -0.826  -0.813  -0.811  -0.806  -0.805
 -0.805  -0.802  -0.790  -0.788  -0.787  -0.781  -0.770  -0.763
 -0.754  -0.747  -0.747  -0.733  -0.727  -0.722  -0.710  -0.706
 -0.696  -0.689  -0.677  -0.669  -0.658  -0.652  -0.651  -0.638
 -0.636  -0.634  -0.632  -0.616  -0.615  -0.610  -0.603  -0.597
 -0.593  -0.588  -0.585  -0.583  -0.580  -0.577  -0.576  -0.570
 -0.547  -0.546  -0.544  -0.535  -0.530  -0.523  -0.518  -0.513
 -0.504  -0.501  -0.498  -0.492  -0.489  -0.483  -0.481  -0.475
 -0.472  -0.470  -0.467  -0.463  -0.461  -0.459  -0.455  -0.447
 -0.445  -0.438  -0.437  -0.436  -0.434  -0.432  -0.431  -0.429
 -0.427  -0.425  -0.424  -0.423  -0.420  -0.416  -0.415  -0.415
 -0.412  -0.406  -0.404  -0.400  -0.399  -0.399  -0.397  -0.393
 -0.393  -0.392  -0.391  -0.389  -0.387  -0.384  -0.383  -0.382
 -0.379  -0.377  -0.373  -0.370  -0.363  -0.362  -0.358  -0.353
 -0.353  -0.351  -0.351  -0.349  -0.349  -0.346  -0.346  -0.345
 -0.341  -0.337  -0.335  -0.332  -0.329  -0.329  -0.328  -0.324
 -0.314  -0.312  -0.311  -0.308  -0.307  -0.303  -0.298  -0.297
 -0.296  -0.294  -0.292  -0.292  -0.285  -0.281  -0.281  -0.274
 -0.273  -0.270  -0.265  -0.264  -0.263  -0.258  -0.248  -0.246
 -0.244  -0.240  -0.236  -0.232  -0.194  -0.188

          Ground-State Mulliken Net Atomic Charges

     Atom                 Charge (a.u.)
  ----------------------------------------
      1 C                     0.254028
      2 C                    -0.113507
      3 N                    -0.467785
      4 C                    -0.061175
      5 C                     0.071704
      6 C                     0.032908
      7 C                     0.034323
      8 C                     0.053291
      9 C                     0.246119
     10 N                    -0.521160
     11 N                    -0.576739
     12 C                     0.169480
     13 C                     0.305681
     14 S                     0.590090
     15 N                    -0.541332
     16 C                    -0.194003
     17 S                     0.308662
     18 C                    -0.117353
     19 C                    -0.196433
     20 S                     0.273141
     21 C                     0.159754
     22 C                     0.045414
     23 C                    -0.300110
     24 C                    -0.046028
     25 N                    -0.456430
     26 S                     0.259761
     27 C                     0.110181
     28 C                    -0.302969
     29 C                    -0.235525
     30 H                     0.089689
     31 H                     0.104543
     32 H                     0.100382
     33 H                     0.108236
     34 H                     0.128313
     35 H                     0.132803
     36 H                     0.118674
     37 H                     0.155403
     38 H                     0.109799
     39 C                    -0.186737
     40 H                     0.120194
     41 H                     0.101441
     42 H                     0.101000
     43 C                    -0.181307
     44 H                     0.090323
     45 C                    -0.172911
     46 H                     0.096497
     47 H                     0.092334
     48 H                     0.093664
     49 C                    -0.175573
     50 H                     0.093711
     51 C                    -0.326122
     52 H                     0.094763
     53 H                     0.101658
     54 H                     0.105863
     55 H                     0.098033
     56 C                     0.292900
     57 C                    -0.109120
     58 N                    -0.495983
     59 C                    -0.093767
     60 C                     0.092234
     61 C                     0.059892
     62 C                     0.017140
     63 C                     0.063987
     64 C                     0.210141
     65 N                    -0.537644
     66 N                    -0.551220
     67 C                     0.216746
     68 C                     0.319336
     69 S                     0.625144
     70 N                    -0.571805
     71 C                    -0.207879
     72 S                     0.363698
     73 C                    -0.154534
     74 C                    -0.245163
     75 S                     0.303221
     76 C                     0.195639
     77 C                     0.041551
     78 C                    -0.303961
     79 C                    -0.106520
     80 N                    -0.427255
     81 S                     0.282531
     82 C                     0.149185
     83 C                    -0.323333
     84 C                    -0.242261
     85 H                     0.105556
     86 H                     0.097679
     87 H                     0.120978
     88 H                     0.109171
     89 H                     0.126940
     90 H                     0.111964
     91 H                     0.115408
     92 H                     0.132441
     93 H                     0.125438
     94 C                    -0.181559
     95 H                     0.087022
     96 H                     0.083383
     97 H                     0.092641
     98 C                    -0.165578
     99 H                     0.085849
    100 C                    -0.174589
    101 H                     0.118514
    102 H                     0.086001
    103 H                     0.093596
    104 C                    -0.174326
    105 H                     0.097960
    106 C                    -0.331169
    107 H                     0.097383
    108 H                     0.093425
    109 H                     0.105443
    110 H                     0.098870
  ----------------------------------------
  Sum of atomic charges =     0.000000

                    Cartesian Multipole Moments
 -----------------------------------------------------------------
    Charge (ESU x 10^10)
                 0.0000
    Dipole Moment (Debye)
         X       4.3069      Y       2.4600      Z      -3.8326
       Tot       6.2681
    Quadrupole Moments (Debye-Ang)
        XX    -449.4885     XY      14.3081     YY    -402.8233
        XZ      16.5074     YZ       6.9848     ZZ    -431.7370

 Total job time:  98.04s(wall), 1063.50s(cpu)
        *  Thank you very much for using Q-Chem.  Have a nice day.  *
