 Q-Chem 4.4, Q-Chem, Inc., Pleasanton, CA (2016)
 Q-Chem 4.4.2 for Intel X86 Linux

User input:
--------------------------------------------------------------
$comment
SP
$end

$rem
MEM_STATIC 5000
MEM_TOTAL 20000
JOBTYPE SP
EXCHANGE B3LYP
BASIS 6-31g(d,p)
$end

$molecule
0 1
C          -9.140000    -15.171000     -6.285000
C          -8.504000    -14.271000     -5.417000
N         -10.400000    -15.603000     -6.088000
C          -9.174000    -13.898000     -4.257000
C         -11.018000    -15.238000     -4.990000
C         -10.449000    -14.439000     -3.964000
C         -11.166000    -14.062000     -2.702000
C         -10.454000    -13.907000     -1.436000
C         -12.541000    -13.732000     -2.651000
N         -11.043000    -13.654000     -0.209000
N         -13.276000    -13.451000     -3.722000
C         -13.113000    -13.287000     -1.382000
C         -12.375000    -13.328000     -0.221000
S         -14.686000    -12.972000     -3.048000
N         -14.390000    -12.897000     -1.435000
C         -13.040000    -13.204000      1.073000
S         -14.621000    -13.804000      1.376000
C         -12.344000    -12.885000      2.189000
C         -14.250000    -13.761000      3.138000
S         -10.780000    -12.099000      2.394000
C         -13.054000    -13.219000      3.369000
C         -15.250000    -14.133000      4.178000
C         -10.988000    -12.374000      4.167000
C         -12.218000    -12.913000      4.486000
N         -14.938000    -13.951000      5.431000
S         -16.882000    -14.761000      3.781000
C         -16.040000    -14.197000      6.227000
C         -17.128000    -14.705000      5.533000
C          -8.514000    -15.646000     -7.584000
H          -7.573000    -13.748000     -5.617000
H          -8.764000    -13.106000     -3.638000
H         -12.014000    -15.565000     -4.694000
H          -9.391000    -14.142000     -1.446000
H         -10.311000    -11.870000      4.844000
H         -12.598000    -13.136000      5.477000
H         -15.902000    -14.050000      7.290000
H         -18.091000    -15.055000      5.883000
H          -7.471000    -15.830000     -7.298000
C          -8.735000    -14.732000     -8.801000
H          -8.834000    -16.675000     -7.790000
H          -9.818000    -14.574000     -8.874000
H          -8.341000    -15.189000     -9.717000
C          -8.002000    -13.344000     -8.725000
H          -7.093000    -13.311000     -8.111000
C          -8.936000    -12.191000     -8.311000
H          -7.558000    -13.080000     -9.693000
H          -9.326000    -12.327000     -7.294000
H          -9.777000    -12.117000     -9.012000
C          -8.179000    -10.835000     -8.265000
H          -7.804000    -10.631000     -9.275000
C          -6.947000    -10.672000     -7.359000
H          -8.918000    -10.037000     -8.120000
H          -6.576000     -9.641000     -7.313000
H          -6.090000    -11.276000     -7.680000
H          -7.142000    -10.903000     -6.305000
C          -7.523000    -19.074000     -6.136000
C          -7.191000    -17.930000     -5.412000
N          -8.624000    -19.853000     -5.964000
C          -8.131000    -17.585000     -4.434000
C          -9.495000    -19.473000     -4.994000
C          -9.242000    -18.377000     -4.176000
C         -10.038000    -18.111000     -2.950000
C          -9.434000    -17.608000     -1.768000
C         -11.403000    -18.338000     -2.866000
N         -10.059000    -17.377000     -0.605000
N         -12.195000    -18.818000     -3.928000
C         -12.062000    -18.123000     -1.639000
C         -11.380000    -17.669000     -0.501000
S         -13.681000    -18.924000     -3.275000
N         -13.397000    -18.412000     -1.725000
C         -12.014000    -17.513000      0.835000
S         -13.626000    -18.049000      1.293000
C         -11.486000    -16.916000      1.969000
C         -13.404000    -17.611000      2.995000
S          -9.981000    -16.067000      2.038000
C         -12.178000    -17.028000      3.175000
C         -14.408000    -17.628000      4.006000
C         -10.272000    -15.830000      3.745000
C         -11.509000    -16.359000      4.197000
N         -15.590000    -18.161000      3.608000
S         -14.254000    -17.470000      5.748000
C         -16.440000    -18.257000      4.620000
C         -15.936000    -17.903000      5.822000
C          -6.670000    -19.506000     -7.306000
H          -6.278000    -17.403000     -5.669000
H          -7.871000    -16.779000     -3.754000
H         -10.315000    -20.171000     -4.834000
H          -8.368000    -17.385000     -1.777000
H          -9.579000    -15.253000      4.344000
H         -11.922000    -16.149000      5.177000
H         -17.451000    -18.575000      4.401000
H         -16.389000    -17.962000      6.803000
H          -7.303000    -19.678000     -8.186000
C          -5.837000    -20.798000     -6.999000
H          -5.976000    -18.722000     -7.634000
H          -5.298000    -20.610000     -6.062000
H          -5.035000    -20.781000     -7.748000
C          -6.637000    -22.094000     -7.038000
H          -6.039000    -22.919000     -6.630000
C          -6.913000    -22.470000     -8.524000
H          -7.571000    -22.075000     -6.463000
H          -6.015000    -22.452000     -9.154000
H          -7.440000    -21.678000     -9.070000
C          -7.688000    -23.802000     -8.671000
H          -7.230000    -24.666000     -8.173000
C          -7.769000    -24.080000    -10.196000
H          -8.698000    -23.682000     -8.260000
H          -8.288000    -25.025000    -10.398000
H          -6.812000    -24.070000    -10.732000
H          -8.406000    -23.391000    -10.765000
$end

--------------------------------------------------------------

             Standard Nuclear Orientation (Angstroms)
    I     Atom           X                Y                Z
 ----------------------------------------------------------------
    1      C      -5.1015184971     2.0908620565     0.2381138848
    2      C      -4.4676820644     2.8225815865    -0.7771485966
    3      N      -4.4291283416     1.5490823381     1.2712640266
    4      C      -3.0792228878     2.8967469787    -0.7595528736
    5      C      -3.1199737294     1.6319298927     1.2731306010
    6      C      -2.3415050668     2.2272623257     0.2462889212
    7      C      -0.8428676786     2.2806151396     0.2563614611
    8      C      -0.0674541288     2.2057453926    -0.9792976131
    9      C      -0.0749156936     2.5057513453     1.4232759557
   10      N       1.3136332833     2.1536582772    -1.0589436579
   11      N      -0.5784045462     2.9626176996     2.5652037597
   12      C       1.3756208783     2.6329429143     1.2994375188
   13      C       2.0065692873     2.3910290009     0.1004263580
   14      S       0.7698817974     3.1977921225     3.4588669661
   15      N       2.0213757852     2.9448937692     2.4269681234
   16      C       3.4528665674     2.1941292376     0.0618043324
   17      S       4.3315743915     1.4459148169     1.3343677848
   18      C       4.1435577815     2.3101860347    -1.0962584753
   19      C       5.6675947808     1.1346729949     0.1671865445
   20      S       3.7465904709     3.1301924983    -2.6048748460
   21      C       5.4145208173     1.6883044380    -1.0189781971
   22      C       6.9485770384     0.4875662694     0.5675880199
   23      C       5.2978124366     2.4704819952    -3.2536509747
   24      C       6.0367762040     1.8001995392    -2.2997977472
   25      N       7.9086678520     0.4168644874    -0.3120163727
   26      S       7.2483841806    -0.1416349912     2.2197497708
   27      C       9.0573309146    -0.0616493193     0.2880950383
   28      C       8.8716214715    -0.4765241116     1.5983755080
   29      C      -6.6097941421     1.9441947844     0.3302837817
   30      H      -4.9666740471     3.4332152337    -1.5244260217
   31      H      -2.5739202670     3.5622624082    -1.4525777465
   32      H      -2.4656773646     1.1878315922     2.0222861032
   33      H      -0.6316823002     2.0450259407    -1.8964180133
   34      H       5.6632773198     2.8594702179    -4.1948191752
   35      H       7.0139787381     1.3474672948    -2.4275425021
   36      H       9.9303759771    -0.1367433499    -0.3465506938
   37      H       9.5513126727    -0.9525212793     2.2939440289
   38      H      -6.9009919143     1.7687376670    -0.7127500899
   39      C      -7.3443566959     3.0814148315     1.0599922298
   40      H      -6.8570465945     0.9650289092     0.7589764613
   41      H      -6.8581470645     3.1835425851     2.0379248023
   42      H      -8.4119185821     2.8560435813     1.1725107550
   43      C      -7.3260880082     4.4640886377     0.3133407712
   44      H      -7.2267892118     4.4217945503    -0.7787750464
   45      C      -6.2791614283     5.4415663488     0.8804766110
   46      H      -8.3051536995     4.9558706708     0.3719650325
   47      H      -5.2561414633     5.0674781083     0.7449290567
   48      H      -6.4617080286     5.6109969186     1.9491805086
   49      C      -6.3048235770     6.8009446968     0.1285903422
   50      H      -7.2999838714     7.2388990259     0.2706923972
   51      C      -6.0815892838     6.8431663479    -1.3924661270
   52      H      -5.6570026842     7.5019198248     0.6698037574
   53      H      -5.9945793675     7.8616300957    -1.7898058668
   54      H      -6.8934095811     6.3762705719    -1.9627837045
   55      H      -5.1402205897     6.3807113538    -1.7122509924
   56      C      -6.5897544639    -1.6453630803    -1.0642203405
   57      C      -5.8814198914    -0.6639539408    -1.7557651578
   58      N      -6.0895331275    -2.5101977481    -0.1420134158
   59      C      -4.5260867086    -0.5950482765    -1.4130802104
   60      C      -4.7661799249    -2.4011600066     0.1422190103
   61      C      -3.9505914853    -1.4915464052    -0.5224369861
   62      C      -2.4692597919    -1.5436478787    -0.4205063697
   63      C      -1.6386390816    -1.2680311780    -1.5381170667
   64      C      -1.7988772713    -1.8679774321     0.7487701660
   65      N      -0.2998242538    -1.3301431443    -1.5546082940
   66      N      -2.4329009684    -2.1585152967     1.9731515203
   67      C      -0.3928098821    -1.9614753141     0.7324103689
   68      C       0.3526106716    -1.7193724734    -0.4303528971
   69      S      -1.1934930547    -2.4939331581     2.9717524824
   70      N       0.1048715412    -2.3080765004     1.9593263475
   71      C       1.8269622071    -1.8921113647    -0.5177418276
   72      S       2.8664866905    -2.6129632384     0.7051095225
   73      C       2.6731394655    -1.5193365469    -1.5502978709
   74      C       4.3078561191    -2.5355773031    -0.3217291150
   75      S       2.2018699392    -0.6125424518    -2.9453665082
   76      C       4.0059457773    -1.9292120056    -1.5119124082
   77      C       5.6431011284    -2.8306364309     0.0788790180
   78      C       3.8473995647    -0.7641621324    -3.5145261731
   79      C       4.7052944796    -1.4535346428    -2.6183700166
   80      N       5.7490483379    -3.3389566970     1.3318765024
   81      S       7.0900602523    -3.0390144164    -0.8938141036
   82      C       6.9948772780    -3.7016509610     1.6006201030
   83      C       7.8576719415    -3.5818044067     0.5684582106
   84      C      -8.0864359361    -1.7635081275    -1.2348641758
   85      H      -6.4196130832    -0.0383696787    -2.4602787626
   86      H      -3.8945035646     0.0617399306    -2.0041537957
   87      H      -4.3920076720    -3.1669473379     0.8195438129
   88      H      -2.1039714238    -0.9822546205    -2.4804352563
   89      H       4.1545959026    -0.2863485262    -4.4361028480
   90      H       5.7828196845    -1.4838255406    -2.7327854625
   91      H       7.2190044713    -4.0279276098     2.6078522260
   92      H       8.8966194881    -3.8770609236     0.5016556306
   93      H      -8.5738264186    -1.7827215652    -0.2516274996
   94      C      -8.5006570102    -3.0367727416    -2.0501065472
   95      H      -8.5253997709    -0.8858517549    -1.7256859798
   96      H      -7.9165494326    -3.0199919826    -2.9787457365
   97      H      -9.5165413099    -2.8102561783    -2.3981917900
   98      C      -8.4355795238    -4.3418297386    -1.2666985084
   99      H      -8.5506686457    -5.1960139767    -1.9462695360
  100      C      -9.6536202425    -4.4082635873    -0.2983435367
  101      H      -7.4976145690    -4.5043168969    -0.7215731404
  102      H     -10.6133681960    -4.2002018300    -0.7874469725
  103      H      -9.6971060550    -3.5523560636     0.3862295382
  104      C      -9.7003434912    -5.7237959866     0.5163032852
  105      H      -9.6806758272    -6.6439491507    -0.0813549262
  106      C     -11.0229409001    -5.6742027716     1.3273190723
  107      H      -8.8442384994    -5.7575277735     1.2014072259
  108      H     -11.1540629949    -6.5847314101     1.9247591068
  109      H     -11.9322638161    -5.4903375224     0.7420239291
  110      H     -11.0561899055    -4.9206584662     2.1243864996
 ----------------------------------------------------------------

   11   -5663.5162713434      4.78E-06 Convergence criterion met
 Total energy in the final basis set = -5663.5162713434

                    Orbital Energies (a.u.)
 --------------------------------------------------------------

 Alpha MOs
 -- Occupied --
-88.987 -88.984 -88.926 -88.924 -88.922 -88.914 -88.907 -88.902
-14.395 -14.390 -14.384 -14.383 -14.355 -14.348 -14.343 -14.330
-14.329 -14.327 -10.271 -10.262 -10.260 -10.260 -10.255 -10.254
-10.253 -10.252 -10.247 -10.237 -10.237 -10.234 -10.232 -10.232
-10.232 -10.230 -10.230 -10.228 -10.227 -10.225 -10.223 -10.223
-10.222 -10.221 -10.220 -10.219 -10.218 -10.218 -10.215 -10.212
-10.208 -10.207 -10.202 -10.201 -10.198 -10.197 -10.197 -10.195
-10.186 -10.181 -10.179 -10.178 -10.178 -10.177 -10.177 -10.176
-10.174 -10.167 -10.166 -10.164  -8.042  -8.041  -7.987  -7.984
 -7.981  -7.973  -7.966  -7.962  -6.007  -6.005  -6.001  -6.000
 -6.000  -5.998  -5.951  -5.948  -5.948  -5.946  -5.945  -5.944
 -5.942  -5.941  -5.938  -5.937  -5.933  -5.931  -5.929  -5.927
 -5.926  -5.923  -5.922  -5.919  -1.046  -1.022  -0.968  -0.966
 -0.955  -0.948  -0.947  -0.934  -0.924  -0.911  -0.909  -0.891
 -0.840  -0.838  -0.835  -0.830  -0.806  -0.805  -0.803  -0.803
 -0.800  -0.798  -0.796  -0.795  -0.782  -0.778  -0.763  -0.762
 -0.746  -0.744  -0.738  -0.737  -0.725  -0.712  -0.709  -0.702
 -0.692  -0.687  -0.670  -0.669  -0.659  -0.650  -0.647  -0.644
 -0.635  -0.630  -0.626  -0.624  -0.616  -0.607  -0.598  -0.595
 -0.593  -0.587  -0.583  -0.580  -0.578  -0.575  -0.564  -0.562
 -0.550  -0.538  -0.536  -0.535  -0.522  -0.521  -0.515  -0.512
 -0.510  -0.505  -0.500  -0.495  -0.487  -0.483  -0.473  -0.473
 -0.471  -0.469  -0.466  -0.462  -0.459  -0.452  -0.447  -0.446
 -0.443  -0.440  -0.438  -0.437  -0.434  -0.429  -0.427  -0.425
 -0.423  -0.421  -0.420  -0.418  -0.415  -0.415  -0.413  -0.410
 -0.408  -0.405  -0.402  -0.399  -0.396  -0.394  -0.393  -0.391
 -0.389  -0.388  -0.386  -0.385  -0.385  -0.384  -0.381  -0.381
 -0.379  -0.374  -0.373  -0.371  -0.365  -0.361  -0.356  -0.355
 -0.354  -0.352  -0.349  -0.346  -0.344  -0.343  -0.342  -0.340
 -0.337  -0.336  -0.331  -0.331  -0.327  -0.324  -0.322  -0.321
 -0.320  -0.310  -0.308  -0.306  -0.304  -0.300  -0.299  -0.298
 -0.293  -0.291  -0.289  -0.288  -0.286  -0.282  -0.282  -0.280
 -0.275  -0.272  -0.268  -0.262  -0.255  -0.253  -0.250  -0.245
 -0.241  -0.235  -0.232  -0.225  -0.195  -0.182

          Ground-State Mulliken Net Atomic Charges

     Atom                 Charge (a.u.)
  ----------------------------------------
      1 C                     0.256126
      2 C                    -0.113813
      3 N                    -0.473481
      4 C                    -0.093987
      5 C                     0.117759
      6 C                     0.038590
      7 C                     0.001552
      8 C                     0.064266
      9 C                     0.198008
     10 N                    -0.496329
     11 N                    -0.502789
     12 C                     0.190892
     13 C                     0.270908
     14 S                     0.594350
     15 N                    -0.536588
     16 C                    -0.212959
     17 S                     0.329456
     18 C                    -0.106086
     19 C                    -0.270475
     20 S                     0.262426
     21 C                     0.209141
     22 C                     0.082282
     23 C                    -0.310961
     24 C                    -0.053839
     25 N                    -0.440886
     26 S                     0.267468
     27 C                     0.123610
     28 C                    -0.306226
     29 C                    -0.216315
     30 H                     0.100649
     31 H                     0.100164
     32 H                     0.102833
     33 H                     0.112917
     34 H                     0.127965
     35 H                     0.120120
     36 H                     0.111850
     37 H                     0.127640
     38 H                     0.083836
     39 C                    -0.180445
     40 H                     0.123168
     41 H                     0.116949
     42 H                     0.097086
     43 C                    -0.182851
     44 H                     0.088395
     45 C                    -0.173739
     46 H                     0.088467
     47 H                     0.100751
     48 H                     0.095065
     49 C                    -0.183036
     50 H                     0.090406
     51 C                    -0.322062
     52 H                     0.089883
     53 H                     0.104598
     54 H                     0.103148
     55 H                     0.094804
     56 C                     0.285670
     57 C                    -0.117640
     58 N                    -0.486880
     59 C                    -0.094123
     60 C                     0.096832
     61 C                     0.065736
     62 C                     0.018684
     63 C                     0.060176
     64 C                     0.207698
     65 N                    -0.539100
     66 N                    -0.548346
     67 C                     0.214439
     68 C                     0.318324
     69 S                     0.615981
     70 N                    -0.572683
     71 C                    -0.212621
     72 S                     0.355120
     73 C                    -0.152948
     74 C                    -0.245527
     75 S                     0.329649
     76 C                     0.194155
     77 C                     0.044999
     78 C                    -0.299998
     79 C                    -0.109700
     80 N                    -0.429290
     81 S                     0.284518
     82 C                     0.145509
     83 C                    -0.315486
     84 C                    -0.234004
     85 H                     0.098514
     86 H                     0.093639
     87 H                     0.119833
     88 H                     0.105574
     89 H                     0.122936
     90 H                     0.112251
     91 H                     0.107403
     92 H                     0.123976
     93 H                     0.118535
     94 C                    -0.180395
     95 H                     0.081106
     96 H                     0.081519
     97 H                     0.089205
     98 C                    -0.165061
     99 H                     0.082548
    100 C                    -0.169504
    101 H                     0.125049
    102 H                     0.082068
    103 H                     0.093070
    104 C                    -0.173194
    105 H                     0.094238
    106 C                    -0.328272
    107 H                     0.102866
    108 H                     0.090014
    109 H                     0.101119
    110 H                     0.101158
  ----------------------------------------
  Sum of atomic charges =     0.000000

                    Cartesian Multipole Moments
 -----------------------------------------------------------------
    Charge (ESU x 10^10)
                 0.0000
    Dipole Moment (Debye)
         X       2.8843      Y       1.9596      Z      -1.9236
       Tot       3.9824
    Quadrupole Moments (Debye-Ang)
        XX    -398.1706     XY     -27.8223     YY    -450.4304
        XZ      13.3042     YZ     -10.1419     ZZ    -430.0794

 Total job time:  140.64s(wall), 1514.06s(cpu)
        *  Thank you very much for using Q-Chem.  Have a nice day.  *
