 Q-Chem 4.4, Q-Chem, Inc., Pleasanton, CA (2016)
 Q-Chem 4.4.2 for Intel X86 Linux

User input:
--------------------------------------------------------------
$comment
SP
$end

$rem
MEM_STATIC 5000
MEM_TOTAL 20000
JOBTYPE SP
EXCHANGE B3LYP
BASIS 6-31g(d,p)
$end

$molecule
0 1
C         -12.812000    -25.938000      4.066000
C         -12.214000    -26.816000      3.159000
N         -13.654000    -24.975000      3.625000
C         -12.420000    -26.747000      1.794000
C         -13.869000    -24.796000      2.338000
C         -13.228000    -25.636000      1.356000
C         -13.353000    -25.219000     -0.033000
C         -13.731000    -26.071000     -1.048000
C         -13.070000    -23.881000     -0.493000
N         -13.800000    -25.734000     -2.391000
N         -12.737000    -22.836000      0.309000
C         -13.170000    -23.555000     -1.828000
C         -13.602000    -24.507000     -2.763000
S         -12.440000    -21.575000     -0.701000
N         -13.000000    -22.258000     -2.107000
C         -13.705000    -24.380000     -4.246000
S         -14.868000    -25.058000     -5.320000
C         -12.714000    -23.751000     -4.961000
C         -14.150000    -24.196000     -6.719000
S         -11.179000    -23.268000     -4.405000
C         -12.978000    -23.637000     -6.287000
C         -14.550000    -24.395000     -8.053000
C         -10.798000    -23.028000     -6.080000
C         -11.785000    -23.221000     -6.993000
N         -15.350000    -25.432000     -8.260000
S         -13.909000    -23.517000     -9.473000
C         -15.556000    -25.569000     -9.622000
C         -14.866000    -24.651000    -10.331000
C         -12.499000    -26.126000      5.522000
H         -11.562000    -27.632000      3.459000
H         -11.949000    -27.425000      1.088000
H         -14.577000    -23.992000      2.145000
H         -13.841000    -27.133000     -0.831000
H          -9.740000    -23.024000     -6.309000
H         -11.808000    -22.930000     -8.037000
H         -16.094000    -26.425000    -10.009000
H         -15.079000    -24.455000    -11.373000
H         -13.452000    -26.229000      6.055000
C         -11.840000    -24.750000      5.941000
H         -11.751000    -26.899000      5.740000
H         -12.407000    -23.846000      5.684000
H         -10.880000    -24.689000      5.414000
C         -11.568000    -24.717000      7.471000
H         -11.243000    -25.721000      7.772000
C         -12.835000    -24.316000      8.270000
H         -10.685000    -24.102000      7.685000
H         -13.709000    -24.792000      7.807000
H         -13.106000    -23.267000      8.097000
C         -12.833000    -24.471000      9.861000
H         -12.192000    -23.676000     10.260000
C         -12.426000    -25.830000     10.385000
H         -13.845000    -24.254000     10.225000
H         -11.453000    -26.202000     10.040000
H         -13.218000    -26.551000     10.146000
H         -12.394000    -25.845000     11.481000
C          -7.523000    -19.074000     -6.136000
C          -7.191000    -17.930000     -5.412000
N          -8.624000    -19.853000     -5.964000
C          -8.131000    -17.585000     -4.434000
C          -9.495000    -19.473000     -4.994000
C          -9.242000    -18.377000     -4.176000
C         -10.038000    -18.111000     -2.950000
C          -9.434000    -17.608000     -1.768000
C         -11.403000    -18.338000     -2.866000
N         -10.059000    -17.377000     -0.605000
N         -12.195000    -18.818000     -3.928000
C         -12.062000    -18.123000     -1.639000
C         -11.380000    -17.669000     -0.501000
S         -13.681000    -18.924000     -3.275000
N         -13.397000    -18.412000     -1.725000
C         -12.014000    -17.513000      0.835000
S         -13.626000    -18.049000      1.293000
C         -11.486000    -16.916000      1.969000
C         -13.404000    -17.611000      2.995000
S          -9.981000    -16.067000      2.038000
C         -12.178000    -17.028000      3.175000
C         -14.408000    -17.628000      4.006000
C         -10.272000    -15.830000      3.745000
C         -11.509000    -16.359000      4.197000
N         -15.590000    -18.161000      3.608000
S         -14.254000    -17.470000      5.748000
C         -16.440000    -18.257000      4.620000
C         -15.936000    -17.903000      5.822000
C          -6.670000    -19.506000     -7.306000
H          -6.278000    -17.403000     -5.669000
H          -7.871000    -16.779000     -3.754000
H         -10.315000    -20.171000     -4.834000
H          -8.368000    -17.385000     -1.777000
H          -9.579000    -15.253000      4.344000
H         -11.922000    -16.149000      5.177000
H         -17.451000    -18.575000      4.401000
H         -16.389000    -17.962000      6.803000
H          -7.303000    -19.678000     -8.186000
C          -5.837000    -20.798000     -6.999000
H          -5.976000    -18.722000     -7.634000
H          -5.298000    -20.610000     -6.062000
H          -5.035000    -20.781000     -7.748000
C          -6.637000    -22.094000     -7.038000
H          -6.039000    -22.919000     -6.630000
C          -6.913000    -22.470000     -8.524000
H          -7.571000    -22.075000     -6.463000
H          -6.015000    -22.452000     -9.154000
H          -7.440000    -21.678000     -9.070000
C          -7.688000    -23.802000     -8.671000
H          -7.230000    -24.666000     -8.173000
C          -7.769000    -24.080000    -10.196000
H          -8.698000    -23.682000     -8.260000
H          -8.288000    -25.025000    -10.398000
H          -6.812000    -24.070000    -10.732000
H          -8.406000    -23.391000    -10.765000
$end

--------------------------------------------------------------

             Standard Nuclear Orientation (Angstroms)
    I     Atom           X                Y                Z
 ----------------------------------------------------------------
    1      C       4.9403928216     4.6930590836     1.8346156993
    2      C       3.8513773246     5.2503272161     2.5088815784
    3      N       4.7582396258     4.0713991168     0.6466876295
    4      C       2.5555155061     5.1864032655     2.0323546894
    5      C       3.5532362956     3.9122514558     0.1394657882
    6      C       2.3882671211     4.4147338416     0.8258791289
    7      C       1.0968563820     3.9960483436     0.3007165287
    8      C       0.0630357565     4.8712355811     0.0471909610
    9      C       0.7582979062     2.6225204716     0.0165821531
   10      N      -1.2018110067     4.5096670587    -0.3903131753
   11      N       1.6134951741     1.5719610995     0.1218467665
   12      C      -0.4949927575     2.2826917839    -0.4441563576
   13      C      -1.4534984646     3.2746849658    -0.6978674858
   14      S       0.7247281306     0.2358497462    -0.2293363680
   15      N      -0.6427720210     0.9973722558    -0.7833686802
   16      C      -2.8747914571     3.1136301140    -1.1221487182
   17      S      -3.8188504903     4.1032161940    -2.1686671997
   18      C      -3.6614313855     2.1353885271    -0.5625166779
   19      C      -5.2039535331     2.9683846398    -2.0716316173
   20      S      -3.3080882712     1.1673682320     0.7927454192
   21      C      -4.9043867462     2.0522532563    -1.1002140818
   22      C      -6.4696805299     3.2252604835    -2.6294012566
   23      C      -4.9824756532     0.7180952250     0.7382783632
   24      C      -5.7400360790     1.2011577301    -0.2804167911
   25      N      -6.6654195644     4.4666665017    -3.0522668714
   26      S      -7.8610094046     2.1018323470    -2.6127223857
   27      C      -7.9826550898     4.5950520016    -3.4580460404
   28      C      -8.6805994156     3.4548704631    -3.2726686489
   29      C       6.2940509416     4.8347027702     2.4677000224
   30      H       3.9434832361     5.7950657580     3.4446894764
   31      H       1.7075832112     5.6131447455     2.5604299988
   32      H       3.5736079392     3.4043928097    -0.8231315272
   33      H       0.1680976567     5.9126499322     0.3495998672
   34      H      -5.3775704693     0.3249365556     1.6662586145
   35      H      -6.7248144343     0.8820882577    -0.6022121654
   36      H      -8.3757816675     5.5645975009    -3.7362222775
   37      H      -9.6438844724     3.2922559403    -3.7365516261
   38      H       6.9583101135     5.2990306140     1.7287369611
   39      C       6.7603211023     3.3386955048     2.6862690028
   40      H       6.2953585959     5.3007227183     3.4613703389
   41      H       6.7069751420     2.6838708613     1.8070006168
   42      H       6.0958505977     2.9113690425     3.4471376138
   43      C       8.2191977024     3.2927730512     3.2206314211
   44      H       8.3430105066     4.1295008598     3.9197730117
   45      C       9.2543628515     3.4131569510     2.0724015527
   46      H       8.3585576333     2.4157772841     3.8649661432
   47      H       8.8859973867     4.1439732215     1.3409403691
   48      H       9.2525290659     2.5220493820     1.4323273868
   49      C      10.7945067232     3.6421120126     2.4341285686
   50      H      11.1755230675     2.6933869748     2.8301769849
   51      C      11.0816329890     4.7926636326     3.3726888902
   52      H      11.3405054889     3.8199511808     1.4992555407
   53      H      10.5422665623     4.7743223768     4.3281392846
   54      H      10.8905433482     5.7347533592     2.8433707475
   55      H      12.1484758509     4.8538632883     3.6187903123
   56      C      -5.1006400737    -4.1405888464     2.3942080912
   57      C      -4.3100160898    -5.2873067684     2.4497753782
   58      N      -4.8459004271    -3.0122583501     1.6796424864
   59      C      -3.1590030376    -5.2216914009     1.6560672598
   60      C      -3.7097601199    -3.0043162252     0.9359603465
   61      C      -2.8199221230    -4.0730705101     0.9533274910
   62      C      -1.4585605372    -3.9718398250     0.3669018937
   63      C      -0.3388858684    -4.5931312586     0.9794984906
   64      C      -1.1821676643    -3.2689836529    -0.7955997971
   65      N       0.9289499815    -4.5235852893     0.5501843682
   66      N      -2.1511369212    -2.5957053291    -1.5658613617
   67      C       0.1519848899    -3.1689695343    -1.2383967462
   68      C       1.2101458907    -3.7747160705    -0.5458287494
   69      S      -1.2834125266    -1.9321452249    -2.7710930255
   70      N       0.2496503843    -2.4280691478    -2.3849873743
   71      C       2.6400808069    -3.6227520181    -0.9244856681
   72      S       3.2863957795    -2.5236138000    -2.1368289090
   73      C       3.7361207912    -4.3071960005    -0.4231057844
   74      C       4.9696778499    -2.9202808629    -1.7532292313
   75      S       3.6603834771    -5.6319579094     0.6858832796
   76      C       5.0164451784    -3.8915271785    -0.7889375682
   77      C       6.1206541534    -2.4924244913    -2.4761527917
   78      C       5.4078558834    -5.6579863011     0.6668645572
   79      C       5.9884355250    -4.6993869560    -0.2039560762
   80      N       5.8590852529    -1.5951615038    -3.4590657286
   81      S       7.8210828760    -2.6015366606    -2.0520293499
   82      C       6.9767968903    -1.1484649103    -4.0131802015
   83      C       8.1146628920    -1.5940548361    -3.4379875554
   84      C      -6.4359521901    -4.1043066930     3.1004362109
   85      H      -4.6473529283    -6.1181046005     3.0607793223
   86      H      -2.4397283893    -6.0298207037     1.7520204262
   87      H      -3.5026892339    -2.0523586067     0.4500567133
   88      H      -0.4938859380    -5.1816508152     1.8827070546
   89      H       5.9506756597    -6.4112109384     1.2236215384
   90      H       7.0401948767    -4.6956188433    -0.4663623784
   91      H       6.8883045220    -0.5031345231    -4.8774277310
   92      H       9.1421264211    -1.3250600987    -3.6453797630
   93      H      -7.2159876261    -3.7652693674     2.4066989333
   94      C      -6.4224571820    -3.1797260429     4.3662839530
   95      H      -6.7770792880    -5.1005474556     3.4086774250
   96      H      -5.5694771429    -3.4971277993     4.9790768854
   97      H      -7.2840544984    -3.5215565015     4.9539028788
   98      C      -6.4841686201    -1.6877496423     4.0640669475
   99      H      -6.2785749882    -1.1095890152     4.9740969183
  100      C      -7.9397717032    -1.3181105464     3.6513508183
  101      H      -5.7674362006    -1.3417460938     3.3091376904
  102      H      -8.7001971869    -1.6887336972     4.3499347888
  103      H      -8.2959531276    -1.8981822615     2.7912574523
  104      C      -8.1155891112     0.1927566546     3.3635548145
  105      H      -7.8037670845     0.8620188177     4.1754163672
  106      C      -9.6293907897     0.3993811635     3.0893636575
  107      H      -7.5353146754     0.4628744020     2.4726345140
  108      H      -9.8548447970     1.4550631150     2.8946944306
  109      H     -10.3082126780     0.0202137419     3.8631064509
  110      H     -10.0024622492    -0.0466308003     2.1586961475
 ----------------------------------------------------------------

   10   -5663.5030063509      7.21E-06 Convergence criterion met
 Total energy in the final basis set = -5663.5030063509

                    Orbital Energies (a.u.)
 --------------------------------------------------------------

 Alpha MOs
 -- Occupied --
-88.991 -88.985 -88.932 -88.924 -88.921 -88.914 -88.911 -88.905
-14.386 -14.386 -14.383 -14.380 -14.353 -14.342 -14.336 -14.332
-14.332 -14.325 -10.267 -10.266 -10.259 -10.257 -10.256 -10.254
-10.253 -10.250 -10.242 -10.240 -10.237 -10.232 -10.230 -10.230
-10.228 -10.227 -10.226 -10.226 -10.225 -10.224 -10.223 -10.223
-10.222 -10.221 -10.219 -10.218 -10.216 -10.215 -10.214 -10.213
-10.212 -10.211 -10.205 -10.204 -10.203 -10.197 -10.195 -10.195
-10.191 -10.182 -10.181 -10.180 -10.180 -10.180 -10.178 -10.176
-10.173 -10.173 -10.170 -10.169  -8.045  -8.040  -7.992  -7.985
 -7.979  -7.973  -7.972  -7.967  -6.010  -6.005  -6.004  -6.003
 -5.999  -5.997  -5.956  -5.953  -5.950  -5.949  -5.946  -5.944
 -5.942  -5.940  -5.937  -5.936  -5.936  -5.934  -5.932  -5.932
 -5.930  -5.928  -5.928  -5.923  -1.033  -1.026  -0.972  -0.962
 -0.960  -0.960  -0.941  -0.939  -0.918  -0.918  -0.899  -0.895
 -0.847  -0.846  -0.839  -0.833  -0.810  -0.807  -0.805  -0.804
 -0.804  -0.802  -0.802  -0.796  -0.784  -0.782  -0.767  -0.767
 -0.752  -0.746  -0.744  -0.741  -0.720  -0.719  -0.709  -0.707
 -0.693  -0.689  -0.674  -0.670  -0.657  -0.654  -0.648  -0.642
 -0.635  -0.635  -0.628  -0.626  -0.613  -0.611  -0.600  -0.594
 -0.593  -0.588  -0.586  -0.584  -0.580  -0.576  -0.567  -0.559
 -0.545  -0.543  -0.541  -0.536  -0.527  -0.521  -0.520  -0.515
 -0.509  -0.508  -0.500  -0.499  -0.488  -0.485  -0.479  -0.478
 -0.471  -0.470  -0.467  -0.464  -0.458  -0.452  -0.449  -0.448
 -0.443  -0.441  -0.435  -0.435  -0.435  -0.434  -0.431  -0.429
 -0.427  -0.426  -0.423  -0.421  -0.420  -0.419  -0.413  -0.412
 -0.411  -0.407  -0.406  -0.401  -0.399  -0.396  -0.396  -0.394
 -0.393  -0.390  -0.390  -0.389  -0.387  -0.386  -0.384  -0.380
 -0.380  -0.377  -0.375  -0.371  -0.367  -0.364  -0.361  -0.360
 -0.352  -0.350  -0.348  -0.347  -0.345  -0.343  -0.342  -0.341
 -0.338  -0.336  -0.335  -0.330  -0.329  -0.327  -0.325  -0.317
 -0.311  -0.310  -0.309  -0.306  -0.304  -0.303  -0.299  -0.298
 -0.295  -0.294  -0.291  -0.287  -0.286  -0.286  -0.281  -0.280
 -0.278  -0.269  -0.268  -0.265  -0.258  -0.255  -0.247  -0.243
 -0.242  -0.236  -0.233  -0.231  -0.191  -0.187

          Ground-State Mulliken Net Atomic Charges

     Atom                 Charge (a.u.)
  ----------------------------------------
      1 C                     0.294105
      2 C                    -0.129770
      3 N                    -0.481018
      4 C                    -0.049670
      5 C                     0.110390
      6 C                    -0.020278
      7 C                     0.055607
      8 C                     0.025268
      9 C                     0.228960
     10 N                    -0.474172
     11 N                    -0.548460
     12 C                     0.206134
     13 C                     0.250943
     14 S                     0.611526
     15 N                    -0.566550
     16 C                    -0.184078
     17 S                     0.340851
     18 C                    -0.110065
     19 C                    -0.223276
     20 S                     0.260449
     21 C                     0.123078
     22 C                     0.064512
     23 C                    -0.297542
     24 C                    -0.072314
     25 N                    -0.439361
     26 S                     0.266657
     27 C                     0.123623
     28 C                    -0.303338
     29 C                    -0.221235
     30 H                     0.083507
     31 H                     0.107452
     32 H                     0.118117
     33 H                     0.107301
     34 H                     0.137086
     35 H                     0.113335
     36 H                     0.116491
     37 H                     0.119209
     38 H                     0.124134
     39 C                    -0.190316
     40 H                     0.107186
     41 H                     0.126857
     42 H                     0.090823
     43 C                    -0.177165
     44 H                     0.086290
     45 C                    -0.179916
     46 H                     0.086584
     47 H                     0.091975
     48 H                     0.090730
     49 C                    -0.179849
     50 H                     0.093649
     51 C                    -0.312046
     52 H                     0.092820
     53 H                     0.104147
     54 H                     0.101145
     55 H                     0.097228
     56 C                     0.282683
     57 C                    -0.110250
     58 N                    -0.491541
     59 C                    -0.096468
     60 C                     0.083818
     61 C                     0.055908
     62 C                     0.017122
     63 C                     0.062009
     64 C                     0.205848
     65 N                    -0.537573
     66 N                    -0.545210
     67 C                     0.208604
     68 C                     0.314984
     69 S                     0.645477
     70 N                    -0.579634
     71 C                    -0.209445
     72 S                     0.362293
     73 C                    -0.154983
     74 C                    -0.244362
     75 S                     0.302528
     76 C                     0.194815
     77 C                     0.042314
     78 C                    -0.304350
     79 C                    -0.106367
     80 N                    -0.427201
     81 S                     0.281341
     82 C                     0.149997
     83 C                    -0.323217
     84 C                    -0.233988
     85 H                     0.101518
     86 H                     0.095359
     87 H                     0.137341
     88 H                     0.108352
     89 H                     0.126206
     90 H                     0.111743
     91 H                     0.115236
     92 H                     0.131837
     93 H                     0.118183
     94 C                    -0.181429
     95 H                     0.084512
     96 H                     0.083489
     97 H                     0.092068
     98 C                    -0.173103
     99 H                     0.085433
    100 C                    -0.170538
    101 H                     0.124523
    102 H                     0.085700
    103 H                     0.092926
    104 C                    -0.181342
    105 H                     0.097191
    106 C                    -0.329984
    107 H                     0.104010
    108 H                     0.093984
    109 H                     0.103426
    110 H                     0.100456
  ----------------------------------------
  Sum of atomic charges =     0.000000

                    Cartesian Multipole Moments
 -----------------------------------------------------------------
    Charge (ESU x 10^10)
                 0.0000
    Dipole Moment (Debye)
         X       1.4625      Y      -2.5267      Z       2.8052
       Tot       4.0488
    Quadrupole Moments (Debye-Ang)
        XX    -393.3359     XY       9.2803     YY    -430.1720
        XZ      -0.0648     YZ      -1.7563     ZZ    -434.5407

 Total job time:  101.40s(wall), 1109.59s(cpu)
        *  Thank you very much for using Q-Chem.  Have a nice day.  *
