 Q-Chem 4.4, Q-Chem, Inc., Pleasanton, CA (2016)
 Q-Chem 4.4.2 for Intel X86 Linux

User input:
--------------------------------------------------------------
$comment
SP
$end

$rem
MEM_STATIC 5000
MEM_TOTAL 20000
JOBTYPE SP
EXCHANGE B3LYP
BASIS 6-31g(d,p)
$end

$molecule
0 1
C           3.344000    -17.269000     -6.212000
C           2.880000    -17.407000     -4.905000
N           2.517000    -16.948000     -7.182000
C           1.534000    -17.324000     -4.535000
C           1.186000    -16.863000     -6.871000
C           0.621000    -17.065000     -5.550000
C          -0.795000    -16.708000     -5.223000
C          -1.193000    -15.349000     -5.329000
C          -1.766000    -17.556000     -4.807000
N          -2.322000    -14.835000     -4.803000
N          -1.520000    -18.897000     -4.610000
C          -3.032000    -17.062000     -4.353000
C          -3.316000    -15.685000     -4.362000
S          -2.888000    -19.443000     -3.994000
N          -3.816000    -18.129000     -3.995000
C          -4.466000    -15.090000     -3.745000
S          -5.425000    -15.760000     -2.420000
C          -4.845000    -13.748000     -3.920000
C          -6.210000    -14.143000     -2.045000
S          -4.138000    -12.550000     -5.002000
C          -5.806000    -13.238000     -3.019000
C          -6.925000    -13.792000     -0.857000
C          -5.197000    -11.333000     -4.332000
C          -5.904000    -11.818000     -3.263000
N          -7.376000    -12.606000     -0.744000
S          -7.240000    -14.892000      0.477000
C          -7.965000    -12.454000      0.474000
C          -7.889000    -13.471000      1.356000
C           4.833000    -17.499000     -6.539000
H           3.499000    -17.621000     -4.039000
H           1.170000    -17.396000     -3.514000
H           0.551000    -16.726000     -7.744000
H          -0.427000    -14.682000     -5.719000
H          -5.132000    -10.308000     -4.673000
H          -6.477000    -11.134000     -2.647000
H          -8.556000    -11.555000      0.593000
H          -8.184000    -13.515000      2.396000
H           5.204000    -18.421000     -6.075000
C           5.785000    -16.361000     -6.042000
H           5.014000    -17.772000     -7.586000
H           5.722000    -16.487000     -4.954000
H           5.310000    -15.390000     -6.226000
C           7.195000    -16.490000     -6.682000
H           8.037000    -16.065000     -6.122000
C           7.205000    -16.061000     -8.190000
H           7.497000    -17.543000     -6.748000
H           6.194000    -16.268000     -8.561000
H           8.029000    -16.585000     -8.691000
C           7.690000    -14.592000     -8.399000
H           6.993000    -13.904000     -7.906000
C           8.032000    -14.176000     -9.826000
H           8.524000    -14.339000     -7.732000
H           8.610000    -14.920000    -10.387000
H           8.585000    -13.256000    -10.051000
H           7.080000    -13.997000    -10.340000
C          -7.523000    -19.074000     -6.136000
C          -7.191000    -17.930000     -5.412000
N          -8.624000    -19.853000     -5.964000
C          -8.131000    -17.585000     -4.434000
C          -9.495000    -19.473000     -4.994000
C          -9.242000    -18.377000     -4.176000
C         -10.038000    -18.111000     -2.950000
C          -9.434000    -17.608000     -1.768000
C         -11.403000    -18.338000     -2.866000
N         -10.059000    -17.377000     -0.605000
N         -12.195000    -18.818000     -3.928000
C         -12.062000    -18.123000     -1.639000
C         -11.380000    -17.669000     -0.501000
S         -13.681000    -18.924000     -3.275000
N         -13.397000    -18.412000     -1.725000
C         -12.014000    -17.513000      0.835000
S         -13.626000    -18.049000      1.293000
C         -11.486000    -16.916000      1.969000
C         -13.404000    -17.611000      2.995000
S          -9.981000    -16.067000      2.038000
C         -12.178000    -17.028000      3.175000
C         -14.408000    -17.628000      4.006000
C         -10.272000    -15.830000      3.745000
C         -11.509000    -16.359000      4.197000
N         -15.590000    -18.161000      3.608000
S         -14.254000    -17.470000      5.748000
C         -16.440000    -18.257000      4.620000
C         -15.936000    -17.903000      5.822000
C          -6.670000    -19.506000     -7.306000
H          -6.278000    -17.403000     -5.669000
H          -7.871000    -16.779000     -3.754000
H         -10.315000    -20.171000     -4.834000
H          -8.368000    -17.385000     -1.777000
H          -9.579000    -15.253000      4.344000
H         -11.922000    -16.149000      5.177000
H         -17.451000    -18.575000      4.401000
H         -16.389000    -17.962000      6.803000
H          -7.303000    -19.678000     -8.186000
C          -5.837000    -20.798000     -6.999000
H          -5.976000    -18.722000     -7.634000
H          -5.298000    -20.610000     -6.062000
H          -5.035000    -20.781000     -7.748000
C          -6.637000    -22.094000     -7.038000
H          -6.039000    -22.919000     -6.630000
C          -6.913000    -22.470000     -8.524000
H          -7.571000    -22.075000     -6.463000
H          -6.015000    -22.452000     -9.154000
H          -7.440000    -21.678000     -9.070000
C          -7.688000    -23.802000     -8.671000
H          -7.230000    -24.666000     -8.173000
C          -7.769000    -24.080000    -10.196000
H          -8.698000    -23.682000     -8.260000
H          -8.288000    -25.025000    -10.398000
H          -6.812000    -24.070000    -10.732000
H          -8.406000    -23.391000    -10.765000
$end

--------------------------------------------------------------

             Standard Nuclear Orientation (Angstroms)
    I     Atom           X                Y                Z
 ----------------------------------------------------------------
    1      C     -10.0042202585     0.6629848737    -1.7206226257
    2      C      -8.9611272140     1.2503013879    -2.4344890087
    3      N      -9.7654111290     0.0237023308    -0.5971645580
    4      C      -7.6099629291     1.1312988843    -2.0943442172
    5      C      -8.4559116087    -0.1266402063    -0.2255261212
    6      C      -7.3143766781     0.3931108551    -0.9547907073
    7      C      -5.9371150897     0.4202137119    -0.3701113490
    8      C      -5.7115276419     1.1972330118     0.7968815006
    9      C      -4.8428304165    -0.2166005059    -0.8517852077
   10      N      -4.4975848562     1.5498421951     1.2632747648
   11      N      -4.8925626184    -0.9697640126    -2.0041208534
   12      C      -3.5427295424     0.0342425840    -0.3043151525
   13      C      -3.3710287599     0.9203904200     0.7737047240
   14      S      -3.3705295631    -1.3868703502    -2.2458514502
   15      N      -2.6284430634    -0.7376928992    -0.9747663767
   16      C      -2.0991082604     1.3817629427     1.2496959405
   17      S      -0.5864814072     1.4506919877     0.3378764465
   18      C      -1.9225062676     2.1088297835     2.4394083196
   19      C       0.1958775731     2.5971213157     1.5400217047
   20      S      -3.1253406089     2.4918976054     3.6691341392
   21      C      -0.6745097259     2.7474856453     2.6127441843
   22      C       1.3754335255     3.3798161385     1.3355551562
   23      C      -1.9401317679     3.4568454080     4.5150807933
   24      C      -0.7810197475     3.5723789303     3.7933146751
   25      N       1.7620309960     4.1562866008     2.2685085403
   26      S       2.3517680706     3.3460327008    -0.1254070389
   27      C       2.8563073735     4.8551107990     1.8589319910
   28      C       3.2684381609     4.7139020631     0.5829236419
   29      C     -11.4519966944     0.7485186638    -2.2436688592
   30      H      -9.0737815205     1.8360874165    -3.3417247751
   31      H      -6.7956611505     1.6150782438    -2.6263133372
   32      H      -8.3285936525    -0.7764940472     0.6379570133
   33      H      -6.6044847401     1.6590563623     1.2129245436
   34      H      -2.2152048572     3.9894646966     5.4160705207
   35      H      -0.0188805827     4.2731142838     4.1154246839
   36      H       3.3833130478     5.3884867706     2.6395843414
   37      H       4.0300830994     5.2507491969     0.0331481037
   38      H     -11.5043519719     0.5005379340    -3.3108077830
   39      C     -12.1047830897     2.1637283122    -2.1043542039
   40      H     -12.1006628530    -0.0530157067    -1.8691373283
   41      H     -11.5185909034     2.7437374537    -2.8279266719
   42      H     -11.8290718427     2.5919692534    -1.1333160972
   43      C     -13.6396578020     2.0986829815    -2.3373128323
   44      H     -14.1284170121     3.0132568274    -2.6948853632
   45      C     -14.3978783504     1.4519014537    -1.1269491451
   46      H     -13.8802753554     1.4008755486    -3.1494316534
   47      H     -13.6816614139     0.7601945243    -0.6673995571
   48      H     -15.3325021773     1.0145934576    -1.5008381911
   49      C     -14.9999618297     2.5123550916    -0.1523720236
   50      H     -14.1888794869     3.1000755544     0.2936460149
   51      C     -16.0088085425     2.0093072139     0.8750130760
   52      H     -15.4211090930     3.3699608132    -0.6923733281
   53      H     -16.7456555779     1.3022761279     0.4756329439
   54      H     -16.6492350101     2.6902044714     1.4486565754
   55      H     -15.4334022637     1.5195165591     1.6697166237
   56      C      -0.3688673077    -3.9004513325     1.0525548847
   57      C      -0.3703122972    -2.5271519361     1.2916838871
   58      N       0.7178647063    -4.6825249692     0.8159109396
   59      C       0.9051044438    -1.9506004341     1.2947664664
   60      C       1.9272414033    -4.0650249488     0.8224477096
   61      C       2.0427217319    -2.6905266979     1.0006830937
   62      C       3.3159007677    -1.9690035119     0.7440365767
   63      C       3.3310284810    -0.6780593410     0.1539659877
   64      C       4.5620991861    -2.4952696324     1.0470934567
   65      N       4.4261261223     0.0310715723    -0.1533603922
   66      N       4.7680279762    -3.7514688391     1.6512994535
   67      C       5.7186240507    -1.7674042992     0.7025687200
   68      C       5.6468993899    -0.5152595007     0.0754539165
   69      S       6.3879814420    -3.8685192651     1.7401305651
   70      N       6.8598932343    -2.4361902747     1.0538121815
   71      C       6.8372035094     0.2473371348    -0.3858599403
   72      S       8.4959404109    -0.3374345347    -0.4331673004
   73      C       6.8907214756     1.5514310724    -0.8523616331
   74      C       9.0992349350     1.1195412750    -1.2401302531
   75      S       5.5631631936     2.6595962502    -0.8644424663
   76      C       8.0831619289     2.0234462549    -1.4011160710
   77      C      10.4655483623     1.4400583281    -1.4868739202
   78      C       6.6280787536     3.8197299505    -1.6225609580
   79      C       7.9555937962     3.3509949714    -1.8022977963
   80      N      11.3354259705     0.4471447954    -1.1753411557
   81      S      11.1623045571     2.7024958744    -2.4888850212
   82      C      12.5716885322     0.7593073141    -1.5359925668
   83      C      12.6917411500     1.9263694422    -2.2050884928
   84      C      -1.6561810938    -4.6870594347     1.1374307333
   85      H      -1.3203626090    -2.0356123167     1.4737284080
   86      H       0.9631736689    -0.8674784424     1.3505402615
   87      H       2.7581809238    -4.7110498043     0.5442474234
   88      H       2.3826891734    -0.1987314876    -0.0849134099
   89      H       6.2804449071     4.8214076420    -1.8411279068
   90      H       8.7781708674     3.9942649021    -2.0932269254
   91      H      13.3670088816     0.0849360836    -1.2463462560
   92      H      13.5639140871     2.3668035709    -2.6702585112
   93      H      -1.5177541349    -5.5603838187     1.7876733782
   94      C      -2.1688309098    -5.1559508362    -0.2678212085
   95      H      -2.4624284262    -4.1248647295     1.6250559505
   96      H      -2.1984121769    -4.2639546317    -0.9060231513
   97      H      -3.2321839126    -5.3724525225    -0.1038047119
   98      C      -1.4198971895    -6.3469327704    -0.8524555514
   99      H      -1.7028693863    -6.4918897943    -1.9029826558
  100      C      -1.8750984072    -7.6396146425    -0.1125140475
  101      H      -0.3268703173    -6.2554401570    -0.8362272334
  102      H      -2.9650976542    -7.7506560229    -0.0559503384
  103      H      -1.7190102916    -7.5837440381     0.9717479023
  104      C      -1.1981995485    -8.9169103547    -0.6663927333
  105      H      -1.3132989843    -9.0754873836    -1.7461470784
  106      C      -1.8478892139   -10.1048954120     0.0925966225
  107      H      -0.1230684960    -8.8807379746    -0.4514374382
  108      H      -1.4417219988   -11.0635067844    -0.2527762632
  109      H      -2.9437543832   -10.1440357748     0.0644441312
  110      H      -1.6012753891   -10.1704965549     1.1598965389
 ----------------------------------------------------------------

    9   -5663.5105132486      9.50E-06 Convergence criterion met
 Total energy in the final basis set = -5663.5105132486

                    Orbital Energies (a.u.)
 --------------------------------------------------------------

 Alpha MOs
 -- Occupied --
-88.995 -88.990 -88.935 -88.932 -88.923 -88.921 -88.913 -88.910
-14.388 -14.386 -14.385 -14.384 -14.358 -14.353 -14.340 -14.336
-14.334 -14.326 -10.270 -10.270 -10.266 -10.266 -10.262 -10.256
-10.255 -10.255 -10.253 -10.250 -10.244 -10.241 -10.239 -10.238
-10.236 -10.234 -10.233 -10.233 -10.232 -10.229 -10.226 -10.226
-10.225 -10.223 -10.222 -10.221 -10.221 -10.221 -10.220 -10.219
-10.213 -10.208 -10.207 -10.204 -10.204 -10.200 -10.199 -10.195
-10.189 -10.189 -10.184 -10.181 -10.177 -10.176 -10.176 -10.174
-10.170 -10.167 -10.166 -10.164  -8.051  -8.045  -7.993  -7.993
 -7.984  -7.979  -7.973  -7.970  -6.016  -6.010  -6.010  -6.009
 -6.004  -6.003  -5.957  -5.957  -5.954  -5.954  -5.950  -5.949
 -5.948  -5.945  -5.944  -5.940  -5.940  -5.937  -5.936  -5.934
 -5.934  -5.931  -5.929  -5.926  -1.045  -1.025  -0.988  -0.972
 -0.959  -0.959  -0.945  -0.933  -0.918  -0.913  -0.906  -0.894
 -0.847  -0.847  -0.842  -0.836  -0.813  -0.810  -0.807  -0.806
 -0.804  -0.802  -0.800  -0.797  -0.781  -0.778  -0.770  -0.764
 -0.752  -0.751  -0.741  -0.741  -0.729  -0.720  -0.712  -0.705
 -0.697  -0.690  -0.678  -0.673  -0.654  -0.651  -0.650  -0.644
 -0.640  -0.636  -0.633  -0.624  -0.615  -0.610  -0.602  -0.600
 -0.598  -0.594  -0.591  -0.583  -0.582  -0.578  -0.565  -0.562
 -0.552  -0.543  -0.543  -0.540  -0.528  -0.526  -0.521  -0.515
 -0.511  -0.505  -0.505  -0.500  -0.497  -0.484  -0.480  -0.477
 -0.476  -0.472  -0.467  -0.466  -0.465  -0.454  -0.452  -0.450
 -0.447  -0.439  -0.438  -0.437  -0.436  -0.436  -0.435  -0.430
 -0.428  -0.426  -0.425  -0.422  -0.420  -0.419  -0.417  -0.414
 -0.412  -0.407  -0.407  -0.406  -0.400  -0.400  -0.396  -0.394
 -0.393  -0.391  -0.391  -0.389  -0.388  -0.386  -0.386  -0.383
 -0.380  -0.373  -0.371  -0.370  -0.369  -0.363  -0.357  -0.355
 -0.354  -0.351  -0.348  -0.347  -0.346  -0.345  -0.344  -0.342
 -0.339  -0.338  -0.337  -0.334  -0.333  -0.324  -0.321  -0.320
 -0.317  -0.310  -0.309  -0.307  -0.305  -0.304  -0.301  -0.299
 -0.295  -0.294  -0.294  -0.290  -0.288  -0.284  -0.282  -0.279
 -0.278  -0.278  -0.264  -0.263  -0.258  -0.255  -0.254  -0.252
 -0.250  -0.243  -0.242  -0.230  -0.199  -0.191

          Ground-State Mulliken Net Atomic Charges

     Atom                 Charge (a.u.)
  ----------------------------------------
      1 C                     0.288612
      2 C                    -0.120312
      3 N                    -0.473816
      4 C                    -0.041866
      5 C                     0.055916
      6 C                     0.021340
      7 C                    -0.022928
      8 C                     0.083226
      9 C                     0.197939
     10 N                    -0.503285
     11 N                    -0.525122
     12 C                     0.196660
     13 C                     0.285591
     14 S                     0.630789
     15 N                    -0.558250
     16 C                    -0.202109
     17 S                     0.307926
     18 C                    -0.147541
     19 C                    -0.266827
     20 S                     0.292984
     21 C                     0.195722
     22 C                     0.091343
     23 C                    -0.292827
     24 C                    -0.075354
     25 N                    -0.433348
     26 S                     0.264176
     27 C                     0.127303
     28 C                    -0.303054
     29 C                    -0.238528
     30 H                     0.086289
     31 H                     0.107415
     32 H                     0.106702
     33 H                     0.116567
     34 H                     0.135904
     35 H                     0.121339
     36 H                     0.111281
     37 H                     0.135476
     38 H                     0.105429
     39 C                    -0.177940
     40 H                     0.116255
     41 H                     0.094491
     42 H                     0.107803
     43 C                    -0.189169
     44 H                     0.091842
     45 C                    -0.171693
     46 H                     0.093142
     47 H                     0.109632
     48 H                     0.093569
     49 C                    -0.180071
     50 H                     0.090146
     51 C                    -0.323748
     52 H                     0.088700
     53 H                     0.099487
     54 H                     0.101254
     55 H                     0.106178
     56 C                     0.276474
     57 C                    -0.097367
     58 N                    -0.486136
     59 C                    -0.097957
     60 C                     0.090631
     61 C                     0.055129
     62 C                     0.019634
     63 C                     0.064507
     64 C                     0.207095
     65 N                    -0.541995
     66 N                    -0.547101
     67 C                     0.217217
     68 C                     0.317532
     69 S                     0.621608
     70 N                    -0.571818
     71 C                    -0.209728
     72 S                     0.364108
     73 C                    -0.172486
     74 C                    -0.242994
     75 S                     0.330732
     76 C                     0.194356
     77 C                     0.042518
     78 C                    -0.325698
     79 C                    -0.100482
     80 N                    -0.426866
     81 S                     0.278620
     82 C                     0.148917
     83 C                    -0.324345
     84 C                    -0.231197
     85 H                     0.103939
     86 H                     0.103359
     87 H                     0.117836
     88 H                     0.112573
     89 H                     0.119792
     90 H                     0.111420
     91 H                     0.114400
     92 H                     0.131159
     93 H                     0.117902
     94 C                    -0.186168
     95 H                     0.083256
     96 H                     0.081774
     97 H                     0.089908
     98 C                    -0.165319
     99 H                     0.081268
    100 C                    -0.170129
    101 H                     0.124951
    102 H                     0.082980
    103 H                     0.093786
    104 C                    -0.172850
    105 H                     0.093942
    106 C                    -0.328618
    107 H                     0.102303
    108 H                     0.089962
    109 H                     0.101760
    110 H                     0.101272
  ----------------------------------------
  Sum of atomic charges =     0.000000

                    Cartesian Multipole Moments
 -----------------------------------------------------------------
    Charge (ESU x 10^10)
                 0.0000
    Dipole Moment (Debye)
         X       1.7711      Y       4.8270      Z      -2.1645
       Tot       5.5787
    Quadrupole Moments (Debye-Ang)
        XX    -410.9964     XY      12.7523     YY    -437.2609
        XZ       0.0931     YZ      -5.0333     ZZ    -435.0795

 Total job time:  90.11s(wall), 991.49s(cpu)
        *  Thank you very much for using Q-Chem.  Have a nice day.  *
