 Q-Chem 4.4, Q-Chem, Inc., Pleasanton, CA (2016)
 Q-Chem 4.4.2 for Intel X86 Linux

User input:
--------------------------------------------------------------
$comment
SP
$end

$rem
MEM_STATIC 5000
MEM_TOTAL 20000
JOBTYPE SP
EXCHANGE B3LYP
BASIS 6-31g(d,p)
$end

$molecule
0 1
C          19.915000      7.681000     -2.582000
C          20.700000      8.663000     -1.943000
N          18.892000      7.061000     -1.939000
C          20.336000      9.030000     -0.606000
C          18.583000      7.380000     -0.675000
C          19.333000      8.374000      0.057000
C          18.923000      8.662000      1.467000
C          17.666000      9.179000      1.679000
C          19.732000      8.558000      2.634000
N          17.202000      9.625000      2.865000
N          20.995000      8.155000      2.562000
C          19.255000      9.022000      3.836000
C          17.944000      9.515000      3.941000
S          21.568000      8.431000      4.043000
N          20.202000      8.971000      4.790000
C          17.390000     10.004000      5.254000
S          18.313000     10.222000      6.776000
C          16.152000     10.555000      5.451000
C          16.944000     10.949000      7.564000
S          14.821000     10.744000      4.395000
C          15.873000     11.050000      6.678000
C          16.966000     11.330000      8.957000
C          13.869000     11.633000      5.618000
C          14.548000     11.605000      6.820000
N          18.137000     11.271000      9.557000
S          15.533000     11.430000      9.987000
C          18.033000     11.485000     10.907000
C          16.724000     11.452000     11.369000
C          20.186000      7.203000     -4.003000
H          21.540000      9.142000     -2.438000
H          20.799000      9.915000     -0.179000
H          17.757000      6.790000     -0.282000
H          17.093000      9.456000      0.795000
H          12.850000     11.896000      5.364000
H          14.113000     12.040000      7.713000
H          18.960000     11.490000     11.465000
H          16.399000     11.516000     12.399000
H          21.154000      6.690000     -3.940000
C          20.088000      8.361000     -4.958000
H          19.464000      6.430000     -4.295000
H          20.619000      8.280000     -5.914000
H          20.399000      9.314000     -4.512000
C          18.636000      8.641000     -5.338000
H          18.257000      7.696000     -5.747000
C          18.393000      9.869000     -6.333000
H          18.162000      8.875000     -4.377000
H          17.320000      9.988000     -6.529000
H          18.953000      9.663000     -7.253000
C          18.825000     11.198000     -5.859000
H          18.283000     11.322000     -4.913000
C          18.369000     12.237000     -6.917000
H          19.905000     11.200000     -5.666000
H          18.863000     13.213000     -6.833000
H          17.318000     12.455000     -6.693000
H          18.448000     11.971000     -7.978000
C           6.779000     22.868000     11.932000
C           6.509000     21.611000     11.465000
N           8.000000     23.466000     11.840000
C           7.522000     20.738000     11.094000
C           8.961000     22.631000     11.458000
C           8.835000     21.236000     11.066000
C          10.033000     20.423000     10.579000
C          11.329000     20.737000     11.054000
C          10.023000     19.426000      9.572000
N          12.482000     20.145000     10.608000
N           8.915000     18.884000      9.091000
C          11.212000     18.904000      8.991000
C          12.450000     19.191000      9.600000
S           9.339000     17.925000      7.836000
N          11.025000     18.020000      7.973000
C          13.740000     18.731000      8.980000
S          13.919000     17.418000      7.699000
C          15.003000     19.075000      9.395000
C          15.638000     17.284000      8.046000
S          15.417000     20.543000     10.245000
C          16.010000     18.327000      8.850000
C          16.526000     16.317000      7.381000
C          17.150000     20.102000      9.816000
C          17.262000     18.846000      9.232000
N          17.691000     16.025000      7.996000
S          16.057000     15.319000      6.046000
C          18.224000     14.879000      7.452000
C          17.465000     14.404000      6.424000
C           5.594000     23.638000     12.463000
H           5.485000     21.251000     11.420000
H           7.259000     19.728000     10.791000
H           9.839000     23.125000     11.046000
H          11.528000     21.493000     11.813000
H          17.931000     20.767000     10.158000
H          18.162000     18.337000      8.907000
H          19.168000     14.477000      7.796000
H          17.688000     13.528000      5.828000
H           4.993000     22.918000     13.031000
C           4.654000     24.188000     11.380000
H           5.838000     24.412000     13.200000
H           4.388000     23.469000     10.594000
H           5.176000     25.005000     10.868000
C           3.432000     24.809000     12.090000
H           3.680000     25.246000     13.064000
C           2.319000     23.752000     12.091000
H           3.134000     25.702000     11.528000
H           2.760000     22.754000     12.196000
H           1.834000     23.677000     11.110000
C           1.222000     24.118000     13.130000
H           0.493000     23.303000     13.037000
C           0.384000     25.353000     12.654000
H           1.566000     24.237000     14.164000
H          -0.347000     25.560000     13.446000
H          -0.177000     25.102000     11.746000
H           1.139000     26.140000     12.532000
$end

--------------------------------------------------------------

             Standard Nuclear Orientation (Angstroms)
    I     Atom           X                Y                Z
 ----------------------------------------------------------------
    1      C     -12.2063822617     2.7926886750     0.2601358888
    2      C     -11.6986360608     2.0947791716    -0.8552053687
    3      N     -11.6641908141     2.6455052933     1.4965595566
    4      C     -10.5443092801     1.2707943073    -0.6470404655
    5      C     -10.6102760722     1.8417024861     1.6917588491
    6      C     -10.0251432503     1.0882673701     0.6071782358
    7      C      -8.8545364020     0.2092604441     0.9172918130
    8      C      -7.7035487830     0.8077290311     1.3748339985
    9      C      -8.7521929090    -1.1933651363     0.6951358079
   10      N      -6.5243503619     0.1783925785     1.5598602478
   11      N      -9.7604002577    -1.8829614258     0.1748119669
   12      C      -7.5457952858    -1.8248585555     0.8780287720
   13      C      -6.4365367584    -1.1161884817     1.3680565731
   14      S      -9.1185146713    -3.3314475084    -0.1213922911
   15      N      -7.6035372575    -3.1110868332     0.4884024354
   16      C      -5.1110845932    -1.7932035792     1.6022212919
   17      S      -4.6824247897    -3.4701516399     1.1331445661
   18      C      -3.9578225783    -1.1841426137     2.0194567951
   19      C      -3.0273583666    -3.2375060902     1.6130041114
   20      S      -3.6505324811     0.4173024153     2.5326474180
   21      C      -2.8313802014    -1.9311977021     2.0572888782
   22      C      -2.0538871286    -4.3037869221     1.5743655771
   23      C      -1.8981157273     0.1151498509     2.7061217641
   24      C      -1.6556889375    -1.2309775101     2.5169145245
   25      N      -2.4344174140    -5.4166373278     0.9815058327
   26      S      -0.6223572623    -4.3860802765     2.6079704559
   27      C      -1.5162535100    -6.4221073602     1.1399894572
   28      C      -0.5434266954    -6.1330583099     2.0876564005
   29      C     -13.4220018451     3.7074472921     0.1785779290
   30      H     -12.1448274017     2.1813645711    -1.8418574126
   31      H     -10.0276417764     0.8906413989    -1.5236597995
   32      H     -10.2959496025     1.8053697373     2.7332499925
   33      H      -7.6804150897     1.8967439233     1.3697944668
   34      H      -1.2911449419     0.9133837449     3.1141108767
   35      H      -0.6573725370    -1.6369881271     2.6369925964
   36      H      -1.7406879862    -7.3590528418     0.6475665389
   37      H       0.2351389108    -6.7967811034     2.4396914133
   38      H     -14.2581730671     3.0332190484    -0.0459125226
   39      C     -13.1592734660     4.8186603496    -0.8005912799
   40      H     -13.6490089591     4.1371223732     1.1624092636
   41      H     -14.0258638356     5.3109832786    -1.2578628238
   42      H     -12.5035819499     4.5176356887    -1.6272101698
   43      C     -12.3630495696     5.9484202887    -0.1519203411
   44      H     -12.9551715260     6.2560795574     0.7191045512
   45      C     -11.9957586417     7.1841335425    -1.0980535922
   46      H     -11.4310245361     5.4588816330     0.1557064482
   47      H     -11.4164580693     7.9283662744    -0.5373090090
   48      H     -12.9372630311     7.6021483277    -1.4739114431
   49      C     -11.1599547991     6.8868951097    -2.2773000680
   50      H     -10.2657294605     6.4187032568    -1.8469357658
   51      C     -10.8228991114     8.2396178751    -2.9580023404
   52      H     -11.6695748112     6.1702706156    -2.9333410558
   53      H     -10.4516780001     8.1471162621    -3.9862563645
   54      H      -9.9687108197     8.6506405492    -2.4068909872
   55      H     -11.6038020080     9.0080086381    -3.0078451077
   56      C      12.5212129632     1.2593551553     0.0352276560
   57      C      11.6417709156     1.4841918523     1.0584911336
   58      N      12.1489031404     0.8458485862    -1.2086801835
   59      C      10.3226797806     1.0580074288     0.9928830942
   60      C      10.8771319644     0.4646274409    -1.2714377677
   61      C       9.8702100156     0.5205374547    -0.2233217153
   62      C       8.4207934851     0.1083503545    -0.4735925994
   63      C       8.1339706330    -0.8776828712    -1.4479170470
   64      C       7.2648002915     0.7046009295     0.0888333853
   65      N       6.8696977899    -1.2477882296    -1.8266322459
   66      N       7.2995607647     1.5441723000     1.1119172643
   67      C       5.9510043217     0.4435314510    -0.3902792081
   68      C       5.7524386610    -0.6291199305    -1.2824029059
   69      S       5.7868771731     2.1289936055     1.3222845440
   70      N       4.9601286089     1.1672012264     0.1989714839
   71      C       4.3987661996    -0.8956031602    -1.8796110399
   72      S       2.7913013302    -0.2468713992    -1.2533724302
   73      C       4.1171279350    -1.8081054780    -2.8663984577
   74      C       1.9162141734    -1.4528403683    -2.1878173529
   75      S       5.2518116500    -2.3721837501    -4.0677429419
   76      C       2.7856642326    -2.0583958863    -3.0538474386
   77      C       0.4517089633    -1.5949818913    -2.1581816133
   78      C       3.7605395271    -3.0202561017    -4.9267660396
   79      C       2.6014154017    -2.8964790291    -4.1702962794
   80      N      -0.0622971952    -2.7724465361    -2.5705997013
   81      S      -0.6200401501    -0.4919359063    -1.3626733527
   82      C      -1.3710739729    -2.8730864612    -2.1579061688
   83      C      -1.7873489280    -1.7482353268    -1.5098976139
   84      C      13.9601367818     1.6184188566     0.3174642636
   85      H      11.9763736823     1.9650686121     1.9733679179
   86      H       9.6810955456     1.2030770013     1.8579856826
   87      H      10.4632723916     0.4668799064    -2.2781051311
   88      H       8.8991307978    -1.4250053080    -1.9976315843
   89      H       3.9136628848    -3.5472218000    -5.8584367916
   90      H       1.5978194103    -3.2155452171    -4.4266122053
   91      H      -1.9734480027    -3.7395890246    -2.3974783623
   92      H      -2.7796876082    -1.5816588667    -1.1101011323
   93      H      14.1596289769     1.2909511083     1.3446900119
   94      C      14.2549777720     3.1257124332     0.3063348280
   95      H      14.6990569822     1.0701990020    -0.2785499379
   96      H      13.5364494344     3.7386727794     0.8662541453
   97      H      14.1909000743     3.4710328850    -0.7323012171
   98      C      15.7185029233     3.3212984559     0.7567404668
   99      H      16.3729157677     2.4960232376     0.4537328048
  100      C      15.6948663986     3.6446949218     2.2570321186
  101      H      16.1414894189     4.1497655473     0.1763770437
  102      H      14.8794637459     3.0931264593     2.7391117234
  103      H      15.3967773751     4.6843070763     2.4402273757
  104      C      17.1055016979     3.4445034626     2.8790589927
  105      H      16.9633435051     3.7041767366     3.9357878317
  106      C      18.0948105851     4.5627406253     2.4048664438
  107      H      17.5397040214     2.4446693610     2.7630714440
  108      H      19.0654333818     4.3386307896     2.8654532088
  109      H      17.7697285183     5.5397857194     2.7815500430
  110      H      18.0891554642     4.4597640152     1.3123272741
 ----------------------------------------------------------------

    9   -5663.5066519943      9.43E-06 Convergence criterion met
 Total energy in the final basis set = -5663.5066519943

                    Orbital Energies (a.u.)
 --------------------------------------------------------------

 Alpha MOs
 -- Occupied --
-88.990 -88.985 -88.934 -88.930 -88.928 -88.921 -88.907 -88.906
-14.391 -14.390 -14.384 -14.382 -14.350 -14.350 -14.345 -14.343
-14.335 -14.328 -10.272 -10.269 -10.267 -10.265 -10.257 -10.255
-10.254 -10.253 -10.243 -10.243 -10.242 -10.242 -10.240 -10.240
-10.236 -10.235 -10.233 -10.232 -10.231 -10.227 -10.227 -10.226
-10.226 -10.225 -10.224 -10.223 -10.223 -10.220 -10.220 -10.217
-10.214 -10.212 -10.211 -10.206 -10.206 -10.200 -10.194 -10.190
-10.186 -10.183 -10.181 -10.180 -10.179 -10.178 -10.178 -10.177
-10.175 -10.175 -10.175 -10.174  -8.046  -8.040  -7.993  -7.991
 -7.986  -7.980  -7.967  -7.966  -6.011  -6.006  -6.005  -6.004
 -6.000  -5.997  -5.957  -5.955  -5.954  -5.952  -5.950  -5.950
 -5.948  -5.947  -5.944  -5.943  -5.941  -5.936  -5.931  -5.930
 -5.927  -5.927  -5.923  -5.922  -1.050  -1.029  -0.971  -0.969
 -0.965  -0.943  -0.940  -0.936  -0.924  -0.913  -0.911  -0.903
 -0.850  -0.838  -0.833  -0.824  -0.815  -0.814  -0.810  -0.809
 -0.801  -0.801  -0.796  -0.795  -0.790  -0.784  -0.774  -0.765
 -0.751  -0.747  -0.743  -0.739  -0.733  -0.718  -0.709  -0.705
 -0.693  -0.688  -0.677  -0.671  -0.658  -0.652  -0.647  -0.642
 -0.639  -0.634  -0.631  -0.621  -0.616  -0.609  -0.605  -0.602
 -0.595  -0.589  -0.586  -0.583  -0.583  -0.579  -0.569  -0.556
 -0.554  -0.547  -0.542  -0.532  -0.528  -0.519  -0.519  -0.511
 -0.508  -0.505  -0.503  -0.492  -0.492  -0.488  -0.481  -0.479
 -0.475  -0.473  -0.472  -0.470  -0.461  -0.460  -0.456  -0.451
 -0.449  -0.447  -0.445  -0.443  -0.439  -0.436  -0.435  -0.432
 -0.430  -0.426  -0.422  -0.419  -0.417  -0.416  -0.415  -0.411
 -0.410  -0.406  -0.405  -0.403  -0.401  -0.399  -0.398  -0.397
 -0.395  -0.393  -0.392  -0.391  -0.389  -0.388  -0.383  -0.382
 -0.382  -0.378  -0.377  -0.375  -0.370  -0.368  -0.357  -0.354
 -0.353  -0.353  -0.352  -0.351  -0.346  -0.346  -0.344  -0.344
 -0.342  -0.339  -0.338  -0.338  -0.328  -0.327  -0.325  -0.318
 -0.317  -0.313  -0.309  -0.307  -0.307  -0.305  -0.300  -0.297
 -0.294  -0.293  -0.290  -0.289  -0.287  -0.285  -0.283  -0.283
 -0.275  -0.269  -0.267  -0.266  -0.262  -0.255  -0.253  -0.250
 -0.250  -0.242  -0.241  -0.228  -0.199  -0.190

          Ground-State Mulliken Net Atomic Charges

     Atom                 Charge (a.u.)
  ----------------------------------------
      1 C                     0.260486
      2 C                    -0.115731
      3 N                    -0.470965
      4 C                    -0.061884
      5 C                     0.079644
      6 C                     0.020004
      7 C                     0.007300
      8 C                     0.057279
      9 C                     0.222247
     10 N                    -0.528126
     11 N                    -0.533137
     12 C                     0.225273
     13 C                     0.336672
     14 S                     0.598132
     15 N                    -0.575343
     16 C                    -0.243861
     17 S                     0.360884
     18 C                    -0.111921
     19 C                    -0.253628
     20 S                     0.263350
     21 C                     0.154920
     22 C                     0.081328
     23 C                    -0.313353
     24 C                    -0.073452
     25 N                    -0.429430
     26 S                     0.267096
     27 C                     0.134981
     28 C                    -0.313963
     29 C                    -0.219547
     30 H                     0.098667
     31 H                     0.101050
     32 H                     0.111434
     33 H                     0.114119
     34 H                     0.140172
     35 H                     0.119605
     36 H                     0.122176
     37 H                     0.135119
     38 H                     0.109837
     39 C                    -0.187337
     40 H                     0.121313
     41 H                     0.087138
     42 H                     0.096211
     43 C                    -0.184957
     44 H                     0.089982
     45 C                    -0.168505
     46 H                     0.096132
     47 H                     0.091566
     48 H                     0.087090
     49 C                    -0.172246
     50 H                     0.095613
     51 C                    -0.326844
     52 H                     0.093566
     53 H                     0.097461
     54 H                     0.106945
     55 H                     0.107084
     56 C                     0.263726
     57 C                    -0.104573
     58 N                    -0.466016
     59 C                    -0.067025
     60 C                     0.064133
     61 C                     0.025603
     62 C                     0.050686
     63 C                     0.045164
     64 C                     0.224452
     65 N                    -0.520642
     66 N                    -0.555991
     67 C                     0.225438
     68 C                     0.292291
     69 S                     0.582159
     70 N                    -0.570507
     71 C                    -0.236398
     72 S                     0.301525
     73 C                    -0.109770
     74 C                    -0.226110
     75 S                     0.278628
     76 C                     0.183141
     77 C                     0.038499
     78 C                    -0.315790
     79 C                    -0.051734
     80 N                    -0.433047
     81 S                     0.294445
     82 C                     0.131814
     83 C                    -0.313817
     84 C                    -0.230675
     85 H                     0.089377
     86 H                     0.119577
     87 H                     0.099849
     88 H                     0.123511
     89 H                     0.125417
     90 H                     0.122216
     91 H                     0.128048
     92 H                     0.140291
     93 H                     0.102581
     94 C                    -0.186497
     95 H                     0.111186
     96 H                     0.096784
     97 H                     0.101007
     98 C                    -0.175647
     99 H                     0.095328
    100 C                    -0.168104
    101 H                     0.094615
    102 H                     0.086647
    103 H                     0.094025
    104 C                    -0.190198
    105 H                     0.086315
    106 C                    -0.313621
    107 H                     0.096241
    108 H                     0.101753
    109 H                     0.104692
    110 H                     0.107351
  ----------------------------------------
  Sum of atomic charges =     0.000000

                    Cartesian Multipole Moments
 -----------------------------------------------------------------
    Charge (ESU x 10^10)
                 0.0000
    Dipole Moment (Debye)
         X      -0.8901      Y       0.0458      Z       0.9551
       Tot       1.3063
    Quadrupole Moments (Debye-Ang)
        XX    -443.4457     XY      12.7363     YY    -428.2198
        XZ      51.1979     YZ       0.1547     ZZ    -441.2446

 Total job time:  85.53s(wall), 931.29s(cpu)
        *  Thank you very much for using Q-Chem.  Have a nice day.  *
