 Q-Chem 4.4, Q-Chem, Inc., Pleasanton, CA (2016)
 Q-Chem 4.4.2 for Intel X86 Linux

User input:
--------------------------------------------------------------
$comment
SP
$end

$rem
MEM_STATIC 5000
MEM_TOTAL 20000
JOBTYPE SP
EXCHANGE B3LYP
BASIS 6-31g(d,p)
$end

$molecule
0 1
C          20.910000     12.170000      3.386000
C          20.053000     12.418000      4.476000
N          22.246000     12.137000      3.569000
C          20.589000     12.482000      5.790000
C          22.743000     12.378000      4.829000
C          21.980000     12.540000      6.007000
C          22.633000     12.584000      7.330000
C          21.922000     13.195000      8.434000
C          23.888000     12.029000      7.635000
N          22.432000     13.295000      9.681000
N          24.600000     11.209000      6.832000
C          24.393000     12.122000      8.959000
C          23.625000     12.735000      9.999000
S          25.880000     10.686000      7.700000
N          25.521000     11.355000      9.168000
C          24.002000     12.761000     11.419000
S          25.640000     12.470000     12.034000
C          23.217000     13.151000     12.497000
C          25.233000     12.970000     13.757000
S          21.455000     13.528000     12.588000
C          23.860000     13.247000     13.740000
C          26.157000     13.116000     14.896000
C          21.662000     13.480000     14.357000
C          22.925000     13.398000     14.838000
N          27.303000     12.424000     14.827000
S          26.132000     14.538000     15.929000
C          28.204000     13.032000     15.634000
C          27.803000     14.226000     16.206000
C          20.417000     11.928000      1.986000
H          18.988000     12.521000      4.291000
H          19.827000     12.603000      6.554000
H          23.828000     12.338000      4.905000
H          20.945000     13.674000      8.385000
H          20.813000     13.703000     14.989000
H          23.174000     13.376000     15.893000
H          29.190000     12.590000     15.683000
H          28.380000     14.789000     16.928000
H          21.168000     11.356000      1.429000
C          20.274000     13.270000      1.227000
H          19.470000     11.379000      1.914000
H          20.322000     13.180000      0.135000
H          21.156000     13.854000      1.516000
C          19.004000     13.962000      1.637000
H          19.195000     14.251000      2.678000
C          17.682000     13.269000      1.544000
H          19.037000     14.948000      1.157000
H          16.903000     13.917000      1.964000
H          17.590000     12.414000      2.226000
C          17.207000     12.852000      0.093000
H          18.051000     12.292000     -0.328000
C          16.925000     14.104000     -0.783000
H          16.367000     12.150000      0.018000
H          16.405000     14.867000     -0.191000
H          16.449000     13.851000     -1.738000
H          17.899000     14.576000     -0.962000
C           6.779000     22.868000     11.932000
C           6.509000     21.611000     11.465000
N           8.000000     23.466000     11.840000
C           7.522000     20.738000     11.094000
C           8.961000     22.631000     11.458000
C           8.835000     21.236000     11.066000
C          10.033000     20.423000     10.579000
C          11.329000     20.737000     11.054000
C          10.023000     19.426000      9.572000
N          12.482000     20.145000     10.608000
N           8.915000     18.884000      9.091000
C          11.212000     18.904000      8.991000
C          12.450000     19.191000      9.600000
S           9.339000     17.925000      7.836000
N          11.025000     18.020000      7.973000
C          13.740000     18.731000      8.980000
S          13.919000     17.418000      7.699000
C          15.003000     19.075000      9.395000
C          15.638000     17.284000      8.046000
S          15.417000     20.543000     10.245000
C          16.010000     18.327000      8.850000
C          16.526000     16.317000      7.381000
C          17.150000     20.102000      9.816000
C          17.262000     18.846000      9.232000
N          17.691000     16.025000      7.996000
S          16.057000     15.319000      6.046000
C          18.224000     14.879000      7.452000
C          17.465000     14.404000      6.424000
C           5.594000     23.638000     12.463000
H           5.485000     21.251000     11.420000
H           7.259000     19.728000     10.791000
H           9.839000     23.125000     11.046000
H          11.528000     21.493000     11.813000
H          17.931000     20.767000     10.158000
H          18.162000     18.337000      8.907000
H          19.168000     14.477000      7.796000
H          17.688000     13.528000      5.828000
H           4.993000     22.918000     13.031000
C           4.654000     24.188000     11.380000
H           5.838000     24.412000     13.200000
H           4.388000     23.469000     10.594000
H           5.176000     25.005000     10.868000
C           3.432000     24.809000     12.090000
H           3.680000     25.246000     13.064000
C           2.319000     23.752000     12.091000
H           3.134000     25.702000     11.528000
H           2.760000     22.754000     12.196000
H           1.834000     23.677000     11.110000
C           1.222000     24.118000     13.130000
H           0.493000     23.303000     13.037000
C           0.384000     25.353000     12.654000
H           1.566000     24.237000     14.164000
H          -0.347000     25.560000     13.446000
H          -0.177000     25.102000     11.746000
H           1.139000     26.140000     12.532000
$end

--------------------------------------------------------------

             Standard Nuclear Orientation (Angstroms)
    I     Atom           X                Y                Z
 ----------------------------------------------------------------
    1      C      -5.7381324594     5.8263506014     0.1622392488
    2      C      -4.8080420337     4.8810372190     0.6369680229
    3      N      -6.9139099367     5.4174735233    -0.3572228372
    4      C      -5.1737582055     3.5101205634     0.7064461145
    5      C      -7.1636213449     4.0668543008    -0.4357207876
    6      C      -6.3521939422     3.0389202244     0.0944057113
    7      C      -6.8294714010     1.6426603655     0.1309930550
    8      C      -5.8524638387     0.5786255218     0.2356069862
    9      C      -8.1777549014     1.2449479659     0.1253850553
   10      N      -6.1818757228    -0.7311742608     0.2675653958
   11      N      -9.2390917378     2.0655489438     0.2813695249
   12      C      -8.5018619550    -0.1362927079     0.1868571540
   13      C      -7.4775307118    -1.1291075834     0.2975690652
   14      S     -10.5626286587     1.1162962629     0.3932729074
   15      N      -9.8458775242    -0.3729087433     0.3917693343
   16      C      -7.7163096310    -2.5648133956     0.4999015849
   17      S      -9.2562523286    -3.3863121099     0.1842018058
   18      C      -6.7818764397    -3.5424838586     0.8183416527
   19      C      -8.5642965810    -5.0747090678     0.4184899949
   20      S      -5.0528488344    -3.3946322814     1.3119583572
   21      C      -7.2299160054    -4.8715190277     0.7930421101
   22      C      -9.2402631776    -6.3654483415     0.1960618321
   23      C      -5.1588028019    -5.1184165827     1.7499714157
   24      C      -6.2775638538    -5.7893524618     1.3873796966
   25      N     -10.5795478209    -6.3549488741     0.2521635738
   26      S      -8.4792631306    -7.6613871267    -0.7156506190
   27      C     -11.0323586158    -7.4236223374    -0.4446961057
   28      C     -10.0769684734    -8.1600191666    -1.1218743583
   29      C      -5.5001878245     7.3107666212     0.2010262423
   30      H      -3.8361744332     5.2278107755     0.9750219649
   31      H      -4.4058793836     2.8880722769     1.1563339272
   32      H      -8.1288657871     3.8073296728    -0.8664772551
   33      H      -4.7698648549     0.6972572933     0.2522485970
   34      H      -4.2731683210    -5.6203784589     2.1155392494
   35      H      -6.4475381694    -6.8414306186     1.5867544294
   36      H     -12.1051034156    -7.5519274885    -0.4968246265
   37      H     -10.2723023155    -9.0790318114    -1.6589427420
   38      H      -6.4631205146     7.8343857437     0.1968251898
   39      C      -4.7738228821     7.7725131053    -1.0860938589
   40      H      -4.9379389484     7.6698086260     1.0718643675
   41      H      -4.9197224548     8.8309948226    -1.3334756867
   42      H      -5.2502983550     7.2093909447    -1.8974911451
   43      C      -3.3069734645     7.4572219748    -0.9922413726
   44      H      -3.2778418647     6.3613249570    -1.0351840801
   45      C      -2.4864789503     7.9352597243     0.1631160017
   46      H      -2.8899022936     7.6971296739    -1.9782337328
   47      H      -1.4702073438     7.5315610125     0.0773000830
   48      H      -2.7778459597     7.4836862254     1.1200902129
   49      C      -2.3510255295     9.5034479258     0.3285038348
   50      H      -3.3820979978     9.8772509112     0.3101219607
   51      C      -1.5525665247    10.1220422507    -0.8522621364
   52      H      -1.9560033243     9.8794062009     1.2806812515
   53      H      -0.6984484057     9.4816911378    -1.1041861149
   54      H      -1.3100423892    11.1789123366    -0.6885011356
   55      H      -2.1893306640    10.0156782569    -1.7392340253
   56      C      12.2419708335    -2.1562010072    -0.2393032701
   57      C      11.8499121986    -1.3860207123     0.8209562925
   58      N      11.4541104859    -2.4179124829    -1.3199013342
   59      C      10.5235575390    -1.0224802534     1.0068612462
   60      C      10.1909045127    -2.0427295427    -1.1460668417
   61      C       9.6107402354    -1.3403825047    -0.0121871966
   62      C       8.1446664889    -0.9119290669     0.0077482361
   63      C       7.1865007222    -1.6692407064    -0.7079573207
   64      C       7.6195004236     0.2728666419     0.5810001287
   65      N       5.8680612628    -1.3201180613    -0.8444116017
   66      N       8.3033760233     1.0517144822     1.4047107610
   67      C       6.2955805665     0.7297755547     0.3315277708
   68      C       5.3827213107    -0.1397616438    -0.2981443974
   69      S       7.4025192899     2.3880106942     1.6826524449
   70      N       5.9789971968     1.9323926873     0.8849137143
   71      C       3.9978935521     0.3228823315    -0.6563519226
   72      S       3.1404757968     1.8052748118     0.0250571523
   73      C       3.0796759692    -0.3774613136    -1.3994032326
   74      C       1.5899502195     1.1921097570    -0.5346079707
   75      S       3.4680550988    -1.5868941561    -2.5974657732
   76      C       1.8088236644     0.1268674029    -1.3652716464
   77      C       0.3116690466     1.8806409490    -0.2942331787
   78      C       1.7149543693    -1.3913585166    -3.1172875176
   79      C       0.9822959548    -0.5779290454    -2.2613201449
   80      N      -0.8144769073     1.1445109851    -0.3972961045
   81      S       0.1698010344     3.4629290083     0.3945541356
   82      C      -1.8609122642     1.8198375161     0.1877236563
   83      C      -1.4810028379     3.0460007119     0.6467254483
   84      C      13.6784919014    -2.6198439943    -0.2163162750
   85      H      12.5717041488    -1.0801539233     1.5730619287
   86      H      10.2528916093    -0.4646424277     1.8994053151
   87      H       9.6358131862    -1.9130873518    -2.0732833868
   88      H       7.4168137047    -2.5977049207    -1.2296163404
   89      H       1.3687155964    -2.0047700712    -3.9376502280
   90      H      -0.0680383538    -0.3173985931    -2.3215507319
   91      H      -2.8612944941     1.4073995426     0.2020872227
   92      H      -2.1293856883     3.7682507256     1.1265958443
   93      H      13.8913085421    -2.8998107827     0.8222176314
   94      C      14.7052295630    -1.5314306685    -0.5629503854
   95      H      13.8767972428    -3.5392228560    -0.7795200570
   96      H      14.5498340130    -0.5730574835    -0.0502262284
   97      H      14.6112177403    -1.3120740823    -1.6330725584
   98      C      16.1126827797    -2.1276936290    -0.3471474088
   99      H      16.1591131030    -3.2017928798    -0.5599948294
  100      C      16.5808595401    -1.6982273630     1.0501314637
  101      H      16.7705187161    -1.7292954343    -1.1285741548
  102      H      15.7220339024    -1.6611242429     1.7302431329
  103      H      16.9151491735    -0.6535380489     1.0593877001
  104      C      17.7748839520    -2.5770948988     1.5178745111
  105      H      18.0175170298    -2.1792573712     2.5114385459
  106      C      19.0744051343    -2.2384195331     0.7112837267
  107      H      17.5881281235    -3.6568195001     1.5490200701
  108      H      19.8579155822    -2.9116265699     1.0819286561
  109      H      19.3949483016    -1.2117689322     0.9244189456
  110      H      18.7836235404    -2.4285981229    -0.3296563142
 ----------------------------------------------------------------

    9   -5663.5051879516      6.60E-06 Convergence criterion met
 Total energy in the final basis set = -5663.5051879516

                    Orbital Energies (a.u.)
 --------------------------------------------------------------

 Alpha MOs
 -- Occupied --
-88.992 -88.986 -88.937 -88.936 -88.924 -88.922 -88.912 -88.909
-14.392 -14.392 -14.384 -14.383 -14.352 -14.352 -14.349 -14.349
-14.336 -14.332 -10.276 -10.275 -10.269 -10.267 -10.262 -10.261
-10.258 -10.256 -10.250 -10.249 -10.244 -10.244 -10.244 -10.242
-10.236 -10.235 -10.234 -10.233 -10.232 -10.232 -10.232 -10.230
-10.228 -10.227 -10.227 -10.226 -10.226 -10.224 -10.222 -10.220
-10.219 -10.213 -10.207 -10.205 -10.204 -10.203 -10.196 -10.192
-10.186 -10.185 -10.184 -10.184 -10.182 -10.181 -10.181 -10.179
-10.178 -10.177 -10.176 -10.175  -8.047  -8.042  -7.999  -7.998
 -7.982  -7.980  -7.971  -7.968  -6.012  -6.007  -6.007  -6.005
 -6.001  -5.999  -5.962  -5.962  -5.959  -5.958  -5.956  -5.955
 -5.947  -5.944  -5.943  -5.941  -5.939  -5.937  -5.936  -5.932
 -5.932  -5.929  -5.927  -5.924  -1.032  -1.031  -0.975  -0.972
 -0.956  -0.944  -0.941  -0.933  -0.913  -0.906  -0.904  -0.899
 -0.838  -0.836  -0.835  -0.826  -0.818  -0.817  -0.817  -0.814
 -0.807  -0.803  -0.798  -0.795  -0.785  -0.781  -0.768  -0.767
 -0.751  -0.749  -0.741  -0.740  -0.721  -0.720  -0.714  -0.706
 -0.696  -0.690  -0.677  -0.674  -0.663  -0.653  -0.649  -0.644
 -0.638  -0.634  -0.626  -0.623  -0.618  -0.611  -0.605  -0.598
 -0.596  -0.594  -0.589  -0.585  -0.582  -0.574  -0.570  -0.558
 -0.550  -0.547  -0.542  -0.534  -0.526  -0.523  -0.521  -0.519
 -0.510  -0.506  -0.501  -0.495  -0.489  -0.486  -0.481  -0.478
 -0.477  -0.472  -0.470  -0.465  -0.463  -0.461  -0.457  -0.453
 -0.447  -0.445  -0.439  -0.438  -0.437  -0.434  -0.434  -0.430
 -0.428  -0.425  -0.423  -0.422  -0.421  -0.419  -0.418  -0.412
 -0.409  -0.409  -0.406  -0.403  -0.402  -0.399  -0.398  -0.397
 -0.396  -0.394  -0.394  -0.393  -0.391  -0.386  -0.385  -0.385
 -0.384  -0.381  -0.379  -0.376  -0.373  -0.371  -0.357  -0.355
 -0.354  -0.354  -0.352  -0.352  -0.348  -0.347  -0.345  -0.343
 -0.340  -0.339  -0.339  -0.332  -0.330  -0.330  -0.326  -0.325
 -0.315  -0.312  -0.311  -0.308  -0.304  -0.302  -0.302  -0.300
 -0.298  -0.297  -0.293  -0.293  -0.290  -0.289  -0.286  -0.286
 -0.277  -0.271  -0.269  -0.268  -0.264  -0.255  -0.254  -0.253
 -0.245  -0.245  -0.235  -0.229  -0.197  -0.193

          Ground-State Mulliken Net Atomic Charges

     Atom                 Charge (a.u.)
  ----------------------------------------
      1 C                     0.279223
      2 C                    -0.112342
      3 N                    -0.489323
      4 C                    -0.093770
      5 C                     0.065608
      6 C                     0.057309
      7 C                     0.043040
      8 C                     0.058061
      9 C                     0.229315
     10 N                    -0.522707
     11 N                    -0.554323
     12 C                     0.180744
     13 C                     0.321154
     14 S                     0.616721
     15 N                    -0.547071
     16 C                    -0.238438
     17 S                     0.339059
     18 C                    -0.098697
     19 C                    -0.217559
     20 S                     0.278027
     21 C                     0.122017
     22 C                     0.014089
     23 C                    -0.301206
     24 C                    -0.057458
     25 N                    -0.392040
     26 S                     0.300351
     27 C                     0.117817
     28 C                    -0.306388
     29 C                    -0.232046
     30 H                     0.086999
     31 H                     0.085515
     32 H                     0.122846
     33 H                     0.112493
     34 H                     0.122755
     35 H                     0.112682
     36 H                     0.115896
     37 H                     0.136679
     38 H                     0.118231
     39 C                    -0.186889
     40 H                     0.105245
     41 H                     0.095142
     42 H                     0.111330
     43 C                    -0.175538
     44 H                     0.092541
     45 C                    -0.186329
     46 H                     0.093837
     47 H                     0.091140
     48 H                     0.084846
     49 C                    -0.185478
     50 H                     0.097910
     51 C                    -0.316358
     52 H                     0.093152
     53 H                     0.104708
     54 H                     0.103842
     55 H                     0.107370
     56 C                     0.263531
     57 C                    -0.104488
     58 N                    -0.465663
     59 C                    -0.066977
     60 C                     0.064803
     61 C                     0.025637
     62 C                     0.050882
     63 C                     0.045863
     64 C                     0.225280
     65 N                    -0.518728
     66 N                    -0.554479
     67 C                     0.226071
     68 C                     0.292641
     69 S                     0.586198
     70 N                    -0.571304
     71 C                    -0.233715
     72 S                     0.305250
     73 C                    -0.109537
     74 C                    -0.230141
     75 S                     0.280396
     76 C                     0.183762
     77 C                     0.042042
     78 C                    -0.314536
     79 C                    -0.051470
     80 N                    -0.438564
     81 S                     0.296024
     82 C                     0.157266
     83 C                    -0.319616
     84 C                    -0.230644
     85 H                     0.090143
     86 H                     0.120356
     87 H                     0.099988
     88 H                     0.124235
     89 H                     0.127382
     90 H                     0.123425
     91 H                     0.107710
     92 H                     0.121524
     93 H                     0.102905
     94 C                    -0.186926
     95 H                     0.111529
     96 H                     0.096843
     97 H                     0.101095
     98 C                    -0.174526
     99 H                     0.095230
    100 C                    -0.168510
    101 H                     0.094567
    102 H                     0.086584
    103 H                     0.094182
    104 C                    -0.190232
    105 H                     0.086459
    106 C                    -0.313788
    107 H                     0.096298
    108 H                     0.101879
    109 H                     0.104788
    110 H                     0.107341
  ----------------------------------------
  Sum of atomic charges =     0.000000

                    Cartesian Multipole Moments
 -----------------------------------------------------------------
    Charge (ESU x 10^10)
                 0.0000
    Dipole Moment (Debye)
         X       0.9679      Y      -0.5286      Z       1.2300
       Tot       1.6520
    Quadrupole Moments (Debye-Ang)
        XX    -424.8921     XY      36.9726     YY    -405.4100
        XZ      30.9626     YZ      12.0239     ZZ    -446.8866

 Total job time:  84.82s(wall), 926.91s(cpu)
        *  Thank you very much for using Q-Chem.  Have a nice day.  *
