 Q-Chem 4.4, Q-Chem, Inc., Pleasanton, CA (2016)
 Q-Chem 4.4.2 for Intel X86 Linux

User input:
--------------------------------------------------------------
$comment
SP
$end

$rem
MEM_STATIC 5000
MEM_TOTAL 20000
JOBTYPE SP
EXCHANGE B3LYP
BASIS 6-31g(d,p)
$end

$molecule
0 1
C           1.660000     19.364000     10.275000
C           2.955000     19.706000     10.345000
N           1.173000     18.657000      9.271000
C           3.882000     19.380000      9.378000
C           2.051000     18.337000      8.292000
C           3.432000     18.658000      8.255000
C           4.375000     18.176000      7.140000
C           5.651000     17.692000      7.391000
C           3.960000     18.113000      5.781000
N           6.467000     17.141000      6.471000
N           2.748000     18.528000      5.360000
C           4.885000     17.685000      4.809000
C           6.156000     17.148000      5.145000
S           2.842000     18.124000      3.727000
N           4.347000     17.690000      3.592000
C           7.163000     16.507000      4.237000
S           8.390000     15.417000      4.873000
C           7.484000     16.860000      2.960000
C           9.404000     15.772000      3.430000
S           6.761000     18.063000      1.924000
C           8.671000     16.406000      2.506000
C          10.763000     15.306000      3.380000
C           7.988000     17.745000      0.658000
C           9.066000     16.951000      1.226000
N          11.425000     15.278000      2.245000
S          11.665000     14.717000      4.801000
C          12.717000     14.700000      2.391000
C          12.991000     14.298000      3.686000
C           0.655000     19.571000     11.391000
H           3.318000     20.161000     11.262000
H           4.925000     19.631000      9.552000
H           1.688000     17.706000      7.482000
H           6.012000     17.683000      8.418000
H           7.943000     18.337000     -0.246000
H           9.941000     16.695000      0.641000
H          13.384000     14.538000      1.554000
H          13.977000     13.989000      4.007000
H           0.360000     20.616000     11.547000
C           1.039000     19.002000     12.785000
H          -0.354000     19.252000     11.100000
H           0.273000     19.385000     13.470000
H           2.058000     19.280000     13.082000
C           0.848000     17.468000     12.710000
H          -0.163000     17.234000     12.354000
C           0.949000     16.914000     14.164000
H           1.606000     17.066000     12.027000
H           0.127000     17.360000     14.738000
H           1.874000     17.171000     14.695000
C           0.736000     15.443000     14.309000
H          -0.196000     15.067000     13.870000
C           0.715000     15.030000     15.805000
H           1.559000     14.903000     13.825000
H           0.835000     13.943000     15.890000
H          -0.240000     15.336000     16.250000
H           1.589000     15.541000     16.228000
C           6.779000     22.868000     11.932000
C           6.509000     21.611000     11.465000
N           8.000000     23.466000     11.840000
C           7.522000     20.738000     11.094000
C           8.961000     22.631000     11.458000
C           8.835000     21.236000     11.066000
C          10.033000     20.423000     10.579000
C          11.329000     20.737000     11.054000
C          10.023000     19.426000      9.572000
N          12.482000     20.145000     10.608000
N           8.915000     18.884000      9.091000
C          11.212000     18.904000      8.991000
C          12.450000     19.191000      9.600000
S           9.339000     17.925000      7.836000
N          11.025000     18.020000      7.973000
C          13.740000     18.731000      8.980000
S          13.919000     17.418000      7.699000
C          15.003000     19.075000      9.395000
C          15.638000     17.284000      8.046000
S          15.417000     20.543000     10.245000
C          16.010000     18.327000      8.850000
C          16.526000     16.317000      7.381000
C          17.150000     20.102000      9.816000
C          17.262000     18.846000      9.232000
N          17.691000     16.025000      7.996000
S          16.057000     15.319000      6.046000
C          18.224000     14.879000      7.452000
C          17.465000     14.404000      6.424000
C           5.594000     23.638000     12.463000
H           5.485000     21.251000     11.420000
H           7.259000     19.728000     10.791000
H           9.839000     23.125000     11.046000
H          11.528000     21.493000     11.813000
H          17.931000     20.767000     10.158000
H          18.162000     18.337000      8.907000
H          19.168000     14.477000      7.796000
H          17.688000     13.528000      5.828000
H           4.993000     22.918000     13.031000
C           4.654000     24.188000     11.380000
H           5.838000     24.412000     13.200000
H           4.388000     23.469000     10.594000
H           5.176000     25.005000     10.868000
C           3.432000     24.809000     12.090000
H           3.680000     25.246000     13.064000
C           2.319000     23.752000     12.091000
H           3.134000     25.702000     11.528000
H           2.760000     22.754000     12.196000
H           1.834000     23.677000     11.110000
C           1.222000     24.118000     13.130000
H           0.493000     23.303000     13.037000
C           0.384000     25.353000     12.654000
H           1.566000     24.237000     14.164000
H          -0.347000     25.560000     13.446000
H          -0.177000     25.102000     11.746000
H           1.139000     26.140000     12.532000
$end

--------------------------------------------------------------

             Standard Nuclear Orientation (Angstroms)
    I     Atom           X                Y                Z
 ----------------------------------------------------------------
    1      C       6.9628717037    -0.8291632308    -0.7101298733
    2      C       5.9188276116    -0.0558587032    -0.3771718558
    3      N       6.8530354763    -2.1387130687    -0.8444772782
    4      C       4.6569480296    -0.5488746935    -0.1216544317
    5      C       5.6323529125    -2.6602337153    -0.5805164978
    6      C       4.4675264594    -1.9423286133    -0.2072034940
    7      C       3.0970794664    -2.6118658927    -0.0112625060
    8      C       1.9152995691    -2.0586649453    -0.4832773216
    9      C       2.9670913524    -3.8931554382     0.5924553012
   10      N       0.7098584837    -2.6601460499    -0.4518246539
   11      N       4.0125656529    -4.5817124788     1.0937363489
   12      C       1.6781331776    -4.4347563052     0.7623032467
   13      C       0.5170888557    -3.8395043870     0.2016275503
   14      S       3.2383773648    -6.0006764616     1.5690412091
   15      N       1.7270357180    -5.6292210239     1.3466153014
   16      C      -0.8790343872    -4.3858640500     0.1600943186
   17      S      -2.0404659474    -3.8108260246    -1.0309275116
   18      C      -1.5284775771    -5.0992937235     1.1232249662
   19      C      -3.3692842289    -4.3484596252     0.0561153055
   20      S      -0.9311720971    -5.7187426022     2.6407042083
   21      C      -2.8741519073    -5.1281641751     1.0256130100
   22      C      -4.7280301642    -3.9881579050    -0.2447653244
   23      C      -2.5663109706    -6.3116233788     3.0699154023
   24      C      -3.5399573958    -5.7289323607     2.1601748809
   25      N      -5.7333845048    -4.6026650848     0.3373829178
   26      S      -5.1852250395    -2.7228485010    -1.4151203809
   27      C      -6.9919238903    -4.1654932492    -0.1622403415
   28      C      -6.8819685352    -3.1963629119    -1.1432608353
   29      C       8.3161794825    -0.3041787910    -1.1474848706
   30      H       6.0417593003     1.0222888707    -0.4237401802
   31      H       3.8515490714     0.1561675689     0.0664251428
   32      H       5.5008670095    -3.7295551820    -0.7395544118
   33      H       1.9560616797    -1.0937709566    -0.9857203940
   34      H      -2.6913874755    -6.7900126209     4.0317909665
   35      H      -4.6003634300    -5.9137725869     2.2816620547
   36      H      -7.9310013485    -4.6004048584     0.1550724690
   37      H      -7.7325668031    -2.6408665790    -1.5155838280
   38      H       8.9135521380     0.1369541018    -0.3400607681
   39      C       8.3185966374     0.7198695153    -2.3161474497
   40      H       9.0313197454    -1.1156112707    -1.3336964047
   41      H       9.3507873533     1.0861106468    -2.3720022584
   42      H       7.5857537511     1.5228530975    -2.1677807733
   43      C       8.0555518187    -0.0816589101    -3.6136919024
   44      H       8.7718601566    -0.9087381776    -3.6940364745
   45      C       8.3368255067     0.8712461284    -4.8153949023
   46      H       7.0261944462    -0.4580052066    -3.5756936837
   47      H       9.3962916433     1.1523182982    -4.7643464866
   48      H       7.7660957001     1.8081796537    -4.8077753828
   49      C       8.1887185662     0.2604409272    -6.1700964710
   50      H       8.7669470706    -0.6581230288    -6.3269819561
   51      C       8.6316881704     1.2531127380    -7.2779803124
   52      H       7.1355110578     0.0104176955    -6.3473740158
   53      H       8.2658959549     0.9066972008    -8.2523448903
   54      H       9.7270642838     1.3137594319    -7.2905957262
   55      H       8.1355453724     2.1913935362    -6.9997763088
   56      C       3.8999020045     4.2388904523     1.7719810202
   57      C       3.6412869645     3.2123771388     0.9057093086
   58      N       2.9323061500     4.9616897360     2.4030344709
   59      C       2.3698061201     2.9923858172     0.3949458794
   60      C       1.7135635098     4.7263873219     1.9276723448
   61      C       1.3160955638     3.7633195117     0.9127414975
   62      C      -0.1465372639     3.5592692782     0.5223433499
   63      C      -1.0543923061     4.6402181138     0.6281064678
   64      C      -0.7616672362     2.3334050239     0.1659307418
   65      N      -2.4034058340     4.5434444225     0.4054265309
   66      N      -0.0848758699     1.2328598534    -0.1231069277
   67      C      -2.1725085303     2.1761428974     0.0734025492
   68      C      -2.9877703476     3.3255332294     0.0854039677
   69      S      -1.1671142312     0.0193251481    -0.2979658656
   70      N      -2.6030307612     0.9119904868    -0.1898811217
   71      C      -4.4865230706     3.2086968139     0.0716370763
   72      S      -5.4526133214     1.7146881667    -0.4095892627
   73      C      -5.3782663535     4.2406645885     0.2315321337
   74      C      -6.9039592802     2.6891849639    -0.6026615296
   75      S      -5.0559222620     5.7231180731     1.0960238645
   76      C      -6.6732702767     3.9345104297    -0.0843989823
   77      C      -8.1933585812     2.1419826519    -1.0541890175
   78      C      -6.8782369054     5.9604450975     1.0277873343
   79      C      -7.5204668574     5.0106953479     0.2425153420
   80      N      -9.0948493674     3.0154811518    -1.5491927883
   81      S      -8.5147037467     0.4546360627    -1.2727954506
   82      C     -10.0706555008     2.3302133772    -2.2358888398
   83      C      -9.8838382222     0.9812664800    -2.1731865831
   84      C       5.3551741279     4.4649085640     2.1039220694
   85      H       4.4467567826     2.5706298897     0.5599061268
   86      H       2.2290331082     2.2041953354    -0.3399124223
   87      H       0.9113630230     5.0010027533     2.6101126307
   88      H      -0.7610288663     5.6506084030     0.9114214084
   89      H      -7.2790961788     6.8599188911     1.4743393890
   90      H      -8.5776684141     4.9332692553     0.0166037029
   91      H     -10.9001257909     2.8454059193    -2.7023989495
   92      H     -10.5288577200     0.2340686791    -2.6181206161
   93      H       5.9049390384     4.3385113578     1.1637054510
   94      C       5.9566583394     3.4325072793     3.0689885595
   95      H       5.6051636207     5.4855369951     2.4163382329
   96      H       5.7234925616     2.3871473070     2.8273912739
   97      H       5.5233890456     3.6098015775     4.0604326834
   98      C       7.4693766871     3.7193591653     3.1804524371
   99      H       7.7108657262     4.7839685850     3.0832988082
  100      C       8.1858867913     2.7755617945     2.2048096779
  101      H       7.7728626066     3.5280364099     4.2164972720
  102      H       7.5633680405     2.6247310759     1.3152982956
  103      H       8.2502914468     1.7561722132     2.6046945635
  104      C       9.6363375516     3.2674783872     1.9381701124
  105      H      10.0396452875     2.5228525567     1.2401799672
  106      C      10.5449678805     3.0524014701     3.1960166233
  107      H       9.7288130695     4.2853050101     1.5417735379
  108      H      11.5372573698     3.4429119999     2.9365227014
  109      H      10.6567535803     1.9815056101     3.4030722064
  110      H      10.0342180445     3.6270261512     3.9790996846
 ----------------------------------------------------------------

   10   -5663.4917373198      8.61E-06 Convergence criterion met
 Total energy in the final basis set = -5663.4917373198

                    Orbital Energies (a.u.)
 --------------------------------------------------------------

 Alpha MOs
 -- Occupied --
-88.991 -88.980 -88.936 -88.929 -88.929 -88.922 -88.911 -88.907
-14.392 -14.389 -14.386 -14.378 -14.356 -14.349 -14.349 -14.348
-14.337 -14.330 -10.275 -10.275 -10.275 -10.264 -10.264 -10.262
-10.254 -10.251 -10.247 -10.246 -10.243 -10.242 -10.242 -10.240
-10.240 -10.239 -10.237 -10.234 -10.234 -10.232 -10.230 -10.229
-10.228 -10.227 -10.227 -10.225 -10.224 -10.224 -10.223 -10.222
-10.216 -10.213 -10.212 -10.209 -10.201 -10.195 -10.195 -10.194
-10.186 -10.185 -10.182 -10.182 -10.181 -10.180 -10.178 -10.178
-10.175 -10.173 -10.170 -10.170  -8.048  -8.034  -7.998  -7.989
 -7.988  -7.980  -7.971  -7.966  -6.013  -6.007  -6.006  -5.999
 -5.994  -5.992  -5.962  -5.959  -5.955  -5.953  -5.952  -5.950
 -5.949  -5.946  -5.945  -5.945  -5.941  -5.937  -5.936  -5.932
 -5.930  -5.927  -5.927  -5.922  -1.053  -1.025  -0.970  -0.963
 -0.960  -0.951  -0.945  -0.939  -0.927  -0.917  -0.911  -0.899
 -0.845  -0.834  -0.833  -0.824  -0.816  -0.815  -0.814  -0.809
 -0.805  -0.799  -0.798  -0.797  -0.788  -0.785  -0.774  -0.766
 -0.755  -0.749  -0.747  -0.740  -0.731  -0.719  -0.709  -0.705
 -0.696  -0.688  -0.679  -0.670  -0.655  -0.653  -0.652  -0.642
 -0.640  -0.632  -0.632  -0.622  -0.616  -0.611  -0.603  -0.596
 -0.595  -0.591  -0.590  -0.585  -0.581  -0.576  -0.570  -0.569
 -0.560  -0.556  -0.550  -0.531  -0.528  -0.520  -0.517  -0.515
 -0.512  -0.506  -0.504  -0.493  -0.490  -0.489  -0.483  -0.480
 -0.479  -0.475  -0.472  -0.467  -0.461  -0.460  -0.452  -0.448
 -0.447  -0.444  -0.443  -0.439  -0.438  -0.436  -0.434  -0.434
 -0.433  -0.427  -0.426  -0.422  -0.420  -0.418  -0.415  -0.415
 -0.410  -0.409  -0.408  -0.406  -0.405  -0.400  -0.398  -0.397
 -0.396  -0.394  -0.393  -0.391  -0.389  -0.386  -0.384  -0.381
 -0.380  -0.379  -0.376  -0.373  -0.371  -0.367  -0.363  -0.358
 -0.355  -0.354  -0.352  -0.350  -0.349  -0.347  -0.346  -0.344
 -0.341  -0.339  -0.338  -0.335  -0.330  -0.328  -0.326  -0.324
 -0.319  -0.314  -0.311  -0.308  -0.308  -0.301  -0.301  -0.298
 -0.295  -0.292  -0.290  -0.289  -0.288  -0.287  -0.285  -0.281
 -0.280  -0.274  -0.271  -0.267  -0.264  -0.258  -0.256  -0.253
 -0.253  -0.243  -0.241  -0.228  -0.199  -0.192

          Ground-State Mulliken Net Atomic Charges

     Atom                 Charge (a.u.)
  ----------------------------------------
      1 C                     0.293199
      2 C                    -0.114172
      3 N                    -0.484184
      4 C                    -0.082555
      5 C                     0.092448
      6 C                     0.027257
      7 C                     0.035651
      8 C                     0.067279
      9 C                     0.228714
     10 N                    -0.535566
     11 N                    -0.560533
     12 C                     0.189746
     13 C                     0.297281
     14 S                     0.600684
     15 N                    -0.513113
     16 C                    -0.218967
     17 S                     0.299229
     18 C                    -0.103723
     19 C                    -0.226813
     20 S                     0.272869
     21 C                     0.181977
     22 C                     0.074669
     23 C                    -0.299138
     24 C                    -0.080763
     25 N                    -0.452096
     26 S                     0.268872
     27 C                     0.115366
     28 C                    -0.301430
     29 C                    -0.251642
     30 H                     0.084796
     31 H                     0.106420
     32 H                     0.108149
     33 H                     0.117222
     34 H                     0.138692
     35 H                     0.134650
     36 H                     0.122669
     37 H                     0.131862
     38 H                     0.099166
     39 C                    -0.181057
     40 H                     0.118501
     41 H                     0.097429
     42 H                     0.094792
     43 C                    -0.165401
     44 H                     0.101012
     45 C                    -0.165054
     46 H                     0.099397
     47 H                     0.086911
     48 H                     0.085503
     49 C                    -0.180164
     50 H                     0.088748
     51 C                    -0.315590
     52 H                     0.088533
     53 H                     0.099020
     54 H                     0.103371
     55 H                     0.099032
     56 C                     0.263199
     57 C                    -0.104539
     58 N                    -0.466856
     59 C                    -0.069455
     60 C                     0.065567
     61 C                     0.025415
     62 C                     0.050217
     63 C                     0.044792
     64 C                     0.224242
     65 N                    -0.519926
     66 N                    -0.576963
     67 C                     0.221670
     68 C                     0.292323
     69 S                     0.628877
     70 N                    -0.578500
     71 C                    -0.234705
     72 S                     0.311222
     73 C                    -0.109687
     74 C                    -0.232873
     75 S                     0.279868
     76 C                     0.184837
     77 C                     0.036467
     78 C                    -0.314223
     79 C                    -0.052095
     80 N                    -0.430143
     81 S                     0.287681
     82 C                     0.135854
     83 C                    -0.315365
     84 C                    -0.230623
     85 H                     0.085197
     86 H                     0.115682
     87 H                     0.101678
     88 H                     0.122459
     89 H                     0.125732
     90 H                     0.120596
     91 H                     0.122703
     92 H                     0.125543
     93 H                     0.100265
     94 C                    -0.188274
     95 H                     0.112453
     96 H                     0.098684
     97 H                     0.101773
     98 C                    -0.176154
     99 H                     0.095301
    100 C                    -0.169457
    101 H                     0.095727
    102 H                     0.084814
    103 H                     0.098136
    104 C                    -0.193436
    105 H                     0.087441
    106 C                    -0.314002
    107 H                     0.096181
    108 H                     0.101935
    109 H                     0.105987
    110 H                     0.107606
  ----------------------------------------
  Sum of atomic charges =     0.000000

                    Cartesian Multipole Moments
 -----------------------------------------------------------------
    Charge (ESU x 10^10)
                 0.0000
    Dipole Moment (Debye)
         X      -2.5398      Y      -2.3640      Z      -0.3097
       Tot       3.4836
    Quadrupole Moments (Debye-Ang)
        XX    -391.3279     XY      16.1094     YY    -452.6590
        XZ       7.2335     YZ      -9.0636     ZZ    -447.2780

 Total job time:  100.48s(wall), 1114.32s(cpu)
        *  Thank you very much for using Q-Chem.  Have a nice day.  *
