 Q-Chem 4.4, Q-Chem, Inc., Pleasanton, CA (2016)
 Q-Chem 4.4.2 for Intel X86 Linux

User input:
--------------------------------------------------------------
$comment
SP
$end

$rem
MEM_STATIC 5000
MEM_TOTAL 20000
JOBTYPE SP
EXCHANGE B3LYP
BASIS 6-31g(d,p)
$end

$molecule
0 1
C          14.244000      8.666000     -3.351000
C          13.125000      9.350000     -2.900000
N          15.354000      9.330000     -3.589000
C          13.158000     10.742000     -2.878000
C          15.401000     10.648000     -3.613000
C          14.311000     11.473000     -3.277000
C          14.305000     12.906000     -3.413000
C          15.197000     13.501000     -4.344000
C          13.453000     13.841000     -2.862000
N          15.371000     14.809000     -4.670000
N          12.469000     13.510000     -1.948000
C          13.456000     15.161000     -3.248000
C          14.472000     15.618000     -4.205000
S          11.622000     14.859000     -1.715000
N          12.498000     15.884000     -2.676000
C          14.674000     17.021000     -4.582000
S          13.406000     18.179000     -4.454000
C          15.824000     17.643000     -5.099000
C          14.430000     19.383000     -5.329000
S          17.346000     16.951000     -5.459000
C          15.615000     18.883000     -5.625000
C          14.011000     20.748000     -5.610000
C          17.808000     18.488000     -6.207000
C          16.787000     19.425000     -6.210000
N          14.862000     21.682000     -6.004000
S          12.444000     21.345000     -5.261000
C          14.345000     22.911000     -5.877000
C          12.981000     22.948000     -5.540000
C          14.193000      7.171000     -3.421000
H          12.185000      8.850000     -2.688000
H          12.223000     11.180000     -2.544000
H          16.329000     11.179000     -3.820000
H          15.855000     12.853000     -4.921000
H          18.840000     18.622000     -6.502000
H          17.005000     20.453000     -6.476000
H          14.939000     23.797000     -6.057000
H          12.338000     23.795000     -5.336000
H          15.060000      6.766000     -2.885000
C          14.394000      6.721000     -4.861000
H          13.303000      6.775000     -2.918000
H          15.466000      6.755000     -5.092000
H          13.743000      7.213000     -5.593000
C          14.089000      5.223000     -4.952000
H          14.706000      4.730000     -4.190000
C          14.400000      4.501000     -6.302000
H          13.004000      5.182000     -4.799000
H          14.032000      3.484000     -6.123000
H          15.469000      4.466000     -6.544000
C          13.563000      5.113000     -7.490000
H          12.524000      4.801000     -7.330000
C          14.035000      4.542000     -8.786000
H          13.523000      6.207000     -7.564000
H          13.242000      4.597000     -9.542000
H          14.450000      3.529000     -8.728000
H          14.769000      5.253000     -9.185000
C           4.234000     13.838000     -1.471000
C           5.240000     14.802000     -1.577000
N           4.380000     12.630000     -1.983000
C           6.489000     14.533000     -2.152000
C           5.460000     12.360000     -2.733000
C           6.624000     13.259000     -2.775000
C           7.876000     12.904000     -3.590000
C           8.747000     13.873000     -4.002000
C           8.327000     11.597000     -3.664000
N           9.926000     13.604000     -4.560000
N           7.769000     10.581000     -3.041000
C           9.509000     11.242000     -4.349000
C          10.260000     12.313000     -4.862000
S           8.654000      9.218000     -3.448000
N           9.817000      9.963000     -4.310000
C          11.519000     12.051000     -5.631000
S          12.158000     10.386000     -6.066000
C          12.314000     12.983000     -6.329000
C          13.537000     11.066000     -6.888000
S          12.131000     14.698000     -6.466000
C          13.406000     12.445000     -6.904000
C          14.458000     10.192000     -7.605000
C          13.628000     14.687000     -7.402000
C          14.119000     13.455000     -7.642000
N          14.372000      8.888000     -7.427000
S          15.614000     10.770000     -8.745000
C          15.485000      8.288000     -8.035000
C          16.217000      9.123000     -8.802000
C           2.846000     14.198000     -0.882000
H           5.105000     15.774000     -1.113000
H           7.163000     15.376000     -2.265000
H           5.480000     11.470000     -3.360000
H           8.640000     14.901000     -3.658000
H          14.090000     15.630000     -7.661000
H          14.848000     13.185000     -8.397000
H          15.596000      7.218000     -7.914000
H          17.198000      8.896000     -9.198000
H           2.889000     14.726000      0.078000
C           1.929000     12.988000     -0.597000
H           2.400000     14.882000     -1.615000
H           2.246000     12.410000      0.280000
H           1.902000     12.391000     -1.517000
C           0.516000     13.477000     -0.416000
H           0.416000     14.107000      0.477000
C          -0.400000     12.181000     -0.230000
H           0.177000     13.954000     -1.343000
H          -0.186000     11.587000      0.666000
H          -0.165000     11.475000     -1.036000
C          -1.907000     12.630000     -0.214000
H          -2.076000     13.319000      0.622000
C          -2.823000     11.366000     -0.109000
H          -2.154000     13.175000     -1.134000
H          -2.600000     10.790000      0.797000
H          -2.659000     10.734000     -0.990000
H          -3.894000     11.598000     -0.160000
$end

--------------------------------------------------------------

             Standard Nuclear Orientation (Angstroms)
    I     Atom           X                Y                Z
 ----------------------------------------------------------------
    1      C       1.3268853702    -4.6380704268     2.4079347312
    2      C       0.2599874716    -3.7529383532     2.3668484056
    3      N       2.5491838266    -4.1701982292     2.5372486523
    4      C       0.5277855487    -2.3885567939     2.2894911136
    5      C       2.8327450336    -2.8866146420     2.4280918092
    6      C       1.8570947176    -1.8827793664     2.2796256506
    7      C       2.1506982920    -0.4944273959     2.0381784574
    8      C       3.3991157494    -0.1591845836     1.4503722743
    9      C       1.3395928199     0.6142834966     2.1670119551
   10      N       3.9022493460     1.0560591098     1.1076546797
   11      N       0.0586911659     0.5482939154     2.6848433251
   12      C       1.7079097989     1.8563987545     1.7056040129
   13      C       3.0553296972     2.0357945355     1.1495187934
   14      S      -0.5651701000     2.0191371785     2.4875713897
   15      N       0.7545270835     2.7743921054     1.8322002435
   16      C       3.6186001891     3.3334788333     0.7621122676
   17      S       2.6092624572     4.6599076962     0.3296821404
   18      C       4.9666963003     3.7166004487     0.6501850461
   19      C       4.0672106651     5.5823880940    -0.2062599636
   20      S       6.3722888576     2.7811580250     0.9225910571
   21      C       5.1738259659     4.8899756540    -0.0118156556
   22      C       4.0181673633     6.9404663177    -0.7268032308
   23      C       7.3269028542     4.1242658529     0.2744471842
   24      C       6.5515989655     5.1823187806    -0.1725951878
   25      N       5.1030682865     7.6872454561    -0.8575851308
   26      S       2.5581690779     7.7873186285    -1.0182567778
   27      C       4.7989009006     8.9809264505    -1.0241104626
   28      C       3.4316348864     9.2490050386    -1.2089117531
   29      C       1.0409371987    -6.1076206060     2.4423137093
   30      H      -0.7677547748    -4.0865908497     2.2621302772
   31      H      -0.3723893815    -1.7858400453     2.2259095441
   32      H       3.8531542179    -2.5202270944     2.5306552610
   33      H       4.0908600394    -0.9634113286     1.2043922350
   34      H       8.4036999661     4.0749268510     0.3643284550
   35      H       7.0253067911     6.1250173866    -0.4215615191
   36      H       5.5645567854     9.7448243707    -1.0456286779
   37      H       2.9175034734    10.1955287546    -1.3195270559
   38      H       1.5838982620    -6.5499164551     3.2864568640
   39      C       1.6441455137    -6.7731486777     1.2136098741
   40      H      -0.0228651813    -6.3063050195     2.6177389072
   41      H       2.7181257516    -6.9173204881     1.3853129246
   42      H       1.3832821040    -6.3016623452     0.2589686222
   43      C       1.1307618634    -8.2139173814     1.1365853977
   44      H       1.3497491099    -8.6776586436     2.1068279589
   45      C       1.7564398856    -9.1490333976     0.0528003412
   46      H       0.0704917883    -8.0854928982     0.8882921839
   47      H       1.1764195913   -10.0723879156     0.1657024772
   48      H       2.8193088656    -9.3620033191     0.2186416626
   49      C       1.5026416463    -8.5967249086    -1.4021906507
   50      H       0.4346696078    -8.7395228081    -1.6059294166
   51      C       2.2846742873    -9.3982292616    -2.3893363949
   52      H       1.6838394605    -7.5279147233    -1.5716726263
   53      H       1.8242839683    -9.3394781515    -3.3833178139
   54      H       2.4689587851   -10.4408155040    -2.1050633726
   55      H       3.2241969684    -8.8550128343    -2.5496206574
   56      C      -7.6399151253     2.0567857040     0.1145803624
   57      C      -6.5062644053     2.8512123709     0.3050805352
   58      N      -7.5411624383     0.7816737287    -0.2126219564
   59      C      -5.2036825494     2.3386565894     0.2454644335
   60      C      -6.3341419675     0.2672604173    -0.4959601430
   61      C      -5.0883670766     0.9851269096    -0.1835923783
   62      C      -3.7153036062     0.3550100467    -0.4581892562
   63      C      -2.5995918613     1.1309509323    -0.6011894119
   64      C      -3.5040031531    -0.9989823662    -0.2602431418
   65      N      -1.3674100396     0.6302494257    -0.6704133933
   66      N      -4.4122779793    -1.8348611112     0.1959284968
   67      C      -2.2403485734    -1.6018172863    -0.4395227063
   68      C      -1.1824453968    -0.7232374711    -0.7278790437
   69      S      -3.6957824090    -3.3483726919     0.2465228936
   70      N      -2.1949579278    -2.8934324236    -0.1907335858
   71      C       0.1975580872    -1.2567729808    -0.9645565541
   72      S       0.6437902423    -3.0369360833    -1.0053878232
   73      C       1.3354260650    -0.5458341862    -1.3977718533
   74      C       2.3184928730    -2.6697316811    -1.3220217220
   75      S       1.5158301781     1.1431937528    -1.7265909182
   76      C       2.4459332138    -1.3009590213    -1.4931309425
   77      C       3.2612480271    -3.7506483034    -1.5847725066
   78      C       3.2170630017     0.8007335860    -2.0517891876
   79      C       3.5357424673    -0.5077778270    -1.9993842230
   80      N       2.8910348604    -4.9941579437    -1.3478717139
   81      S       4.8221986038    -3.4965749149    -2.2695352469
   82      C       4.0213823559    -5.8174844558    -1.4613661801
   83      C       5.1079210808    -5.2025654405    -1.9738563792
   84      C      -9.0594563382     2.6794752182     0.1295974762
   85      H      -6.6198387010     3.8867026219     0.6103112993
   86      H      -4.3949729303     3.0586137981     0.3185696289
   87      H      -6.2558834565    -0.6943611928    -1.0007259147
   88      H      -2.6360730993     2.2011933819    -0.4016418780
   89      H       3.8983338270     1.6277529806    -2.1990406172
   90      H       4.4209098903    -0.9750710965    -2.4146933050
   91      H       3.8936365757    -6.8659977909    -1.2243792571
   92      H       6.1090382582    -5.6129721284    -1.9677943999
   93      H      -9.2582983263     3.3227754218     0.9949642839
   94      C     -10.2161449709     1.6559835723     0.1569883083
   95      H      -9.0972005207     3.3113022444    -0.7667456421
   96      H     -10.3283790421     1.1653954741     1.1318877037
   97      H     -10.0285043299     0.9482605779    -0.6599922013
   98      C     -11.4951849608     2.3529530728    -0.2260798577
   99      H     -11.7847758842     3.1066665286     0.5171577379
  100      C     -12.6319105023     1.2314231783    -0.2834709625
  101      H     -11.4037461035     2.7406067150    -1.2474233793
  102      H     -12.8484727526     0.7417569998     0.6729681759
  103      H     -12.2612742849     0.3966285316    -0.8909606268
  104      C     -13.9476865590     1.8794182095    -0.8506938535
  105      H     -14.2708269166     2.6926392480    -0.1900654770
  106      C     -15.0508184883     0.7782289054    -0.9858199542
  107      H     -13.7618844610     2.3222217126    -1.8375254693
  108      H     -15.2593682245     0.3063644381    -0.0182498368
  109      H     -14.7067218894     0.0154751673    -1.6945408200
  110      H     -15.9797153727     1.1447708101    -1.4399824915
 ----------------------------------------------------------------

    9   -5663.5077987510      8.78E-06 Convergence criterion met
 Total energy in the final basis set = -5663.5077987510

                    Orbital Energies (a.u.)
 --------------------------------------------------------------

 Alpha MOs
 -- Occupied --
-88.989 -88.983 -88.930 -88.923 -88.921 -88.921 -88.914 -88.905
-14.388 -14.379 -14.378 -14.374 -14.352 -14.346 -14.345 -14.338
-14.328 -14.315 -10.272 -10.267 -10.264 -10.258 -10.253 -10.251
-10.250 -10.246 -10.245 -10.242 -10.238 -10.235 -10.234 -10.233
-10.231 -10.231 -10.230 -10.230 -10.228 -10.228 -10.226 -10.224
-10.223 -10.223 -10.222 -10.220 -10.219 -10.216 -10.215 -10.215
-10.206 -10.204 -10.200 -10.198 -10.197 -10.194 -10.194 -10.186
-10.181 -10.178 -10.176 -10.176 -10.175 -10.175 -10.171 -10.169
-10.169 -10.168 -10.166 -10.164  -8.044  -8.038  -7.992  -7.985
 -7.981  -7.979  -7.973  -7.965  -6.009  -6.004  -6.003  -6.001
 -5.997  -5.995  -5.956  -5.953  -5.949  -5.949  -5.945  -5.945
 -5.943  -5.943  -5.941  -5.939  -5.938  -5.937  -5.936  -5.934
 -5.930  -5.930  -5.926  -5.922  -1.044  -1.031  -0.976  -0.972
 -0.967  -0.961  -0.943  -0.942  -0.921  -0.920  -0.913  -0.895
 -0.848  -0.847  -0.839  -0.829  -0.813  -0.810  -0.810  -0.805
 -0.801  -0.800  -0.795  -0.792  -0.782  -0.778  -0.767  -0.765
 -0.751  -0.749  -0.742  -0.740  -0.727  -0.726  -0.709  -0.709
 -0.691  -0.691  -0.681  -0.669  -0.653  -0.650  -0.646  -0.645
 -0.634  -0.627  -0.624  -0.619  -0.609  -0.602  -0.601  -0.593
 -0.593  -0.592  -0.584  -0.581  -0.580  -0.575  -0.568  -0.553
 -0.550  -0.549  -0.545  -0.536  -0.528  -0.526  -0.522  -0.512
 -0.509  -0.502  -0.499  -0.496  -0.487  -0.482  -0.482  -0.478
 -0.474  -0.472  -0.471  -0.469  -0.463  -0.457  -0.452  -0.448
 -0.445  -0.444  -0.440  -0.440  -0.435  -0.433  -0.433  -0.431
 -0.428  -0.421  -0.418  -0.418  -0.417  -0.416  -0.416  -0.414
 -0.412  -0.411  -0.406  -0.405  -0.402  -0.402  -0.401  -0.397
 -0.394  -0.391  -0.388  -0.388  -0.385  -0.384  -0.382  -0.381
 -0.380  -0.371  -0.370  -0.370  -0.362  -0.361  -0.360  -0.357
 -0.355  -0.352  -0.349  -0.349  -0.348  -0.346  -0.342  -0.338
 -0.336  -0.334  -0.333  -0.331  -0.329  -0.323  -0.322  -0.317
 -0.316  -0.310  -0.308  -0.303  -0.302  -0.299  -0.299  -0.297
 -0.296  -0.294  -0.292  -0.290  -0.285  -0.281  -0.280  -0.279
 -0.276  -0.273  -0.269  -0.263  -0.256  -0.250  -0.247  -0.244
 -0.241  -0.235  -0.233  -0.225  -0.196  -0.188

          Ground-State Mulliken Net Atomic Charges

     Atom                 Charge (a.u.)
  ----------------------------------------
      1 C                     0.311615
      2 C                    -0.117395
      3 N                    -0.498548
      4 C                    -0.076802
      5 C                     0.074401
      6 C                     0.038912
      7 C                     0.099551
      8 C                     0.018387
      9 C                     0.190387
     10 N                    -0.522011
     11 N                    -0.558528
     12 C                     0.271894
     13 C                     0.328586
     14 S                     0.595144
     15 N                    -0.591776
     16 C                    -0.228657
     17 S                     0.319329
     18 C                    -0.120679
     19 C                    -0.254711
     20 S                     0.271882
     21 C                     0.171786
     22 C                     0.052734
     23 C                    -0.311345
     24 C                    -0.040530
     25 N                    -0.434172
     26 S                     0.269426
     27 C                     0.122946
     28 C                    -0.320330
     29 C                    -0.226285
     30 H                     0.084178
     31 H                     0.111270
     32 H                     0.096209
     33 H                     0.103719
     34 H                     0.127062
     35 H                     0.133243
     36 H                     0.111767
     37 H                     0.136488
     38 H                     0.113649
     39 C                    -0.179108
     40 H                     0.092257
     41 H                     0.101037
     42 H                     0.133512
     43 C                    -0.180174
     44 H                     0.079575
     45 C                    -0.188665
     46 H                     0.084253
     47 H                     0.097128
     48 H                     0.085903
     49 C                    -0.186048
     50 H                     0.090750
     51 C                    -0.319527
     52 H                     0.115016
     53 H                     0.097489
     54 H                     0.104113
     55 H                     0.094463
     56 C                     0.285742
     57 C                    -0.123267
     58 N                    -0.482689
     59 C                    -0.074765
     60 C                     0.107837
     61 C                     0.004043
     62 C                     0.055433
     63 C                     0.044931
     64 C                     0.244704
     65 N                    -0.523368
     66 N                    -0.572335
     67 C                     0.243397
     68 C                     0.292431
     69 S                     0.585678
     70 N                    -0.574160
     71 C                    -0.243074
     72 S                     0.371570
     73 C                    -0.128799
     74 C                    -0.233400
     75 S                     0.286418
     76 C                     0.140172
     77 C                     0.087362
     78 C                    -0.310523
     79 C                    -0.056540
     80 N                    -0.445759
     81 S                     0.281191
     82 C                     0.133353
     83 C                    -0.318266
     84 C                    -0.242565
     85 H                     0.083392
     86 H                     0.102704
     87 H                     0.117440
     88 H                     0.107265
     89 H                     0.142145
     90 H                     0.113310
     91 H                     0.125281
     92 H                     0.134471
     93 H                     0.103521
     94 C                    -0.161663
     95 H                     0.114811
     96 H                     0.098239
     97 H                     0.117472
     98 C                    -0.178358
     99 H                     0.087645
    100 C                    -0.179767
    101 H                     0.093386
    102 H                     0.089395
    103 H                     0.092368
    104 C                    -0.175810
    105 H                     0.093504
    106 C                    -0.321270
    107 H                     0.091467
    108 H                     0.102334
    109 H                     0.102597
    110 H                     0.094600
  ----------------------------------------
  Sum of atomic charges =     0.000000

                    Cartesian Multipole Moments
 -----------------------------------------------------------------
    Charge (ESU x 10^10)
                 0.0000
    Dipole Moment (Debye)
         X       0.6872      Y       2.0406      Z      -1.5116
       Tot       2.6308
    Quadrupole Moments (Debye-Ang)
        XX    -433.0052     XY      -9.0717     YY    -404.8504
        XZ     -12.0228     YZ       1.1471     ZZ    -453.7690

 Total job time:  108.84s(wall), 1179.26s(cpu)
        *  Thank you very much for using Q-Chem.  Have a nice day.  *
