 Q-Chem 4.4, Q-Chem, Inc., Pleasanton, CA (2016)
 Q-Chem 4.4.2 for Intel X86 Linux

User input:
--------------------------------------------------------------
$comment
SP
$end

$rem
MEM_STATIC 5000
MEM_TOTAL 20000
JOBTYPE SP
EXCHANGE B3LYP
BASIS 6-31g(d,p)
$end

$molecule
0 1
C          11.328000     11.840000      1.095000
C          10.312000     11.926000      0.187000
N          11.141000     12.005000      2.438000
C           9.016000     12.333000      0.537000
C           9.938000     12.457000      2.786000
C           8.830000     12.589000      1.905000
C           7.421000     12.860000      2.384000
C           6.559000     13.745000      1.718000
C           6.961000     12.158000      3.493000
N           5.321000     14.039000      2.204000
N           7.626000     11.126000      4.131000
C           5.775000     12.457000      4.058000
C           4.976000     13.496000      3.428000
S           6.606000     10.576000      5.303000
N           5.439000     11.655000      5.083000
C           3.683000     13.955000      3.967000
S           2.165000     14.399000      3.044000
C           3.533000     14.158000      5.313000
C           1.413000     14.827000      4.561000
S           4.670000     14.044000      6.619000
C           2.362000     14.832000      5.582000
C           0.025000     15.255000      4.656000
C           3.463000     14.908000      7.697000
C           2.265000     15.130000      7.013000
N          -0.770000     14.951000      3.645000
S          -0.431000     16.602000      5.639000
C          -1.911000     15.722000      3.661000
C          -1.971000     16.612000      4.694000
C          12.628000     11.248000      0.740000
H          10.419000     11.521000     -0.816000
H           8.193000     12.298000     -0.171000
H           9.868000     12.548000      3.869000
H           6.918000     14.228000      0.810000
H           3.710000     14.854000      8.749000
H           1.330000     15.371000      7.506000
H          -2.746000     15.524000      3.001000
H          -2.675000     17.370000      5.014000
H          12.766000     11.483000     -0.323000
C          12.493000      9.684000      0.920000
H          13.425000     11.743000      1.310000
H          11.653000      9.319000      0.318000
H          12.290000      9.493000      1.981000
C          13.868000      8.960000      0.683000
H          14.326000      9.353000     -0.233000
C          13.629000      7.454000      0.608000
H          14.487000      9.197000      1.557000
H          12.904000      7.246000     -0.189000
H          13.278000      6.954000      1.519000
C          15.043000      6.823000      0.174000
H          15.420000      7.360000     -0.706000
C          15.018000      5.354000     -0.330000
H          15.768000      6.942000      0.989000
H          14.483000      5.182000     -1.272000
H          14.547000      4.676000      0.392000
H          16.041000      4.976000     -0.453000
C           4.234000     13.838000     -1.471000
C           5.240000     14.802000     -1.577000
N           4.380000     12.630000     -1.983000
C           6.489000     14.533000     -2.152000
C           5.460000     12.360000     -2.733000
C           6.624000     13.259000     -2.775000
C           7.876000     12.904000     -3.590000
C           8.747000     13.873000     -4.002000
C           8.327000     11.597000     -3.664000
N           9.926000     13.604000     -4.560000
N           7.769000     10.581000     -3.041000
C           9.509000     11.242000     -4.349000
C          10.260000     12.313000     -4.862000
S           8.654000      9.218000     -3.448000
N           9.817000      9.963000     -4.310000
C          11.519000     12.051000     -5.631000
S          12.158000     10.386000     -6.066000
C          12.314000     12.983000     -6.329000
C          13.537000     11.066000     -6.888000
S          12.131000     14.698000     -6.466000
C          13.406000     12.445000     -6.904000
C          14.458000     10.192000     -7.605000
C          13.628000     14.687000     -7.402000
C          14.119000     13.455000     -7.642000
N          14.372000      8.888000     -7.427000
S          15.614000     10.770000     -8.745000
C          15.485000      8.288000     -8.035000
C          16.217000      9.123000     -8.802000
C           2.846000     14.198000     -0.882000
H           5.105000     15.774000     -1.113000
H           7.163000     15.376000     -2.265000
H           5.480000     11.470000     -3.360000
H           8.640000     14.901000     -3.658000
H          14.090000     15.630000     -7.661000
H          14.848000     13.185000     -8.397000
H          15.596000      7.218000     -7.914000
H          17.198000      8.896000     -9.198000
H           2.889000     14.726000      0.078000
C           1.929000     12.988000     -0.597000
H           2.400000     14.882000     -1.615000
H           2.246000     12.410000      0.280000
H           1.902000     12.391000     -1.517000
C           0.516000     13.477000     -0.416000
H           0.416000     14.107000      0.477000
C          -0.400000     12.181000     -0.230000
H           0.177000     13.954000     -1.343000
H          -0.186000     11.587000      0.666000
H          -0.165000     11.475000     -1.036000
C          -1.907000     12.630000     -0.214000
H          -2.076000     13.319000      0.622000
C          -2.823000     11.366000     -0.109000
H          -2.154000     13.175000     -1.134000
H          -2.600000     10.790000      0.797000
H          -2.659000     10.734000     -0.990000
H          -3.894000     11.598000     -0.160000
$end

--------------------------------------------------------------

             Standard Nuclear Orientation (Angstroms)
    I     Atom           X                Y                Z
 ----------------------------------------------------------------
    1      C      -2.0497565859    -3.4248847445    -1.2017098740
    2      C      -1.8078762266    -2.1508097562    -0.7746936964
    3      N      -1.0547898199    -4.3263399746    -1.4532304553
    4      C      -0.5154621410    -1.6112371456    -0.6953701232
    5      C       0.1762154200    -3.8191562461    -1.4504438926
    6      C       0.5151400886    -2.5028270744    -1.0337226661
    7      C       1.9399336214    -2.0500514070    -0.8032436344
    8      C       2.3979448786    -0.7832099154    -1.1971513945
    9      C       2.7982137172    -2.9105354177    -0.1270723955
   10      N       3.7023569854    -0.4180694546    -1.0541216787
   11      N       2.4386771686    -4.1005110870     0.4803684467
   12      C       4.1121627147    -2.6330307990    -0.0186693586
   13      C       4.5800497573    -1.3767130521    -0.5822023517
   14      S       3.7963390459    -4.6664696041     1.2239605283
   15      N       4.8019089634    -3.5256343196     0.7122438152
   16      C       5.9969155073    -0.9698938318    -0.5758330146
   17      S       6.6948682927     0.6974227272    -0.2820535032
   18      C       6.9744423884    -1.8805862970    -0.8766742194
   19      C       8.2862255201     0.0426091139    -0.5800103908
   20      S       6.8753636316    -3.5397377006    -1.3754737982
   21      C       8.1850310697    -1.2549825516    -1.0790921004
   22      C       9.4988640576     0.8375059769    -0.4519488649
   23      C       8.6481831118    -3.4674917693    -1.8416503915
   24      C       9.1959766337    -2.2288640713    -1.4980406082
   25      N       9.4192717549     1.9478385995     0.2603632385
   26      S      10.7558967015     0.7495304270    -1.6354873031
   27      C      10.4762904085     2.7882449403    -0.0098343713
   28      C      11.3559485450     2.3025313059    -0.9334537888
   29      C      -3.3914179988    -4.0236417622    -1.1126947805
   30      H      -2.5918853924    -1.5533579364    -0.3165845928
   31      H      -0.3272719776    -0.6352967391    -0.2572573691
   32      H       0.9073232294    -4.6023582264    -1.6457539772
   33      H       1.6872073782    -0.0996971603    -1.6600731148
   34      H       9.0856728952    -4.4405183319    -2.0217919966
   35      H      10.2619247948    -2.0456848061    -1.4235095783
   36      H      10.6646662403     3.6790570087     0.5758254315
   37      H      12.2620525464     2.6707690133    -1.3981650212
   38      H      -4.0860113227    -3.1843078531    -1.2442117127
   39      C      -3.5446548239    -4.6098477523     0.3466208168
   40      H      -3.5361630134    -4.7259372017    -1.9439372219
   41      H      -3.3562848909    -3.8170041999     1.0795224949
   42      H      -2.7915928316    -5.3989950881     0.4630472662
   43      C      -4.9025896798    -5.3840964859     0.5125178503
   44      H      -5.7144411866    -4.7759325801     0.0950219886
   45      C      -5.1178447290    -5.6964797116     1.9913227678
   46      H      -4.7879066585    -6.3166562370    -0.0535087526
   47      H      -5.0984915634    -4.7591662052     2.5615567948
   48      H      -4.4153372212    -6.3921508947     2.4663457216
   49      C      -6.6031703332    -6.3059164250     2.0824695824
   50      H      -7.2980116779    -5.6360148746     1.5596642472
   51      C      -7.2325883523    -6.3817063833     3.5004578896
   52      H      -6.6323801585    -7.2867069398     1.5913405237
   53      H      -7.4371887667    -5.4184204012     3.9835642829
   54      H      -6.5949952334    -6.9247847792     4.2085185301
   55      H      -8.1730639118    -6.9466180855     3.4700853557
   56      C       2.2535132315     2.9701646087     0.0174737251
   57      C       1.6494616057     2.8433980622    -1.2361689178
   58      N       1.5501627289     2.8969994693     1.1322243397
   59      C       0.2885583114     2.5505777695    -1.3948683178
   60      C       0.2113911303     2.8298671386     1.0616279013
   61      C      -0.4891357429     2.5485321368    -0.2012947870
   62      C      -2.0179096131     2.4141293484    -0.2516966150
   63      C      -2.7037053179     2.5999983513    -1.4189510710
   64      C      -2.7106510608     1.8045333015     0.7805959531
   65      N      -4.0010872947     2.3305665663    -1.5530126967
   66      N      -2.1458294147     1.2733346984     1.8438708715
   67      C      -4.1073881820     1.6048362186     0.7403406524
   68      C      -4.7393953477     1.9665740860    -0.4612930929
   69      S      -3.3834731797     0.6788834359     2.8038232701
   70      N      -4.6163716614     0.9908257350     1.7873138821
   71      C      -6.2238952155     1.8230669869    -0.6053481336
   72      S      -7.3619882471     1.2800765481     0.7286970811
   73      C      -7.0339617767     2.2610663646    -1.6729630977
   74      C      -8.7500052663     1.4258521094    -0.3162350890
   75      S      -6.5776704884     3.0301826993    -3.1540914932
   76      C      -8.3382929971     1.9619153967    -1.5254444006
   77      C     -10.0888570242     1.2170632520     0.2223641899
   78      C      -8.2857763863     2.9756303530    -3.5975148611
   79      C      -9.0920733090     2.5000566341    -2.6278654862
   80      N     -10.2198778699     0.6924589141     1.4253271264
   81      S     -11.5239683142     1.6957804646    -0.6030480803
   82      C     -11.5746515497     0.3877409667     1.6257473077
   83      C     -12.4013002940     0.8809601461     0.6798484259
   84      C       3.7498097183     3.3549433782     0.1443875626
   85      H       2.2602689019     2.8706334796    -2.1330957147
   86      H      -0.0955914323     2.5636072398    -2.4097344210
   87      H      -0.3916886974     3.0179391951     1.9485059217
   88      H      -2.1738740908     2.7251858867    -2.3624424338
   89      H      -8.5739512649     3.2474592206    -4.6039135426
   90      H     -10.1670479369     2.6210238791    -2.5633482394
   91      H     -11.8353813937    -0.1183299095     2.5464938617
   92      H     -13.4401360288     0.6021349074     0.5624482451
   93      H       4.4224227793     2.7530937197    -0.4781890662
   94      C       4.3373263035     3.2134040789     1.5660080777
   95      H       3.8040465126     4.3897985053    -0.2164368214
   96      H       4.4932044758     2.1681825200     1.8608230843
   97      H       3.6607002975     3.7527112117     2.2404434449
   98      C       5.6353502611     3.9740424182     1.6368185461
   99      H       6.3998516208     3.5334467870     0.9843140167
  100      C       6.1420093679     3.8813127546     3.1494208596
  101      H       5.4423086720     5.0367400013     1.4492344541
  102      H       6.3839739279     2.8699492446     3.4958959704
  103      H       5.3098957210     4.1577303370     3.8085697037
  104      C       7.4021119366     4.8075757942     3.3139939373
  105      H       8.1982751947     4.4673765198     2.6412632927
  106      C       7.8671263010     4.7889682237     4.8077115810
  107      H       7.1592463676     5.8389309520     3.0280623827
  108      H       8.1125132138     3.7709702930     5.1329906553
  109      H       7.0607816476     5.1859047812     5.4359875309
  110      H       8.7045164519     5.4674740626     5.0123418857
 ----------------------------------------------------------------

    9   -5663.4925035808      7.46E-06 Convergence criterion met
 Total energy in the final basis set = -5663.4925035808

                    Orbital Energies (a.u.)
 --------------------------------------------------------------

 Alpha MOs
 -- Occupied --
-88.990 -88.987 -88.931 -88.927 -88.926 -88.923 -88.913 -88.908
-14.387 -14.378 -14.377 -14.374 -14.350 -14.350 -14.345 -14.344
-14.326 -14.321 -10.272 -10.269 -10.266 -10.262 -10.252 -10.250
-10.249 -10.247 -10.243 -10.242 -10.240 -10.237 -10.237 -10.236
-10.235 -10.234 -10.234 -10.231 -10.231 -10.229 -10.229 -10.226
-10.226 -10.225 -10.223 -10.219 -10.217 -10.215 -10.214 -10.214
-10.212 -10.211 -10.207 -10.207 -10.203 -10.203 -10.194 -10.186
-10.178 -10.177 -10.177 -10.177 -10.175 -10.174 -10.171 -10.167
-10.166 -10.164 -10.163 -10.160  -8.046  -8.043  -7.992  -7.987
 -7.985  -7.981  -7.974  -7.968  -6.011  -6.008  -6.005  -6.004
 -6.003  -6.000  -5.956  -5.953  -5.951  -5.949  -5.949  -5.948
 -5.945  -5.945  -5.944  -5.941  -5.941  -5.938  -5.937  -5.934
 -5.933  -5.930  -5.929  -5.924  -1.042  -1.035  -0.972  -0.970
 -0.959  -0.943  -0.941  -0.934  -0.920  -0.913  -0.911  -0.889
 -0.848  -0.837  -0.828  -0.828  -0.812  -0.810  -0.809  -0.801
 -0.799  -0.794  -0.793  -0.792  -0.778  -0.776  -0.762  -0.761
 -0.751  -0.745  -0.738  -0.733  -0.728  -0.727  -0.707  -0.707
 -0.688  -0.686  -0.680  -0.670  -0.650  -0.647  -0.644  -0.642
 -0.630  -0.626  -0.622  -0.620  -0.607  -0.604  -0.601  -0.599
 -0.592  -0.591  -0.580  -0.577  -0.572  -0.571  -0.567  -0.560
 -0.549  -0.544  -0.542  -0.539  -0.527  -0.522  -0.519  -0.516
 -0.510  -0.499  -0.499  -0.497  -0.484  -0.482  -0.479  -0.474
 -0.474  -0.469  -0.469  -0.465  -0.460  -0.458  -0.451  -0.445
 -0.444  -0.441  -0.438  -0.436  -0.436  -0.433  -0.431  -0.430
 -0.420  -0.419  -0.417  -0.415  -0.414  -0.414  -0.412  -0.410
 -0.408  -0.404  -0.404  -0.401  -0.401  -0.399  -0.395  -0.394
 -0.393  -0.389  -0.389  -0.385  -0.385  -0.382  -0.381  -0.380
 -0.377  -0.375  -0.365  -0.364  -0.360  -0.359  -0.357  -0.355
 -0.354  -0.352  -0.347  -0.346  -0.342  -0.340  -0.337  -0.335
 -0.334  -0.333  -0.330  -0.326  -0.323  -0.322  -0.320  -0.318
 -0.314  -0.311  -0.309  -0.301  -0.300  -0.299  -0.297  -0.296
 -0.290  -0.290  -0.289  -0.288  -0.283  -0.283  -0.280  -0.278
 -0.276  -0.275  -0.264  -0.259  -0.258  -0.255  -0.249  -0.248
 -0.248  -0.243  -0.232  -0.225  -0.196  -0.194

          Ground-State Mulliken Net Atomic Charges

     Atom                 Charge (a.u.)
  ----------------------------------------
      1 C                     0.248238
      2 C                    -0.115311
      3 N                    -0.459515
      4 C                    -0.081221
      5 C                     0.093521
      6 C                     0.016965
      7 C                     0.005768
      8 C                     0.080920
      9 C                     0.248241
     10 N                    -0.520429
     11 N                    -0.564275
     12 C                     0.222540
     13 C                     0.236704
     14 S                     0.620540
     15 N                    -0.546670
     16 C                    -0.210889
     17 S                     0.367379
     18 C                    -0.098544
     19 C                    -0.216985
     20 S                     0.256529
     21 C                     0.103897
     22 C                     0.061978
     23 C                    -0.303254
     24 C                    -0.070771
     25 N                    -0.436576
     26 S                     0.260306
     27 C                     0.127945
     28 C                    -0.305397
     29 C                    -0.226170
     30 H                     0.083360
     31 H                     0.122577
     32 H                     0.102973
     33 H                     0.114009
     34 H                     0.139259
     35 H                     0.116233
     36 H                     0.123815
     37 H                     0.136492
     38 H                     0.092728
     39 C                    -0.181772
     40 H                     0.111445
     41 H                     0.093261
     42 H                     0.117954
     43 C                    -0.172875
     44 H                     0.097224
     45 C                    -0.175653
     46 H                     0.099828
     47 H                     0.093402
     48 H                     0.096868
     49 C                    -0.178203
     50 H                     0.096471
     51 C                    -0.327221
     52 H                     0.094298
     53 H                     0.102325
     54 H                     0.095798
     55 H                     0.097350
     56 C                     0.294539
     57 C                    -0.121971
     58 N                    -0.481095
     59 C                    -0.087769
     60 C                     0.106403
     61 C                    -0.004737
     62 C                     0.056676
     63 C                     0.048408
     64 C                     0.246393
     65 N                    -0.516324
     66 N                    -0.579755
     67 C                     0.239494
     68 C                     0.289733
     69 S                     0.590718
     70 N                    -0.567628
     71 C                    -0.237043
     72 S                     0.362747
     73 C                    -0.121960
     74 C                    -0.235976
     75 S                     0.289577
     76 C                     0.144881
     77 C                     0.078134
     78 C                    -0.313471
     79 C                    -0.064895
     80 N                    -0.435301
     81 S                     0.277516
     82 C                     0.121152
     83 C                    -0.312036
     84 C                    -0.253546
     85 H                     0.092717
     86 H                     0.105985
     87 H                     0.117905
     88 H                     0.107873
     89 H                     0.129320
     90 H                     0.112531
     91 H                     0.119755
     92 H                     0.132630
     93 H                     0.127355
     94 C                    -0.163578
     95 H                     0.109912
     96 H                     0.103240
     97 H                     0.111733
     98 C                    -0.189506
     99 H                     0.108396
    100 C                    -0.176677
    101 H                     0.087682
    102 H                     0.094114
    103 H                     0.087645
    104 C                    -0.178110
    105 H                     0.098460
    106 C                    -0.321309
    107 H                     0.087225
    108 H                     0.103693
    109 H                     0.100694
    110 H                     0.090040
  ----------------------------------------
  Sum of atomic charges =     0.000000

                    Cartesian Multipole Moments
 -----------------------------------------------------------------
    Charge (ESU x 10^10)
                 0.0000
    Dipole Moment (Debye)
         X      -0.5484      Y       0.8116      Z      -1.9072
       Tot       2.1440
    Quadrupole Moments (Debye-Ang)
        XX    -344.1492     XY      -8.8581     YY    -439.3239
        XZ      -8.6731     YZ     -14.3033     ZZ    -442.5108

 Total job time:  90.69s(wall), 995.03s(cpu)
        *  Thank you very much for using Q-Chem.  Have a nice day.  *
