 Q-Chem 4.4, Q-Chem, Inc., Pleasanton, CA (2016)
 Q-Chem 4.4.2 for Intel X86 Linux

User input:
--------------------------------------------------------------
$comment
SP
$end

$rem
MEM_STATIC 5000
MEM_TOTAL 20000
JOBTYPE SP
EXCHANGE B3LYP
BASIS 6-31g(d,p)
$end

$molecule
0 1
C          -0.081000     14.269000     -5.115000
C           0.389000     14.377000     -6.429000
N           0.438000     14.974000     -4.054000
C           1.316000     15.435000     -6.619000
C           1.460000     15.843000     -4.246000
C           1.948000     16.139000     -5.559000
C           2.817000     17.328000     -5.857000
C           2.493000     18.178000     -6.903000
C           3.801000     17.869000     -5.025000
N           3.109000     19.325000     -7.187000
N           4.258000     17.265000     -3.975000
C           4.454000     19.081000     -5.248000
C           4.031000     19.813000     -6.374000
S           5.330000     18.250000     -3.268000
N           5.354000     19.456000     -4.337000
C           4.431000     21.268000     -6.767000
S           3.890000     22.024000     -8.277000
C           4.957000     22.249000     -6.000000
C           4.615000     23.567000     -7.909000
S           5.259000     22.316000     -4.297000
C           5.000000     23.503000     -6.599000
C           4.712000     24.687000     -8.817000
C           5.432000     24.116000     -4.422000
C           5.368000     24.547000     -5.698000
N           5.754000     25.468000     -8.663000
S           3.756000     24.913000    -10.210000
C           5.719000     26.492000     -9.528000
C           4.691000     26.408000    -10.449000
C          -1.236000     13.327000     -4.871000
H          -0.057000     13.723000     -7.173000
H           1.639000     15.682000     -7.626000
H           1.918000     16.248000     -3.344000
H           1.622000     17.937000     -7.510000
H           5.528000     24.678000     -3.502000
H           5.276000     25.574000     -6.032000
H           6.406000     27.320000     -9.412000
H           4.397000     27.158000    -11.171000
H          -1.640000     13.092000     -5.863000
C          -2.372000     14.103000     -4.217000
H          -0.966000     12.397000     -4.354000
H          -2.754000     14.864000     -4.909000
H          -2.040000     14.599000     -3.296000
C          -3.546000     13.097000     -3.918000
H          -3.956000     12.664000     -4.839000
C          -4.605000     13.883000     -3.126000
H          -3.188000     12.283000     -3.275000
H          -4.843000     14.812000     -3.658000
H          -4.212000     14.236000     -2.164000
C          -5.794000     13.024000     -2.880000
H          -6.407000     12.769000     -3.753000
C          -6.821000     13.702000     -2.009000
H          -5.464000     12.054000     -2.490000
H          -6.287000     14.061000     -1.121000
H          -7.608000     12.994000     -1.722000
H          -7.306000     14.575000     -2.464000
C           4.234000     13.838000     -1.471000
C           5.240000     14.802000     -1.577000
N           4.380000     12.630000     -1.983000
C           6.489000     14.533000     -2.152000
C           5.460000     12.360000     -2.733000
C           6.624000     13.259000     -2.775000
C           7.876000     12.904000     -3.590000
C           8.747000     13.873000     -4.002000
C           8.327000     11.597000     -3.664000
N           9.926000     13.604000     -4.560000
N           7.769000     10.581000     -3.041000
C           9.509000     11.242000     -4.349000
C          10.260000     12.313000     -4.862000
S           8.654000      9.218000     -3.448000
N           9.817000      9.963000     -4.310000
C          11.519000     12.051000     -5.631000
S          12.158000     10.386000     -6.066000
C          12.314000     12.983000     -6.329000
C          13.537000     11.066000     -6.888000
S          12.131000     14.698000     -6.466000
C          13.406000     12.445000     -6.904000
C          14.458000     10.192000     -7.605000
C          13.628000     14.687000     -7.402000
C          14.119000     13.455000     -7.642000
N          14.372000      8.888000     -7.427000
S          15.614000     10.770000     -8.745000
C          15.485000      8.288000     -8.035000
C          16.217000      9.123000     -8.802000
C           2.846000     14.198000     -0.882000
H           5.105000     15.774000     -1.113000
H           7.163000     15.376000     -2.265000
H           5.480000     11.470000     -3.360000
H           8.640000     14.901000     -3.658000
H          14.090000     15.630000     -7.661000
H          14.848000     13.185000     -8.397000
H          15.596000      7.218000     -7.914000
H          17.198000      8.896000     -9.198000
H           2.889000     14.726000      0.078000
C           1.929000     12.988000     -0.597000
H           2.400000     14.882000     -1.615000
H           2.246000     12.410000      0.280000
H           1.902000     12.391000     -1.517000
C           0.516000     13.477000     -0.416000
H           0.416000     14.107000      0.477000
C          -0.400000     12.181000     -0.230000
H           0.177000     13.954000     -1.343000
H          -0.186000     11.587000      0.666000
H          -0.165000     11.475000     -1.036000
C          -1.907000     12.630000     -0.214000
H          -2.076000     13.319000      0.622000
C          -2.823000     11.366000     -0.109000
H          -2.154000     13.175000     -1.134000
H          -2.600000     10.790000      0.797000
H          -2.659000     10.734000     -0.990000
H          -3.894000     11.598000     -0.160000
$end

--------------------------------------------------------------

             Standard Nuclear Orientation (Angstroms)
    I     Atom           X                Y                Z
 ----------------------------------------------------------------
    1      C      -4.1493419698    -3.5128618347    -2.1694649725
    2      C      -3.6583885026    -2.6668970343    -3.1706983367
    3      N      -4.1776834246    -3.1852641152    -0.8338065221
    4      C      -3.3796418797    -1.3500831236    -2.7200383267
    5      C      -3.7218203672    -1.9791569905    -0.4166692827
    6      C      -3.3106765572    -0.9755340162    -1.3512444231
    7      C      -3.1360399813     0.4681376951    -0.9730909406
    8      C      -3.7290993060     1.4610067863    -1.7373445668
    9      C      -2.6585341744     0.9572027394     0.2459105306
   10      N      -3.7512312894     2.7590952603    -1.4370155990
   11      N      -2.0765490268     0.2153144883     1.1330746140
   12      C      -2.6885451860     2.2967180904     0.6330538680
   13      C      -3.2978929517     3.1878888664    -0.2709035140
   14      S      -1.7347045470     1.1503073331     2.4090796029
   15      N      -2.2075652716     2.5838462941     1.8441532515
   16      C      -3.6487613900     4.6888328896    -0.0352504255
   17      S      -4.3293080820     5.7142306808    -1.3118602210
   18      C      -3.7786431211     5.3662682272     1.1273062825
   19      C      -4.5296569115     7.0958979833    -0.2665115654
   20      S      -3.7399963621     4.8171849254     2.7683169332
   21      C      -4.3108260445     6.6449514414     1.0051728561
   22      C      -4.9141210834     8.4222022970    -0.6923955497
   23      C      -4.4888787471     6.3845781419     3.2860115132
   24      C      -4.6224001926     7.2492887185     2.2601067212
   25      N      -4.4343927319     9.4180613054     0.0129884197
   26      S      -5.6944359820     8.7992837220    -2.1601759344
   27      C      -4.8879367482    10.5937966198    -0.4452367387
   28      C      -5.6245590599    10.4903735551    -1.6109006008
   29      C      -4.6877577734    -4.8553923808    -2.6037979727
   30      H      -3.6279808418    -3.0588196211    -4.1834372272
   31      H      -3.1182963794    -0.5858271563    -3.4459848439
   32      H      -3.6332443790    -1.8492593949     0.6616042953
   33      H      -4.2862308570     1.1631585410    -2.6239458625
   34      H      -4.7914442117     6.4808876263     4.3207282005
   35      H      -5.1841919818     8.1761845653     2.2618601917
   36      H      -4.7316027057    11.4948912793     0.1332069335
   37      H      -6.1767247005    11.2769932882    -2.1074512033
   38      H      -4.8063011074    -4.7880037532    -3.6918748316
   39      C      -6.1237426357    -4.9897721212    -2.1136168218
   40      H      -4.0426977207    -5.7084254108    -2.3561668395
   41      H      -6.7600469564    -4.2440435889    -2.6064806647
   42      H      -6.1910897890    -4.8479068710    -1.0274218063
   43      C      -6.6520439686    -6.4150608021    -2.5249109718
   44      H      -6.6833093391    -6.5391425571    -3.6146156082
   45      C      -8.0422623069    -6.5682759759    -1.8843182132
   46      H      -6.0041169262    -7.1923007254    -2.1002962649
   47      H      -8.6577975671    -5.6962193577    -2.1359977679
   48      H      -7.9895492148    -6.5329326606    -0.7886566870
   49      C      -8.6519763477    -7.8594366271    -2.3005764999
   50      H      -8.9522277096    -7.9465471329    -3.3518537609
   51      C      -9.9688019816    -8.1195626002    -1.6140208007
   52      H      -7.9214793843    -8.6649928744    -2.1614602938
   53      H      -9.7903965019    -7.9886780054    -0.5399529687
   54      H     -10.3153936176    -9.1390041474    -1.8228632522
   55      H     -10.7757657955    -7.4287636192    -1.8896748791
   56      C      -0.6367850389    -3.6112301536     2.2730556500
   57      C      -0.2520566306    -2.3725735568     2.7929420673
   58      N       0.1551125153    -4.2982023114     1.4707517685
   59      C       1.0155235970    -1.8186978569     2.5705705858
   60      C       1.2976893255    -3.7409702135     1.0396942064
   61      C       1.8435110012    -2.5155993291     1.6441823321
   62      C       3.1833577186    -1.9265686570     1.1798466335
   63      C       3.4834387215    -0.6094185907     1.3857910306
   64      C       4.2385122824    -2.7526343944     0.8314356061
   65      N       4.6892659154    -0.0921379118     1.1573890214
   66      N       4.2070048218    -4.0666869316     0.8948564957
   67      C       5.5042724836    -2.2485845431     0.4624385051
   68      C       5.6610974026    -0.8567622326     0.5740073209
   69      S       5.6981982688    -4.6132509255     0.3617027616
   70      N       6.4105671809    -3.1605019045     0.1809022772
   71      C       6.9548676617    -0.2100236314     0.1828887985
   72      S       8.3913914963    -1.0894599128    -0.5470167430
   73      C       7.2398497799     1.1681319565     0.0973004359
   74      C       9.3171025784     0.3845702115    -0.6471126232
   75      S       6.2306538779     2.5235050736     0.4687440319
   76      C       8.5091662065     1.4408448228    -0.2590652493
   77      C      10.6255674035     0.3774077340    -1.2905988316
   78      C       7.6193309053     3.5424230533     0.0806612259
   79      C       8.6888909335     2.8642482486    -0.3804518627
   80      N      11.1921998054    -0.7790538727    -1.5752394358
   81      S      11.4467686714     1.8125313148    -1.7764679348
   82      C      12.5144509811    -0.5330647371    -1.9747067979
   83      C      12.8021253319     0.7705756161    -2.1724523346
   84      C      -2.0708665102    -4.1564415863     2.4949110701
   85      H      -0.9099184205    -1.8494272087     3.4798487304
   86      H       1.1781402262    -0.8129795596     2.9444429415
   87      H       1.8334577845    -4.1768181230     0.1978998384
   88      H       2.8343049812     0.0216812994     1.9915197785
   89      H       7.5658922461     4.6019514414     0.2911794066
   90      H       9.5316700234     3.2766238081    -0.9227025459
   91      H      13.1375009691    -1.3952322210    -2.1755498768
   92      H      13.7996000292     1.1692004449    -2.3022540071
   93      H      -2.4059493828    -4.1266827949     3.5384947432
   94      C      -2.2745336200    -5.6314655479     2.0837687335
   95      H      -2.7185076745    -3.4816207385     1.9211177749
   96      H      -1.8066138527    -6.3370874338     2.7815157116
   97      H      -1.8952209835    -5.7269056466     1.0588047774
   98      C      -3.7507322297    -5.9091426008     1.9733870361
   99      H      -4.2524627705    -5.8289024394     2.9461033261
  100      C      -3.8992337750    -7.4102243845     1.4461595996
  101      H      -4.1809272202    -5.2722041162     1.1917089457
  102      H      -3.5134289014    -8.1799305539     2.1245068648
  103      H      -3.2530364246    -7.5320396721     0.5681578797
  104      C      -5.4176225501    -7.6886479547     1.1463565922
  105      H      -6.0020197240    -7.5656512846     2.0658835154
  106      C      -5.5734709809    -9.1294209147     0.5567282819
  107      H      -5.8042579253    -6.9617240165     0.4207336359
  108      H      -5.1901620332    -9.8852256731     1.2525547097
  109      H      -5.0172749812    -9.1895980025    -0.3864078313
  110      H      -6.6016979464    -9.3703312387     0.2597812778
 ----------------------------------------------------------------

   10   -5663.5062970981      3.29E-06 Convergence criterion met
 Total energy in the final basis set = -5663.5062970981

                    Orbital Energies (a.u.)
 --------------------------------------------------------------

 Alpha MOs
 -- Occupied --
-88.992 -88.983 -88.931 -88.928 -88.919 -88.917 -88.910 -88.901
-14.392 -14.382 -14.379 -14.374 -14.347 -14.346 -14.341 -14.338
-14.336 -14.322 -10.269 -10.269 -10.267 -10.262 -10.258 -10.254
-10.247 -10.245 -10.243 -10.240 -10.238 -10.237 -10.236 -10.234
-10.232 -10.232 -10.232 -10.230 -10.229 -10.227 -10.226 -10.226
-10.224 -10.224 -10.224 -10.223 -10.223 -10.221 -10.219 -10.218
-10.215 -10.210 -10.206 -10.204 -10.202 -10.200 -10.193 -10.192
-10.185 -10.178 -10.178 -10.176 -10.173 -10.170 -10.168 -10.168
-10.167 -10.165 -10.162 -10.160  -8.048  -8.038  -7.993  -7.990
 -7.977  -7.976  -7.971  -7.962  -6.013  -6.008  -6.006  -6.004
 -5.998  -5.996  -5.956  -5.954  -5.953  -5.950  -5.950  -5.947
 -5.941  -5.941  -5.938  -5.937  -5.935  -5.934  -5.933  -5.932
 -5.927  -5.927  -5.923  -5.918  -1.062  -1.038  -0.982  -0.969
 -0.969  -0.955  -0.937  -0.933  -0.926  -0.917  -0.916  -0.908
 -0.845  -0.843  -0.835  -0.823  -0.814  -0.811  -0.808  -0.808
 -0.807  -0.796  -0.793  -0.792  -0.791  -0.774  -0.773  -0.762
 -0.751  -0.748  -0.744  -0.736  -0.725  -0.719  -0.710  -0.705
 -0.695  -0.686  -0.680  -0.676  -0.658  -0.647  -0.647  -0.641
 -0.639  -0.630  -0.628  -0.619  -0.611  -0.604  -0.598  -0.595
 -0.591  -0.590  -0.580  -0.579  -0.577  -0.572  -0.569  -0.559
 -0.554  -0.549  -0.546  -0.540  -0.527  -0.524  -0.519  -0.516
 -0.509  -0.507  -0.505  -0.495  -0.491  -0.484  -0.479  -0.478
 -0.476  -0.475  -0.471  -0.468  -0.466  -0.458  -0.450  -0.449
 -0.448  -0.444  -0.440  -0.438  -0.437  -0.434  -0.433  -0.430
 -0.430  -0.424  -0.420  -0.418  -0.417  -0.414  -0.412  -0.411
 -0.410  -0.409  -0.406  -0.402  -0.401  -0.400  -0.399  -0.397
 -0.396  -0.392  -0.390  -0.389  -0.387  -0.386  -0.383  -0.382
 -0.379  -0.375  -0.372  -0.367  -0.364  -0.363  -0.357  -0.356
 -0.355  -0.353  -0.350  -0.344  -0.343  -0.342  -0.339  -0.336
 -0.334  -0.333  -0.331  -0.329  -0.328  -0.328  -0.321  -0.316
 -0.313  -0.312  -0.309  -0.305  -0.304  -0.302  -0.297  -0.296
 -0.293  -0.293  -0.293  -0.286  -0.285  -0.280  -0.280  -0.278
 -0.277  -0.274  -0.271  -0.260  -0.255  -0.254  -0.252  -0.245
 -0.241  -0.240  -0.236  -0.228  -0.195  -0.193

          Ground-State Mulliken Net Atomic Charges

     Atom                 Charge (a.u.)
  ----------------------------------------
      1 C                     0.280015
      2 C                    -0.114725
      3 N                    -0.492467
      4 C                    -0.105744
      5 C                     0.098035
      6 C                     0.046713
      7 C                     0.064933
      8 C                     0.057506
      9 C                     0.221243
     10 N                    -0.509942
     11 N                    -0.546841
     12 C                     0.224735
     13 C                     0.291331
     14 S                     0.589762
     15 N                    -0.557835
     16 C                    -0.235451
     17 S                     0.295885
     18 C                    -0.100661
     19 C                    -0.211478
     20 S                     0.258496
     21 C                     0.135585
     22 C                     0.035874
     23 C                    -0.322017
     24 C                    -0.017476
     25 N                    -0.406885
     26 S                     0.276057
     27 C                     0.131082
     28 C                    -0.314712
     29 C                    -0.227981
     30 H                     0.102918
     31 H                     0.098707
     32 H                     0.119380
     33 H                     0.108592
     34 H                     0.128486
     35 H                     0.107611
     36 H                     0.116587
     37 H                     0.129698
     38 H                     0.095078
     39 C                    -0.186113
     40 H                     0.120881
     41 H                     0.093588
     42 H                     0.126382
     43 C                    -0.185655
     44 H                     0.090988
     45 C                    -0.165519
     46 H                     0.100374
     47 H                     0.087045
     48 H                     0.096525
     49 C                    -0.172707
     50 H                     0.088738
     51 C                    -0.318326
     52 H                     0.093470
     53 H                     0.095746
     54 H                     0.094621
     55 H                     0.101188
     56 C                     0.285969
     57 C                    -0.109660
     58 N                    -0.483014
     59 C                    -0.075298
     60 C                     0.109967
     61 C                     0.004743
     62 C                     0.055921
     63 C                     0.046868
     64 C                     0.244382
     65 N                    -0.516695
     66 N                    -0.573072
     67 C                     0.240520
     68 C                     0.289923
     69 S                     0.587729
     70 N                    -0.566406
     71 C                    -0.237123
     72 S                     0.363663
     73 C                    -0.122817
     74 C                    -0.235521
     75 S                     0.288140
     76 C                     0.144786
     77 C                     0.078977
     78 C                    -0.314050
     79 C                    -0.065364
     80 N                    -0.435338
     81 S                     0.275344
     82 C                     0.121104
     83 C                    -0.313082
     84 C                    -0.252812
     85 H                     0.075970
     86 H                     0.098902
     87 H                     0.116140
     88 H                     0.104948
     89 H                     0.128691
     90 H                     0.111787
     91 H                     0.118631
     92 H                     0.131467
     93 H                     0.098870
     94 C                    -0.158565
     95 H                     0.129316
     96 H                     0.093263
     97 H                     0.117171
     98 C                    -0.196393
     99 H                     0.080274
    100 C                    -0.178778
    101 H                     0.123060
    102 H                     0.085990
    103 H                     0.088038
    104 C                    -0.187026
    105 H                     0.092438
    106 C                    -0.324733
    107 H                     0.103438
    108 H                     0.101614
    109 H                     0.100007
    110 H                     0.096382
  ----------------------------------------
  Sum of atomic charges =     0.000000

                    Cartesian Multipole Moments
 -----------------------------------------------------------------
    Charge (ESU x 10^10)
                 0.0000
    Dipole Moment (Debye)
         X      -0.3971      Y       3.7811      Z      -1.7245
       Tot       4.1747
    Quadrupole Moments (Debye-Ang)
        XX    -399.0581     XY      -7.5714     YY    -420.9923
        XZ      -6.3582     YZ       6.2216     ZZ    -428.1218

 Total job time:  95.82s(wall), 1061.83s(cpu)
        *  Thank you very much for using Q-Chem.  Have a nice day.  *
