 Q-Chem 4.4, Q-Chem, Inc., Pleasanton, CA (2016)
 Q-Chem 4.4.2 for Intel X86 Linux

User input:
--------------------------------------------------------------
$comment
SP
$end

$rem
MEM_STATIC 5000
MEM_TOTAL 20000
JOBTYPE SP
EXCHANGE B3LYP
BASIS 6-31g(d,p)
$end

$molecule
0 1
C           4.234000     13.838000     -1.471000
C           5.240000     14.802000     -1.577000
N           4.380000     12.630000     -1.983000
C           6.489000     14.533000     -2.152000
C           5.460000     12.360000     -2.733000
C           6.624000     13.259000     -2.775000
C           7.876000     12.904000     -3.590000
C           8.747000     13.873000     -4.002000
C           8.327000     11.597000     -3.664000
N           9.926000     13.604000     -4.560000
N           7.769000     10.581000     -3.041000
C           9.509000     11.242000     -4.349000
C          10.260000     12.313000     -4.862000
S           8.654000      9.218000     -3.448000
N           9.817000      9.963000     -4.310000
C          11.519000     12.051000     -5.631000
S          12.158000     10.386000     -6.066000
C          12.314000     12.983000     -6.329000
C          13.537000     11.066000     -6.888000
S          12.131000     14.698000     -6.466000
C          13.406000     12.445000     -6.904000
C          14.458000     10.192000     -7.605000
C          13.628000     14.687000     -7.402000
C          14.119000     13.455000     -7.642000
N          14.372000      8.888000     -7.427000
S          15.614000     10.770000     -8.745000
C          15.485000      8.288000     -8.035000
C          16.217000      9.123000     -8.802000
C           2.846000     14.198000     -0.882000
H           5.105000     15.774000     -1.113000
H           7.163000     15.376000     -2.265000
H           5.480000     11.470000     -3.360000
H           8.640000     14.901000     -3.658000
H          14.090000     15.630000     -7.661000
H          14.848000     13.185000     -8.397000
H          15.596000      7.218000     -7.914000
H          17.198000      8.896000     -9.198000
H           2.889000     14.726000      0.078000
C           1.929000     12.988000     -0.597000
H           2.400000     14.882000     -1.615000
H           2.246000     12.410000      0.280000
H           1.902000     12.391000     -1.517000
C           0.516000     13.477000     -0.416000
H           0.416000     14.107000      0.477000
C          -0.400000     12.181000     -0.230000
H           0.177000     13.954000     -1.343000
H          -0.186000     11.587000      0.666000
H          -0.165000     11.475000     -1.036000
C          -1.907000     12.630000     -0.214000
H          -2.076000     13.319000      0.622000
C          -2.823000     11.366000     -0.109000
H          -2.154000     13.175000     -1.134000
H          -2.600000     10.790000      0.797000
H          -2.659000     10.734000     -0.990000
H          -3.894000     11.598000     -0.160000
C           1.271000     13.768000    -15.587000
C           2.139000     14.897000    -15.840000
N           1.654000     12.738000    -14.726000
C           3.317000     15.063000    -15.097000
C           2.820000     12.922000    -14.098000
C           3.694000     14.044000    -14.213000
C           4.903000     14.115000    -13.427000
C           6.037000     13.687000    -14.042000
C           5.152000     14.582000    -12.089000
N           7.288000     13.841000    -13.570000
N           4.127000     14.922000    -11.266000
C           6.417000     14.707000    -11.547000
C           7.530000     14.362000    -12.337000
S           4.875000     15.348000     -9.861000
N           6.412000     15.234000    -10.293000
C           8.901000     14.617000    -11.936000
S           9.411000     15.749000    -10.618000
C          10.098000     14.095000    -12.434000
C          11.093000     15.528000    -10.806000
S          10.260000     12.954000    -13.696000
C          11.230000     14.632000    -11.865000
C          12.135000     16.251000    -10.132000
C          12.013000     12.957000    -13.334000
C          12.362000     13.889000    -12.427000
N          13.373000     16.171000    -10.546000
S          11.812000     17.313000     -8.783000
C          14.141000     17.118000     -9.828000
C          13.419000     17.865000     -8.911000
C          -0.028000     13.589000    -16.366000
H           1.837000     15.605000    -16.605000
H           3.946000     15.919000    -15.324000
H           3.114000     12.059000    -13.502000
H           5.959000     13.334000    -15.069000
H          12.665000     12.388000    -13.985000
H          13.383000     14.110000    -12.137000
H          15.180000     17.262000    -10.096000
H          13.747000     18.724000     -8.341000
H           0.283000     14.014000    -17.329000
C          -1.261000     14.285000    -15.805000
H          -0.221000     12.517000    -16.491000
H          -1.088000     14.439000    -14.732000
H          -2.172000     13.675000    -15.823000
C          -1.622000     15.578000    -16.488000
H          -0.846000     16.242000    -16.089000
C          -3.055000     16.051000    -16.056000
H          -1.608000     15.437000    -17.576000
H          -3.254000     16.014000    -14.978000
H          -3.754000     15.264000    -16.365000
C          -3.668000     17.310000    -16.722000
H          -4.718000     17.408000    -16.418000
C          -3.539000     17.321000    -18.201000
H          -3.180000     18.257000    -16.462000
H          -2.574000     16.998000    -18.611000
H          -3.675000     18.327000    -18.617000
H          -4.296000     16.715000    -18.714000
$end

--------------------------------------------------------------

             Standard Nuclear Orientation (Angstroms)
    I     Atom           X                Y                Z
 ----------------------------------------------------------------
    1      C      -1.0559449763     7.6533190643     1.4355628308
    2      C      -1.6448891829     6.8958505305     2.4514142677
    3      N      -1.1382644009     7.2904793952     0.1689552014
    4      C      -2.4238708021     5.7600012935     2.1944684602
    5      C      -1.6851529061     6.1044369294    -0.1409096597
    6      C      -2.4510365123     5.3194903856     0.8399788278
    7      C      -3.1219574986     3.9942660689     0.4508778888
    8      C      -3.4363493214     3.0591382264     1.3964146146
    9      C      -3.7072895595     3.8343109462    -0.7936809636
   10      N      -4.1665152405     1.9761532667     1.1360930677
   11      N      -3.7722578011     4.7748960284    -1.7117375146
   12      C      -4.3892472708     2.6550206480    -1.1632510825
   13      C      -4.5313560959     1.6915143724    -0.1504965522
   14      S      -4.5504921792     4.1062111453    -3.0360693386
   15      N      -4.9109150129     2.6642830562    -2.3715569108
   16      C      -5.2144925690     0.3895191256    -0.4389734772
   17      S      -5.8329283606    -0.1306745815    -2.0872169904
   18      C      -5.3217573686    -0.7346866222     0.4051288266
   19      C      -6.4054866136    -1.6520481742    -1.4568802246
   20      S      -4.7673676448    -0.9445604199     2.0305789252
   21      C      -6.0229224591    -1.7522163510    -0.1292247707
   22      C      -6.9549765760    -2.6526806769    -2.3640744571
   23      C      -5.5102427913    -2.5453055424     1.9760118175
   24      C      -6.0262294149    -2.8728764704     0.7747790793
   25      N      -7.2296440530    -2.3072975802    -3.6069599280
   26      S      -7.1945689217    -4.3003482322    -1.9193193164
   27      C      -7.9426302787    -3.3564847823    -4.2063678498
   28      C      -7.9800124370    -4.4913096020    -3.4769069511
   29      C      -0.1520190040     8.8673293350     1.7704686370
   30      H      -1.5917346123     7.2403832024     3.4794107802
   31      H      -2.7582049817     5.1951017879     3.0586462225
   32      H      -1.5411712754     5.6800015520    -1.1332568270
   33      H      -3.3319653773     3.2828046781     2.4573794164
   34      H      -5.5728524923    -3.1243384023     2.8873706780
   35      H      -6.2805433460    -3.8681687120     0.4296939039
   36      H      -8.3047115743    -3.1945213205    -5.2136051468
   37      H      -8.6243383829    -5.3358059388    -3.6827612990
   38      H      -0.5942147467     9.5729834429     2.4837345097
   39      C       0.2211696899     9.7513081235     0.5598796480
   40      H       0.7365048035     8.4319995768     2.2448887517
   41      H      -0.6166344107    10.3645811613     0.2053624130
   42      H       0.6156589129     9.0777079001    -0.2109504189
   43      C       1.3867223506    10.6282174239     0.9353368017
   44      H       1.1177989268    11.3462655351     1.7204712501
   45      C       1.7949405642    11.4400627636    -0.3790197079
   46      H       2.2497081475     9.9976750971     1.1791623304
   47      H       1.0290659095    12.1280214423    -0.7553133030
   48      H       1.8916193547    10.7275232366    -1.2074143203
   49      C       3.1178200687    12.2378936237    -0.0851460358
   50      H       2.9474574592    12.9404689962     0.7391975984
   51      C       3.5751112310    12.9793189450    -1.3847422370
   52      H       3.9142171322    11.5541641643     0.2353219713
   53      H       2.7999764545    13.6684324600    -1.7405928259
   54      H       3.7844289842    12.2358544387    -2.1631557556
   55      H       4.5315026449    13.5050415806    -1.2733996406
   56      C       8.8547845356    -2.3198785928    -1.7828986082
   57      C       8.4895029996    -3.1409159063    -0.6495226206
   58      N       7.8837894756    -1.7040738525    -2.5746454841
   59      C       7.1549375353    -3.2021908763    -0.2223582499
   60      C       6.6235183386    -1.8554884494    -2.1544237795
   61      C       6.1788370246    -2.5653856986    -0.9993093156
   62      C       4.7775729983    -2.5974522363    -0.6529729680
   63      C       4.0841115507    -3.6839850284    -1.0841605286
   64      C       3.9532454705    -1.6877695181     0.0975571641
   65      N       2.8304742180    -4.0076009622    -0.7165096544
   66      N       4.4295348313    -0.4802448330     0.4957864697
   67      C       2.6453759485    -1.9581453132     0.4525053896
   68      C       2.0779554574    -3.1867671120     0.0646697778
   69      S       3.1496400836     0.2123344712     1.2685790307
   70      N       2.0869131905    -0.9835806667     1.2197166368
   71      C       0.7822781273    -3.6471801950     0.5280346979
   72      S      -0.1188243501    -2.9758938660     1.9479068715
   73      C      -0.0433164885    -4.6614378268     0.0351128108
   74      C      -1.4511907514    -4.0389524502     1.8583791149
   75      S       0.2713168774    -5.6586399924    -1.3166869843
   76      C      -1.1761917018    -4.8834554570     0.7840159574
   77      C      -2.5294785456    -4.1460660307     2.8010302241
   78      C      -1.3678235056    -6.3340662475    -1.0695429400
   79      C      -1.9568083081    -5.8887417175     0.0564486076
   80      N      -3.3482097512    -5.1650948861     2.7598063878
   81      S      -2.7724387717    -2.9786743873     4.0778000074
   82      C      -4.1802895502    -5.1097936367     3.9029345433
   83      C      -3.9255939400    -4.0402074284     4.7463190874
   84      C      10.3058575958    -2.2195716312    -2.2418196116
   85      H       9.2806594813    -3.6853274216    -0.1441707399
   86      H       6.9206619935    -3.8375063154     0.6269916564
   87      H       5.8985982964    -1.4278758490    -2.8458421741
   88      H       4.6244465846    -4.4456596468    -1.6439031720
   89      H      -1.6712706449    -7.1663216478    -1.6923886531
   90      H      -2.9111478125    -6.2423261613     0.4300742912
   91      H      -4.8687888940    -5.9240363445     4.0901736053
   92      H      -4.3328098331    -3.8523310595     5.7308203249
   93      H      10.6409849241    -3.2346090639    -1.9926135039
   94      C      11.1613679223    -1.1535921234    -1.5700936480
   95      H      10.3247930874    -2.0912136570    -3.3304993981
   96      H      10.4798291617    -0.3837242383    -1.1856689385
   97      H      11.8057751606    -0.5919964210    -2.2568938942
   98      C      12.0706188804    -1.6654666385    -0.4838587856
   99      H      11.3463301009    -1.8445658553     0.3196349819
  100      C      13.1166600759    -0.5688704398    -0.0750598199
  101      H      12.6081470420    -2.5530133554    -0.8404331828
  102      H      12.7029187409     0.4337647593     0.0880191953
  103      H      13.7059612434    -0.3441476488    -0.9726537154
  104      C      14.2185033563    -0.9228998726     0.9569336618
  105      H      14.9436804168    -0.1009286132     1.0117194220
  106      C      14.8974483678    -2.2139350974     0.6804111138
  107      H      13.8602914515    -1.0893688052     1.9799318659
  108      H      14.2552441290    -3.0499603801     0.3766193389
  109      H      15.4240918210    -2.5975761050     1.5630516128
  110      H      15.6776081396    -2.1459953646    -0.0878264296
 ----------------------------------------------------------------

    9   -5663.5096272707      9.13E-06 Convergence criterion met
 Total energy in the final basis set = -5663.5096272707

                    Orbital Energies (a.u.)
 --------------------------------------------------------------

 Alpha MOs
 -- Occupied --
-88.988 -88.982 -88.932 -88.927 -88.924 -88.917 -88.908 -88.905
-14.386 -14.381 -14.380 -14.373 -14.353 -14.346 -14.345 -14.340
-14.334 -14.325 -10.276 -10.268 -10.265 -10.261 -10.255 -10.253
-10.246 -10.244 -10.244 -10.244 -10.242 -10.241 -10.237 -10.237
-10.237 -10.232 -10.230 -10.229 -10.228 -10.227 -10.226 -10.226
-10.225 -10.223 -10.220 -10.218 -10.217 -10.215 -10.215 -10.215
-10.213 -10.212 -10.209 -10.205 -10.202 -10.197 -10.194 -10.193
-10.187 -10.184 -10.182 -10.181 -10.178 -10.178 -10.177 -10.173
-10.173 -10.168 -10.168 -10.167  -8.044  -8.038  -7.994  -7.988
 -7.984  -7.975  -7.968  -7.965  -6.009  -6.003  -6.003  -6.002
 -5.997  -5.995  -5.958  -5.954  -5.952  -5.951  -5.949  -5.948
 -5.945  -5.944  -5.941  -5.940  -5.936  -5.933  -5.932  -5.930
 -5.929  -5.926  -5.924  -5.921  -1.040  -1.037  -0.977  -0.967
 -0.955  -0.954  -0.939  -0.930  -0.917  -0.915  -0.907  -0.902
 -0.849  -0.843  -0.836  -0.824  -0.822  -0.812  -0.811  -0.807
 -0.806  -0.799  -0.798  -0.791  -0.786  -0.774  -0.774  -0.764
 -0.753  -0.747  -0.742  -0.738  -0.724  -0.723  -0.715  -0.705
 -0.695  -0.688  -0.676  -0.674  -0.657  -0.649  -0.641  -0.641
 -0.638  -0.630  -0.628  -0.620  -0.616  -0.605  -0.601  -0.597
 -0.596  -0.589  -0.581  -0.579  -0.576  -0.573  -0.566  -0.566
 -0.554  -0.545  -0.545  -0.539  -0.526  -0.523  -0.518  -0.516
 -0.508  -0.506  -0.503  -0.494  -0.492  -0.480  -0.479  -0.478
 -0.478  -0.473  -0.471  -0.468  -0.460  -0.457  -0.450  -0.449
 -0.445  -0.443  -0.443  -0.442  -0.440  -0.436  -0.435  -0.430
 -0.428  -0.427  -0.421  -0.417  -0.417  -0.415  -0.414  -0.412
 -0.410  -0.408  -0.403  -0.402  -0.399  -0.399  -0.396  -0.394
 -0.393  -0.392  -0.392  -0.389  -0.388  -0.386  -0.382  -0.382
 -0.379  -0.378  -0.370  -0.368  -0.368  -0.359  -0.356  -0.354
 -0.353  -0.352  -0.351  -0.346  -0.345  -0.343  -0.339  -0.338
 -0.336  -0.333  -0.331  -0.328  -0.328  -0.327  -0.321  -0.320
 -0.320  -0.313  -0.311  -0.305  -0.304  -0.303  -0.297  -0.296
 -0.295  -0.293  -0.292  -0.291  -0.287  -0.286  -0.283  -0.279
 -0.274  -0.271  -0.266  -0.261  -0.258  -0.252  -0.250  -0.245
 -0.244  -0.242  -0.241  -0.229  -0.199  -0.192

          Ground-State Mulliken Net Atomic Charges

     Atom                 Charge (a.u.)
  ----------------------------------------
      1 C                     0.285315
      2 C                    -0.124381
      3 N                    -0.483468
      4 C                    -0.072780
      5 C                     0.107485
      6 C                     0.004091
      7 C                     0.054153
      8 C                     0.048319
      9 C                     0.245500
     10 N                    -0.517259
     11 N                    -0.574850
     12 C                     0.240587
     13 C                     0.291575
     14 S                     0.587296
     15 N                    -0.565484
     16 C                    -0.238102
     17 S                     0.362490
     18 C                    -0.122696
     19 C                    -0.235832
     20 S                     0.289220
     21 C                     0.142334
     22 C                     0.078571
     23 C                    -0.313877
     24 C                    -0.067668
     25 N                    -0.435226
     26 S                     0.276302
     27 C                     0.120721
     28 C                    -0.312695
     29 C                    -0.242497
     30 H                     0.081796
     31 H                     0.102456
     32 H                     0.117401
     33 H                     0.104338
     34 H                     0.127258
     35 H                     0.112668
     36 H                     0.118208
     37 H                     0.130492
     38 H                     0.102843
     39 C                    -0.161687
     40 H                     0.113700
     41 H                     0.098180
     42 H                     0.117677
     43 C                    -0.178327
     44 H                     0.087202
     45 C                    -0.179485
     46 H                     0.093101
     47 H                     0.089226
     48 H                     0.092615
     49 C                    -0.175676
     50 H                     0.093148
     51 C                    -0.321244
     52 H                     0.091336
     53 H                     0.102179
     54 H                     0.102801
     55 H                     0.094234
     56 C                     0.242403
     57 C                    -0.118064
     58 N                    -0.463152
     59 C                    -0.052300
     60 C                     0.098592
     61 C                     0.003199
     62 C                     0.022057
     63 C                     0.072584
     64 C                     0.209999
     65 N                    -0.527984
     66 N                    -0.544721
     67 C                     0.202333
     68 C                     0.311175
     69 S                     0.604578
     70 N                    -0.551457
     71 C                    -0.223918
     72 S                     0.323903
     73 C                    -0.104937
     74 C                    -0.217656
     75 S                     0.276337
     76 C                     0.132178
     77 C                     0.101623
     78 C                    -0.302045
     79 C                    -0.053130
     80 N                    -0.439396
     81 S                     0.277984
     82 C                     0.097242
     83 C                    -0.306716
     84 C                    -0.232228
     85 H                     0.093506
     86 H                     0.104775
     87 H                     0.101721
     88 H                     0.112329
     89 H                     0.123653
     90 H                     0.119084
     91 H                     0.118409
     92 H                     0.141825
     93 H                     0.100293
     94 C                    -0.179096
     95 H                     0.122852
     96 H                     0.109110
     97 H                     0.094962
     98 C                    -0.170454
     99 H                     0.097719
    100 C                    -0.187956
    101 H                     0.099124
    102 H                     0.091984
    103 H                     0.091699
    104 C                    -0.172269
    105 H                     0.094390
    106 C                    -0.319680
    107 H                     0.092634
    108 H                     0.103492
    109 H                     0.096363
    110 H                     0.097468
  ----------------------------------------
  Sum of atomic charges =     0.000000

                    Cartesian Multipole Moments
 -----------------------------------------------------------------
    Charge (ESU x 10^10)
                 0.0000
    Dipole Moment (Debye)
         X      -0.6296      Y      -3.3259      Z       4.1263
       Tot       5.3371
    Quadrupole Moments (Debye-Ang)
        XX    -416.2737     XY      17.5371     YY    -431.5678
        XZ       2.6860     YZ       8.3292     ZZ    -424.2329

 Total job time:  84.96s(wall), 914.24s(cpu)
        *  Thank you very much for using Q-Chem.  Have a nice day.  *
