 Q-Chem 4.4, Q-Chem, Inc., Pleasanton, CA (2016)
 Q-Chem 4.4.2 for Intel X86 Linux

User input:
--------------------------------------------------------------
$comment
SP
$end

$rem
MEM_STATIC 5000
MEM_TOTAL 20000
JOBTYPE SP
EXCHANGE B3LYP
BASIS 6-31g(d,p)
$end

$molecule
0 1
C          32.184000      5.630000    -11.864000
C          30.907000      5.412000    -12.463000
N          32.433000      6.734000    -11.099000
C          29.877000      6.330000    -12.135000
C          31.345000      7.565000    -10.774000
C          30.045000      7.465000    -11.328000
C          28.866000      8.333000    -11.049000
C          27.789000      8.433000    -11.847000
C          28.706000      9.058000     -9.814000
N          26.655000      9.050000    -11.539000
N          29.572000      9.232000     -8.809000
C          27.475000      9.670000     -9.478000
C          26.415000      9.613000    -10.359000
S          28.831000      9.947000     -7.548000
N          27.429000     10.309000     -8.256000
C          25.007000     10.010000    -10.303000
S          24.004000     10.249000    -11.774000
C          24.279000     10.415000     -9.186000
C          22.530000     10.521000    -10.748000
S          24.599000     10.308000     -7.415000
C          22.912000     10.622000     -9.420000
C          21.121000     10.476000    -11.178000
C          22.992000     10.864000     -7.092000
C          22.229000     10.904000     -8.245000
N          20.105000     11.002000    -10.407000
S          20.633000      9.939000    -12.757000
C          18.905000     10.808000    -11.063000
C          18.913000     10.144000    -12.282000
C          33.349000      4.797000    -12.330000
H          30.734000      4.621000    -13.186000
H          28.907000      5.998000    -12.494000
H          31.532000      8.395000    -10.094000
H          27.762000      7.932000    -12.813000
H          22.669000     11.027000     -6.072000
H          21.165000     11.110000     -8.217000
H          18.039000     11.205000    -10.550000
H          18.104000      9.848000    -12.936000
H          34.015000      4.625000    -11.476000
C          33.970000      5.476000    -13.555000
H          33.055000      3.823000    -12.742000
H          34.456000      6.451000    -13.429000
H          33.222000      5.674000    -14.333000
C          35.004000      4.558000    -14.163000
H          35.700000      4.175000    -13.406000
C          35.748000      5.252000    -15.231000
H          34.494000      3.703000    -14.623000
H          36.268000      6.155000    -14.887000
H          35.047000      5.737000    -15.921000
C          36.735000      4.406000    -16.011000
H          36.220000      3.552000    -16.468000
C          37.872000      3.912000    -15.137000
H          37.164000      4.987000    -16.837000
H          37.485000      3.246000    -14.355000
H          38.387000      4.748000    -14.649000
H          38.587000      3.396000    -15.789000
C           4.234000     13.838000     -1.471000
C           5.240000     14.802000     -1.577000
N           4.380000     12.630000     -1.983000
C           6.489000     14.533000     -2.152000
C           5.460000     12.360000     -2.733000
C           6.624000     13.259000     -2.775000
C           7.876000     12.904000     -3.590000
C           8.747000     13.873000     -4.002000
C           8.327000     11.597000     -3.664000
N           9.926000     13.604000     -4.560000
N           7.769000     10.581000     -3.041000
C           9.509000     11.242000     -4.349000
C          10.260000     12.313000     -4.862000
S           8.654000      9.218000     -3.448000
N           9.817000      9.963000     -4.310000
C          11.519000     12.051000     -5.631000
S          12.158000     10.386000     -6.066000
C          12.314000     12.983000     -6.329000
C          13.537000     11.066000     -6.888000
S          12.131000     14.698000     -6.466000
C          13.406000     12.445000     -6.904000
C          14.458000     10.192000     -7.605000
C          13.628000     14.687000     -7.402000
C          14.119000     13.455000     -7.642000
N          14.372000      8.888000     -7.427000
S          15.614000     10.770000     -8.745000
C          15.485000      8.288000     -8.035000
C          16.217000      9.123000     -8.802000
C           2.846000     14.198000     -0.882000
H           5.105000     15.774000     -1.113000
H           7.163000     15.376000     -2.265000
H           5.480000     11.470000     -3.360000
H           8.640000     14.901000     -3.658000
H          14.090000     15.630000     -7.661000
H          14.848000     13.185000     -8.397000
H          15.596000      7.218000     -7.914000
H          17.198000      8.896000     -9.198000
H           2.889000     14.726000      0.078000
C           1.929000     12.988000     -0.597000
H           2.400000     14.882000     -1.615000
H           2.246000     12.410000      0.280000
H           1.902000     12.391000     -1.517000
C           0.516000     13.477000     -0.416000
H           0.416000     14.107000      0.477000
C          -0.400000     12.181000     -0.230000
H           0.177000     13.954000     -1.343000
H          -0.186000     11.587000      0.666000
H          -0.165000     11.475000     -1.036000
C          -1.907000     12.630000     -0.214000
H          -2.076000     13.319000      0.622000
C          -2.823000     11.366000     -0.109000
H          -2.154000     13.175000     -1.134000
H          -2.600000     10.790000      0.797000
H          -2.659000     10.734000     -0.990000
H          -3.894000     11.598000     -0.160000
$end

--------------------------------------------------------------

             Standard Nuclear Orientation (Angstroms)
    I     Atom           X                Y                Z
 ----------------------------------------------------------------
    1      C      15.2504488013     0.6172116960    -1.8988739737
    2      C      14.3172292297     1.6044190413    -1.4611790016
    3      N      15.0102116616    -0.7164207559    -1.7263845538
    4      C      13.0811706101     1.1379901966    -0.9456101683
    5      C      13.7383983637    -1.0983323480    -1.2610196745
    6      C      12.7461682282    -0.2131064346    -0.7723782511
    7      C      11.3988911428    -0.5596936592    -0.2375626278
    8      C      10.6560914836     0.2502627092     0.5363574893
    9      C      10.6959353236    -1.7603137990    -0.6128150709
   10      N       9.3886704449     0.0464590425     0.8734286629
   11      N      11.1218969031    -2.8111377402    -1.3231549736
   12      C       9.3306291587    -1.9418239469    -0.2875549559
   13      C       8.6616043804    -0.9771524614     0.4368929520
   14      S       9.8765906387    -3.8064026393    -1.6534383193
   15      N       8.7536293657    -3.1159427758    -0.7260036012
   16      C       7.2688121700    -0.7721888721     0.8385504996
   17      S       6.7944535028     0.3203988048     2.1832463846
   18      C       6.1435153001    -1.4664394914     0.3987539191
   19      C       5.0377730463     0.0499129652     1.8087504778
   20      S       5.8618863465    -2.5822541227    -0.9890259053
   21      C       4.9227408928    -0.9668848357     0.8746204891
   22      C       3.8927189797     0.8613751433     2.2588463767
   23      C       4.1651512577    -2.5778755340    -0.6469954003
   24      C       3.8429642650    -1.6261597698     0.3035889704
   25      N       2.5954147676     0.3976364946     2.1858995005
   26      S       4.0783292658     2.3767026842     3.0889579749
   27      C       1.7477785675     1.3741012127     2.6716993838
   28      C       2.2935391527     2.5780259922     3.0955289590
   29      C      16.6411548151     1.0576185394    -2.2733717649
   30      H      14.5533016808     2.6639499418    -1.4594272240
   31      H      12.3718658131     1.9469936048    -0.7959265337
   32      H      13.5222446011    -2.1644531401    -1.2068624262
   33      H      11.0530193887     1.1988435160     0.8934690841
   34      H       3.4922742001    -3.1919611255    -1.2313183860
   35      H       2.8133200677    -1.3963266459     0.5532398512
   36      H       0.7004640782     1.1023984107     2.6783287103
   37      H       1.8251801514     3.4811221856     3.4627756220
   38      H      17.0000724999     0.4159067744    -3.0869073241
   39      C      17.4962648215     1.0925953095    -1.0025962133
   40      H      16.6959584070     2.1022477886    -2.6059410028
   41      H      17.7146602635     0.1498554231    -0.4866098398
   42      H      17.0311562783     1.7001297914    -0.2161053383
   43      C      18.8304133138     1.7272487592    -1.3169317016
   44      H      19.2901685808     1.2820139235    -2.2083042587
   45      C      19.7430803386     1.6111810670    -0.1639515662
   46      H      18.6794832371     2.7966646367    -1.5074436248
   47      H      19.9331278155     0.5745474099     0.1416913912
   48      H      19.2365573697     1.9457481062     0.7494078255
   49      C      21.0780857182     2.3166389890    -0.2995050854
   50      H      20.9213438576     3.3853739319    -0.4908884989
   51      C      21.9261568396     1.7162605272    -1.4044947124
   52      H      21.6405089120     2.2496198999     0.6402111445
   53      H      21.4335877570     1.8543916948    -2.3756509713
   54      H      22.0759004446     0.6414264219    -1.2477353459
   55      H      22.9039918143     2.2117284037    -1.3739112923
   56      C     -15.5896876432    -1.1698582764    -0.3887157044
   57      C     -14.8116821537    -2.1558253767     0.2237745693
   58      N     -15.0507284528    -0.0617806968    -0.8624361585
   59      C     -13.4150144168    -2.0778909548     0.3027204919
   60      C     -13.7506328647     0.1851864808    -0.6375835960
   61      C     -12.8361068566    -0.8519613964    -0.1347640845
   62      C     -11.3392569620    -0.5690519479     0.0579964845
   63      C     -10.5834700979    -1.3233482803     0.9107386842
   64      C     -10.6478607926     0.2309835290    -0.8358942095
   65      N      -9.2570524194    -1.2299261814     0.9859347856
   66      N     -11.1772800217     0.7752103899    -1.9107343854
   67      C      -9.2593593522     0.4608952431    -0.7282914506
   68      C      -8.5996929093    -0.2598792802     0.2814289417
   69      S      -9.9628529786     1.6566392845    -2.6556458303
   70      N      -8.7432356743     1.2253939686    -1.6671120127
   71      C      -7.1297434211    -0.0729870940     0.5037031257
   72      S      -6.0746699702     1.1289389042    -0.3973878286
   73      C      -6.3404802269    -0.5998645580     1.5464479402
   74      C      -4.6569823156     0.6396888722     0.4917247176
   75      S      -6.7920031621    -1.6583764912     2.8384086696
   76      C      -5.0369072502    -0.2744569486     1.4607719108
   77      C      -3.3986771708     1.3510199381     0.2996771265
   78      C      -5.0945436348    -1.6348992993     3.3234921414
   79      C      -4.3247018823    -0.8018648255     2.5955482964
   80      N      -3.2877679959     2.1940642935    -0.7085249216
   81      S      -2.0597419544     1.2085644589     1.3753066737
   82      C      -1.9418179605     2.5754409405    -0.8153114162
   83      C      -1.1687471241     2.1819726300     0.2185561626
   84      C     -17.1366501709    -1.2692137641    -0.3987369304
   85      H     -15.2790399027    -3.0724994512     0.5695929835
   86      H     -12.9174352940    -2.8519961445     0.8779336453
   87      H     -13.3500462914     1.1852149768    -0.7960209800
   88      H     -10.9953062708    -2.2170872881     1.3778474002
   89      H      -4.7623249472    -2.3129033845     4.0979049538
   90      H      -3.3464344230    -0.4225449202     2.8666113658
   91      H      -1.6750133987     3.2154930558    -1.6465818989
   92      H      -0.0875016099     2.2205558356     0.2297576887
   93      H     -17.5219883549    -2.2390865218    -0.7350319166
   94      C     -17.8457775668    -0.2511089853    -1.3189624440
   95      H     -17.4318245998    -1.1428205920     0.6505284424
   96      H     -17.7383889519    -0.4919702074    -2.3839298412
   97      H     -17.4459399881     0.7372667823    -1.0605417550
   98      C     -19.3029737876    -0.1849156239    -0.9439309610
   99      H     -19.8170945433    -1.1333986852    -1.1449501914
  100      C     -19.9613011161     0.9534458133    -1.8516789254
  101      H     -19.3944038643     0.1655532193     0.0907627768
  102      H     -19.9521829116     0.7502976496    -2.9287563051
  103      H     -19.3375028166     1.8530370165    -1.7816193170
  104      C     -21.4418315043     1.1824708368    -1.3736796490
  105      H     -22.0116510944     0.2523645671    -1.4849718858
  106      C     -22.0789889483     2.3473655940    -2.2012227573
  107      H     -21.4638726112     1.4468650171    -0.3087646725
  108      H     -22.0684005717     2.1221519445    -3.2743060246
  109      H     -21.5095420267     3.2664055901    -2.0179833267
  110      H     -23.0934382409     2.6093286094    -1.8760550907
 ----------------------------------------------------------------

    9   -5663.5093313678      5.36E-06 Convergence criterion met
 Total energy in the final basis set = -5663.5093313678

                    Orbital Energies (a.u.)
 --------------------------------------------------------------

 Alpha MOs
 -- Occupied --
-88.995 -88.985 -88.931 -88.930 -88.930 -88.921 -88.912 -88.910
-14.390 -14.384 -14.381 -14.375 -14.350 -14.348 -14.343 -14.343
-14.337 -14.326 -10.280 -10.271 -10.264 -10.264 -10.262 -10.260
-10.249 -10.249 -10.249 -10.247 -10.245 -10.240 -10.239 -10.238
-10.236 -10.235 -10.235 -10.234 -10.232 -10.230 -10.230 -10.229
-10.228 -10.227 -10.227 -10.226 -10.225 -10.222 -10.220 -10.217
-10.213 -10.213 -10.209 -10.206 -10.203 -10.202 -10.194 -10.191
-10.190 -10.184 -10.182 -10.177 -10.175 -10.174 -10.174 -10.173
-10.170 -10.170 -10.169 -10.168  -8.051  -8.040  -7.992  -7.991
 -7.988  -7.979  -7.972  -7.970  -6.016  -6.010  -6.009  -6.005
 -6.000  -5.997  -5.956  -5.955  -5.953  -5.953  -5.951  -5.949
 -5.949  -5.948  -5.945  -5.943  -5.940  -5.937  -5.936  -5.934
 -5.933  -5.931  -5.929  -5.926  -1.043  -1.039  -0.973  -0.970
 -0.957  -0.956  -0.941  -0.923  -0.919  -0.912  -0.910  -0.904
 -0.847  -0.847  -0.835  -0.826  -0.821  -0.814  -0.810  -0.809
 -0.801  -0.800  -0.796  -0.793  -0.787  -0.776  -0.773  -0.765
 -0.753  -0.750  -0.745  -0.740  -0.727  -0.726  -0.715  -0.707
 -0.698  -0.690  -0.679  -0.678  -0.658  -0.650  -0.649  -0.643
 -0.641  -0.632  -0.627  -0.622  -0.610  -0.607  -0.600  -0.600
 -0.594  -0.592  -0.586  -0.580  -0.579  -0.574  -0.567  -0.566
 -0.555  -0.548  -0.546  -0.542  -0.526  -0.524  -0.521  -0.516
 -0.511  -0.510  -0.504  -0.497  -0.489  -0.482  -0.480  -0.480
 -0.477  -0.475  -0.475  -0.470  -0.463  -0.461  -0.452  -0.450
 -0.449  -0.445  -0.444  -0.442  -0.440  -0.437  -0.435  -0.432
 -0.430  -0.429  -0.423  -0.420  -0.416  -0.414  -0.414  -0.412
 -0.411  -0.410  -0.408  -0.404  -0.404  -0.402  -0.401  -0.399
 -0.398  -0.394  -0.392  -0.389  -0.385  -0.385  -0.383  -0.382
 -0.379  -0.375  -0.374  -0.369  -0.365  -0.362  -0.360  -0.359
 -0.359  -0.355  -0.352  -0.350  -0.348  -0.347  -0.345  -0.341
 -0.337  -0.335  -0.331  -0.331  -0.329  -0.328  -0.322  -0.322
 -0.320  -0.316  -0.310  -0.306  -0.305  -0.303  -0.299  -0.298
 -0.295  -0.295  -0.291  -0.289  -0.286  -0.286  -0.283  -0.282
 -0.276  -0.276  -0.267  -0.263  -0.257  -0.255  -0.252  -0.248
 -0.247  -0.244  -0.238  -0.231  -0.195  -0.195

          Ground-State Mulliken Net Atomic Charges

     Atom                 Charge (a.u.)
  ----------------------------------------
      1 C                     0.261444
      2 C                    -0.112642
      3 N                    -0.488323
      4 C                    -0.106813
      5 C                     0.058785
      6 C                     0.068434
      7 C                     0.090979
      8 C                     0.040300
      9 C                     0.263537
     10 N                    -0.528675
     11 N                    -0.570833
     12 C                     0.142694
     13 C                     0.335737
     14 S                     0.620929
     15 N                    -0.544897
     16 C                    -0.224856
     17 S                     0.316394
     18 C                    -0.131399
     19 C                    -0.233068
     20 S                     0.280071
     21 C                     0.171391
     22 C                     0.033720
     23 C                    -0.307891
     24 C                    -0.060454
     25 N                    -0.432438
     26 S                     0.272376
     27 C                     0.119876
     28 C                    -0.316400
     29 C                    -0.221968
     30 H                     0.094134
     31 H                     0.096763
     32 H                     0.126279
     33 H                     0.109979
     34 H                     0.138194
     35 H                     0.127329
     36 H                     0.113035
     37 H                     0.142174
     38 H                     0.117190
     39 C                    -0.172143
     40 H                     0.099858
     41 H                     0.112767
     42 H                     0.096616
     43 C                    -0.163442
     44 H                     0.097643
     45 C                    -0.177527
     46 H                     0.087081
     47 H                     0.088234
     48 H                     0.080867
     49 C                    -0.176991
     50 H                     0.087841
     51 C                    -0.311056
     52 H                     0.088066
     53 H                     0.104088
     54 H                     0.102167
     55 H                     0.098396
     56 C                     0.285291
     57 C                    -0.123452
     58 N                    -0.483445
     59 C                    -0.072361
     60 C                     0.107919
     61 C                     0.003839
     62 C                     0.055504
     63 C                     0.047441
     64 C                     0.245109
     65 N                    -0.516842
     66 N                    -0.573863
     67 C                     0.240807
     68 C                     0.289714
     69 S                     0.588777
     70 N                    -0.565796
     71 C                    -0.237015
     72 S                     0.364237
     73 C                    -0.122723
     74 C                    -0.235736
     75 S                     0.287987
     76 C                     0.144594
     77 C                     0.072333
     78 C                    -0.314490
     79 C                    -0.063615
     80 N                    -0.436318
     81 S                     0.277082
     82 C                     0.120002
     83 C                    -0.320143
     84 C                    -0.242565
     85 H                     0.082696
     86 H                     0.103337
     87 H                     0.117265
     88 H                     0.106243
     89 H                     0.129145
     90 H                     0.111305
     91 H                     0.119652
     92 H                     0.141506
     93 H                     0.103192
     94 C                    -0.161428
     95 H                     0.114394
     96 H                     0.098152
     97 H                     0.117397
     98 C                    -0.178403
     99 H                     0.087420
    100 C                    -0.179705
    101 H                     0.093282
    102 H                     0.089340
    103 H                     0.092421
    104 C                    -0.175824
    105 H                     0.093434
    106 C                    -0.321141
    107 H                     0.091393
    108 H                     0.102244
    109 H                     0.102530
    110 H                     0.094328
  ----------------------------------------
  Sum of atomic charges =     0.000000

                    Cartesian Multipole Moments
 -----------------------------------------------------------------
    Charge (ESU x 10^10)
                 0.0000
    Dipole Moment (Debye)
         X       1.7661      Y       1.0177      Z       1.2439
       Tot       2.3879
    Quadrupole Moments (Debye-Ang)
        XX    -451.0754     XY      45.9066     YY    -428.1985
        XZ     -18.5774     YZ       1.5025     ZZ    -441.2220

 Total job time:  80.86s(wall), 874.10s(cpu)
        *  Thank you very much for using Q-Chem.  Have a nice day.  *
