 Q-Chem 4.4, Q-Chem, Inc., Pleasanton, CA (2016)
 Q-Chem 4.4.2 for Intel X86 Linux

User input:
--------------------------------------------------------------
$comment
SP
$end

$rem
MEM_STATIC 5000
MEM_TOTAL 20000
JOBTYPE SP
EXCHANGE B3LYP
BASIS 6-31g(d,p)
$end

$molecule
0 1
C           8.521000     18.961000     -7.674000
C           7.254000     18.640000     -8.247000
N           9.184000     18.096000     -6.950000
C           6.681000     17.372000     -7.963000
C           8.673000     16.896000     -6.624000
C           7.410000     16.445000     -7.178000
C           6.884000     15.109000     -6.892000
C           5.647000     14.812000     -6.315000
C           7.632000     13.931000     -7.198000
N           5.116000     13.621000     -5.953000
N           8.779000     13.924000     -7.880000
C           7.110000     12.667000     -6.901000
C           5.860000     12.529000     -6.225000
S           9.177000     12.421000     -8.026000
N           7.901000     11.651000     -7.251000
C           5.340000     11.184000     -5.970000
S           6.205000      9.632000     -5.891000
C           4.020000     10.989000     -5.522000
C           4.773000      8.758000     -5.394000
S           2.808000     12.102000     -5.060000
C           3.752000      9.691000     -5.218000
C           4.692000      7.279000     -5.275000
C           1.785000     10.720000     -4.526000
C           2.453000      9.525000     -4.673000
N           5.511000      6.595000     -5.978000
S           3.530000      6.291000     -4.374000
C           5.205000      5.246000     -6.042000
C           4.233000      4.872000     -5.165000
C           9.180000     20.335000     -7.923000
H           6.593000     19.457000     -8.522000
H           5.665000     17.122000     -8.255000
H           9.209000     16.346000     -5.852000
H           4.964000     15.640000     -6.131000
H           0.759000     10.893000     -4.230000
H           2.015000      8.577000     -4.382000
H           5.793000      4.644000     -6.723000
H           3.861000      3.880000     -4.946000
H          10.259000     20.137000     -7.930000
C           8.652000     21.403000     -6.930000
H           8.887000     20.609000     -8.945000
H           8.773000     21.159000     -5.867000
H           7.581000     21.543000     -7.125000
C           9.507000     22.702000     -7.307000
H          10.551000     22.459000     -7.075000
C           8.929000     24.044000     -6.761000
H           9.474000     22.934000     -8.379000
H           9.007000     23.883000     -5.679000
H           7.857000     24.035000     -6.993000
C           9.546000     25.386000     -7.103000
H          10.620000     25.281000     -6.907000
C           8.812000     26.458000     -6.259000
H           9.351000     25.417000     -8.182000
H           9.271000     27.442000     -6.414000
H           8.658000     26.176000     -5.210000
H           7.861000     26.505000     -6.804000
C           4.234000     13.838000     -1.471000
C           5.240000     14.802000     -1.577000
N           4.380000     12.630000     -1.983000
C           6.489000     14.533000     -2.152000
C           5.460000     12.360000     -2.733000
C           6.624000     13.259000     -2.775000
C           7.876000     12.904000     -3.590000
C           8.747000     13.873000     -4.002000
C           8.327000     11.597000     -3.664000
N           9.926000     13.604000     -4.560000
N           7.769000     10.581000     -3.041000
C           9.509000     11.242000     -4.349000
C          10.260000     12.313000     -4.862000
S           8.654000      9.218000     -3.448000
N           9.817000      9.963000     -4.310000
C          11.519000     12.051000     -5.631000
S          12.158000     10.386000     -6.066000
C          12.314000     12.983000     -6.329000
C          13.537000     11.066000     -6.888000
S          12.131000     14.698000     -6.466000
C          13.406000     12.445000     -6.904000
C          14.458000     10.192000     -7.605000
C          13.628000     14.687000     -7.402000
C          14.119000     13.455000     -7.642000
N          14.372000      8.888000     -7.427000
S          15.614000     10.770000     -8.745000
C          15.485000      8.288000     -8.035000
C          16.217000      9.123000     -8.802000
C           2.846000     14.198000     -0.882000
H           5.105000     15.774000     -1.113000
H           7.163000     15.376000     -2.265000
H           5.480000     11.470000     -3.360000
H           8.640000     14.901000     -3.658000
H          14.090000     15.630000     -7.661000
H          14.848000     13.185000     -8.397000
H          15.596000      7.218000     -7.914000
H          17.198000      8.896000     -9.198000
H           2.889000     14.726000      0.078000
C           1.929000     12.988000     -0.597000
H           2.400000     14.882000     -1.615000
H           2.246000     12.410000      0.280000
H           1.902000     12.391000     -1.517000
C           0.516000     13.477000     -0.416000
H           0.416000     14.107000      0.477000
C          -0.400000     12.181000     -0.230000
H           0.177000     13.954000     -1.343000
H          -0.186000     11.587000      0.666000
H          -0.165000     11.475000     -1.036000
C          -1.907000     12.630000     -0.214000
H          -2.076000     13.319000      0.622000
C          -2.823000     11.366000     -0.109000
H          -2.154000     13.175000     -1.134000
H          -2.600000     10.790000      0.797000
H          -2.659000     10.734000     -0.990000
H          -3.894000     11.598000     -0.160000
$end

--------------------------------------------------------------

             Standard Nuclear Orientation (Angstroms)
    I     Atom           X                Y                Z
 ----------------------------------------------------------------
    1      C      -4.9635370291    -3.9261518397    -1.3912363453
    2      C      -4.0538886121    -4.2527605227    -2.4412485003
    3      N      -4.6891982154    -2.9968541611    -0.5119673080
    4      C      -2.7975996504    -3.5918212908    -2.4825568096
    5      C      -3.5027638840    -2.3651056332    -0.4861918382
    6      C      -2.5138818818    -2.5874899017    -1.5245287887
    7      C      -1.2518711528    -1.8458033071    -1.5489810962
    8      C       0.0322284455    -2.3955067422    -1.5341030952
    9      C      -1.2258089504    -0.4182083784    -1.5949971905
   10      N       1.2409375771    -1.7889681682    -1.4829250369
   11      N      -2.3051755268     0.3491491829    -1.7590464724
   12      C      -0.0045538389     0.2650547132    -1.6037436413
   13      C       1.2321920202    -0.4399794404    -1.4946266289
   14      S      -1.7772192327     1.8176824632    -1.8173659054
   15      N      -0.1196249915     1.5930633181    -1.6636500271
   16      C       2.4839657984     0.3182566087    -1.5455236032
   17      S       2.7785838125     2.0405220099    -1.2136017545
   18      C       3.7236788414    -0.3353311874    -1.6761511802
   19      C       4.5115458344     1.8677968089    -1.3824734088
   20      S       4.1308109803    -1.9952707374    -1.6772056671
   21      C       4.7811149044     0.5139908812    -1.5785550923
   22      C       5.4709669506     3.0025340826    -1.3892144231
   23      C       5.8719952531    -1.5371374149    -1.6767731042
   24      C       6.0232422752    -0.1701764454    -1.6104402604
   25      N       5.0169132284     4.1436709150    -1.7420145749
   26      S       7.2164379871     2.9937123675    -1.0868205771
   27      C       6.0004455642     5.0839651662    -1.9990045853
   28      C       7.2421518208     4.6852458813    -1.6078811977
   29      C      -6.3317914538    -4.6326211193    -1.2774866816
   30      H      -4.1416470606    -5.2278779759    -2.9118644872
   31      H      -2.0126917880    -3.8918025951    -3.1709977036
   32      H      -3.3009420446    -1.7708986073     0.4037328527
   33      H       0.1179838167    -3.4795172300    -1.5932324342
   34      H       6.6287491824    -2.2989579065    -1.8078228240
   35      H       6.9975935587     0.3036218301    -1.5732411940
   36      H       5.6758791658     6.0271357887    -2.4197121202
   37      H       8.1679875446     5.2449026303    -1.6125218613
   38      H      -7.0097459709    -3.8766290354    -0.8623389466
   39      C      -6.2100641192    -5.9812390941    -0.5212664663
   40      H      -6.6407483580    -4.8209455858    -2.3140620656
   41      H      -5.7778991510    -5.9197882943     0.4855121784
   42      H      -5.5764133730    -6.6470282983    -1.1211643472
   43      C      -7.7240532798    -6.4944033310    -0.4501729538
   44      H      -8.2649995777    -5.7668372973     0.1669443522
   45      C      -7.8840885743    -8.0076819526    -0.1073311271
   46      H      -8.2169233214    -6.4959560508    -1.4305676249
   47      H      -7.4617799629    -8.0409881532     0.9042395000
   48      H      -7.1765063681    -8.5458377163    -0.7498299951
   49      C      -9.2362097915    -8.6934542914    -0.0972557431
   50      H      -9.8919965636    -8.0546525720     0.5067252771
   51      C      -9.0190910544   -10.1301589460     0.4403455865
   52      H      -9.4963721177    -8.6194422452    -1.1603007943
   53      H      -9.9811712362   -10.6476902479     0.5379420782
   54      H      -8.3684731543   -10.1864634949     1.3219164265
   55      H      -8.5442875920   -10.5873445323    -0.4366823559
   56      C       3.3603492491    -3.3084631111     2.2737445364
   57      C       2.0267215696    -3.5181279494     2.6343632659
   58      N       3.7712149060    -2.1483123789     1.7962891032
   59      C       1.0627556673    -2.5021778754     2.5943359457
   60      C       2.8691632915    -1.1910496548     1.5284254033
   61      C       1.4803427907    -1.2731932456     2.0072688506
   62      C       0.4784125845    -0.1397613393     1.7441681553
   63      C      -0.8684251807    -0.3692096839     1.7711402055
   64      C       0.8795865435     1.1848530837     1.7839435848
   65      N      -1.7750563782     0.6049689947     1.7185876245
   66      N       2.0997221930     1.5843482771     2.0727715394
   67      C      -0.0246885422     2.2548867738     1.6116401561
   68      C      -1.3788227397     1.8958357998     1.5038720100
   69      S       2.0966822177     3.2570201896     1.9789502645
   70      N       0.5053041822     3.4564305194     1.6989690713
   71      C      -2.4233945390     2.9487282773     1.2908621815
   72      S      -2.0811300817     4.7368522459     1.0558330044
   73      C      -3.7951635773     2.7622699078     1.0237742146
   74      C      -3.7787444307     5.1002918813     0.8953893895
   75      S      -4.7045011869     1.2938973596     0.9214503583
   76      C      -4.4881546269     3.9104644898     0.9056826946
   77      C      -4.2023234052     6.4546598949     0.5600177511
   78      C      -6.1285240033     2.3057075049     0.6652761050
   79      C      -5.8593688551     3.6231449181     0.5735200777
   80      N      -3.3196660262     7.4331197178     0.6150479839
   81      S      -5.7909308690     6.8391564113     0.0136582039
   82      C      -4.0038604825     8.6495770182     0.4717211470
   83      C      -5.2978601986     8.5204968242     0.1108319141
   84      C       4.3783472081    -4.4775398014     2.2759462539
   85      H       1.7275225253    -4.4712261575     3.0590852193
   86      H       0.0399556852    -2.7948425774     2.8086291301
   87      H       3.1468786313    -0.3366814127     0.9131546524
   88      H      -1.2634228612    -1.3294492113     2.1005121571
   89      H      -7.1061356180     1.8430547610     0.6666794656
   90      H      -6.5061281400     4.3882253124     0.1603368040
   91      H      -3.4215174216     9.5571584703     0.5667709616
   92      H      -6.0260241706     9.3205840914     0.1293682204
   93      H       4.3832248759    -5.0667523485     3.2006287846
   94      C       5.8533098021    -4.0532199565     2.1008690835
   95      H       4.0468210437    -5.1385988968     1.4652969618
   96      H       6.2692321094    -3.5768568588     2.9974117949
   97      H       5.8909976089    -3.4067778996     1.2153013016
   98      C       6.6692325517    -5.2628137827     1.7272331079
   99      H       6.6957910571    -6.0007919938     2.5390408474
  100      C       8.1580069799    -4.7490982934     1.4572051504
  101      H       6.3101497343    -5.6596235760     0.7704779050
  102      H       8.6654251984    -4.3200434806     2.3289199657
  103      H       8.1076865470    -3.8917161619     0.7748117633
  104      C       9.0070964447    -5.9463263432     0.8927602218
  105      H       9.0296401245    -6.7593162767     1.6280949419
  106      C      10.4484126422    -5.4431170001     0.5504665239
  107      H       8.5436980291    -6.3491206379    -0.0168840299
  108      H      10.9423695940    -5.0256535900     1.4359448302
  109      H      10.3804213673    -4.6705936308    -0.2248178307
  110      H      11.0800966981    -6.2112406498     0.0874035559
 ----------------------------------------------------------------

   10   -5663.5028049621      3.39E-06 Convergence criterion met
 Total energy in the final basis set = -5663.5028049621

                    Orbital Energies (a.u.)
 --------------------------------------------------------------

 Alpha MOs
 -- Occupied --
-88.980 -88.975 -88.929 -88.927 -88.925 -88.920 -88.910 -88.904
-14.379 -14.375 -14.372 -14.370 -14.347 -14.347 -14.342 -14.338
-14.322 -14.319 -10.273 -10.270 -10.261 -10.256 -10.245 -10.244
-10.244 -10.243 -10.242 -10.241 -10.240 -10.235 -10.234 -10.231
-10.231 -10.231 -10.229 -10.228 -10.227 -10.226 -10.225 -10.223
-10.222 -10.222 -10.221 -10.220 -10.215 -10.215 -10.214 -10.214
-10.211 -10.207 -10.204 -10.202 -10.199 -10.197 -10.197 -10.191
-10.188 -10.185 -10.181 -10.181 -10.180 -10.178 -10.177 -10.175
-10.173 -10.171 -10.170 -10.166  -8.035  -8.031  -7.990  -7.987
 -7.982  -7.978  -7.970  -7.963  -6.000  -5.996  -5.994  -5.992
 -5.990  -5.989  -5.954  -5.951  -5.951  -5.948  -5.947  -5.947
 -5.944  -5.943  -5.942  -5.939  -5.938  -5.935  -5.934  -5.930
 -5.928  -5.926  -5.924  -5.919  -1.040  -1.034  -0.976  -0.969
 -0.955  -0.953  -0.938  -0.934  -0.917  -0.913  -0.905  -0.904
 -0.845  -0.841  -0.832  -0.822  -0.808  -0.806  -0.802  -0.802
 -0.798  -0.796  -0.790  -0.789  -0.782  -0.773  -0.764  -0.762
 -0.749  -0.748  -0.738  -0.737  -0.725  -0.722  -0.707  -0.705
 -0.692  -0.688  -0.675  -0.668  -0.650  -0.647  -0.640  -0.635
 -0.631  -0.629  -0.624  -0.617  -0.608  -0.605  -0.601  -0.598
 -0.592  -0.589  -0.583  -0.577  -0.574  -0.571  -0.567  -0.564
 -0.546  -0.541  -0.539  -0.536  -0.522  -0.519  -0.519  -0.516
 -0.506  -0.503  -0.495  -0.494  -0.487  -0.481  -0.478  -0.476
 -0.475  -0.473  -0.468  -0.465  -0.459  -0.457  -0.447  -0.445
 -0.444  -0.443  -0.439  -0.437  -0.437  -0.433  -0.431  -0.429
 -0.427  -0.420  -0.419  -0.416  -0.414  -0.412  -0.411  -0.410
 -0.408  -0.405  -0.402  -0.401  -0.400  -0.396  -0.396  -0.394
 -0.392  -0.389  -0.388  -0.387  -0.384  -0.383  -0.380  -0.379
 -0.376  -0.375  -0.370  -0.366  -0.364  -0.358  -0.356  -0.354
 -0.353  -0.349  -0.348  -0.347  -0.344  -0.343  -0.342  -0.338
 -0.336  -0.333  -0.332  -0.330  -0.328  -0.327  -0.322  -0.322
 -0.318  -0.312  -0.307  -0.304  -0.300  -0.297  -0.295  -0.293
 -0.290  -0.290  -0.286  -0.283  -0.282  -0.281  -0.279  -0.274
 -0.274  -0.272  -0.261  -0.255  -0.254  -0.252  -0.245  -0.242
 -0.240  -0.236  -0.232  -0.225  -0.194  -0.191

          Ground-State Mulliken Net Atomic Charges

     Atom                 Charge (a.u.)
  ----------------------------------------
      1 C                     0.255240
      2 C                    -0.128277
      3 N                    -0.467197
      4 C                    -0.074455
      5 C                     0.090953
      6 C                     0.014575
      7 C                     0.027112
      8 C                     0.043455
      9 C                     0.204267
     10 N                    -0.533846
     11 N                    -0.510783
     12 C                     0.225494
     13 C                     0.321710
     14 S                     0.612313
     15 N                    -0.599022
     16 C                    -0.250597
     17 S                     0.360182
     18 C                    -0.120914
     19 C                    -0.225510
     20 S                     0.300010
     21 C                     0.147777
     22 C                     0.063536
     23 C                    -0.317897
     24 C                    -0.067682
     25 N                    -0.410145
     26 S                     0.253441
     27 C                     0.122963
     28 C                    -0.311813
     29 C                    -0.215414
     30 H                     0.090039
     31 H                     0.101391
     32 H                     0.126219
     33 H                     0.097190
     34 H                     0.128008
     35 H                     0.106597
     36 H                     0.121496
     37 H                     0.138922
     38 H                     0.117060
     39 C                    -0.176748
     40 H                     0.103785
     41 H                     0.112924
     42 H                     0.094682
     43 C                    -0.185756
     44 H                     0.097237
     45 C                    -0.180329
     46 H                     0.086435
     47 H                     0.082478
     48 H                     0.084233
     49 C                    -0.181165
     50 H                     0.095105
     51 C                    -0.308992
     52 H                     0.094532
     53 H                     0.101179
     54 H                     0.111934
     55 H                     0.106498
     56 C                     0.287840
     57 C                    -0.123294
     58 N                    -0.488212
     59 C                    -0.074829
     60 C                     0.129871
     61 C                     0.007160
     62 C                     0.048710
     63 C                     0.039607
     64 C                     0.247754
     65 N                    -0.517517
     66 N                    -0.577274
     67 C                     0.270872
     68 C                     0.261240
     69 S                     0.604407
     70 N                    -0.572935
     71 C                    -0.240457
     72 S                     0.364506
     73 C                    -0.132833
     74 C                    -0.234726
     75 S                     0.311929
     76 C                     0.147141
     77 C                     0.078170
     78 C                    -0.317125
     79 C                    -0.067140
     80 N                    -0.433881
     81 S                     0.276442
     82 C                     0.121378
     83 C                    -0.312726
     84 C                    -0.242115
     85 H                     0.079360
     86 H                     0.101361
     87 H                     0.128477
     88 H                     0.107001
     89 H                     0.130273
     90 H                     0.111502
     91 H                     0.119162
     92 H                     0.131898
     93 H                     0.101129
     94 C                    -0.165874
     95 H                     0.114534
     96 H                     0.097334
     97 H                     0.121645
     98 C                    -0.177762
     99 H                     0.087689
    100 C                    -0.179340
    101 H                     0.091485
    102 H                     0.090148
    103 H                     0.087562
    104 C                    -0.175432
    105 H                     0.094446
    106 C                    -0.320415
    107 H                     0.090278
    108 H                     0.102779
    109 H                     0.099671
    110 H                     0.094695
  ----------------------------------------
  Sum of atomic charges =     0.000000

                    Cartesian Multipole Moments
 -----------------------------------------------------------------
    Charge (ESU x 10^10)
                 0.0000
    Dipole Moment (Debye)
         X      -0.5952      Y       0.2021      Z      -1.1152
       Tot       1.2802
    Quadrupole Moments (Debye-Ang)
        XX    -401.6752     XY       1.2162     YY    -394.8071
        XZ       0.3865     YZ      -1.9690     ZZ    -449.7425

 Total job time:  116.59s(wall), 1250.17s(cpu)
        *  Thank you very much for using Q-Chem.  Have a nice day.  *
