 Q-Chem 4.4, Q-Chem, Inc., Pleasanton, CA (2016)
 Q-Chem 4.4.2 for Intel X86 Linux

User input:
--------------------------------------------------------------
$comment
SP
$end

$rem
MEM_STATIC 5000
MEM_TOTAL 20000
JOBTYPE SP
EXCHANGE B3LYP
BASIS 6-31g(d,p)
$end

$molecule
0 1
C         -12.793000     22.443000    -13.486000
C         -12.906000     21.459000    -14.509000
N         -12.021000     22.289000    -12.418000
C         -12.054000     20.391000    -14.521000
C         -11.317000     21.194000    -12.316000
C         -11.138000     20.207000    -13.390000
C         -10.104000     19.216000    -13.396000
C          -8.819000     19.566000    -12.992000
C         -10.333000     17.898000    -13.797000
N          -7.796000     18.680000    -12.855000
N         -11.460000     17.384000    -14.332000
C          -9.280000     17.000000    -13.721000
C          -7.999000     17.381000    -13.261000
S         -11.173000     15.869000    -14.592000
N          -9.616000     15.773000    -14.119000
C          -6.846000     16.467000    -13.147000
S          -6.684000     14.901000    -13.934000
C          -5.574000     16.723000    -12.533000
C          -5.094000     14.525000    -13.317000
S          -5.177000     17.940000    -11.450000
C          -4.660000     15.665000    -12.619000
C          -4.448000     13.206000    -13.356000
C          -3.656000     17.090000    -11.093000
C          -3.490000     15.941000    -11.834000
N          -5.121000     12.243000    -13.997000
S          -2.892000     12.740000    -12.683000
C          -4.492000     11.019000    -13.825000
C          -3.349000     11.118000    -13.016000
C         -13.671000     23.684000    -13.502000
H         -13.724000     21.523000    -15.220000
H         -12.064000     19.689000    -15.349000
H         -10.809000     21.155000    -11.353000
H          -8.528000     20.578000    -12.715000
H          -2.931000     17.607000    -10.478000
H          -2.748000     15.170000    -11.659000
H          -4.916000     10.106000    -14.223000
H          -2.766000     10.372000    -12.493000
H         -13.020000     24.539000    -13.281000
C         -14.937000     23.605000    -12.541000
H         -14.012000     23.918000    -14.518000
H         -15.244000     24.641000    -12.350000
H         -14.626000     23.280000    -11.540000
C         -16.178000     22.903000    -13.125000
H         -16.480000     23.424000    -14.041000
C         -17.357000     22.683000    -12.132000
H         -15.914000     21.901000    -13.486000
H         -17.683000     23.673000    -11.789000
H         -16.974000     22.176000    -11.238000
C         -18.542000     21.976000    -12.808000
H         -18.700000     22.237000    -13.862000
C         -19.842000     22.334000    -12.088000
H         -18.443000     20.885000    -12.867000
H         -20.029000     23.407000    -11.957000
H         -19.679000     21.900000    -11.094000
H         -20.708000     21.865000    -12.572000
C         -15.177000     10.585000    -15.330000
C         -15.275000     11.741000    -14.551000
N         -14.157000      9.721000    -15.237000
C         -14.109000     12.173000    -13.884000
C         -13.081000     10.100000    -14.425000
C         -13.011000     11.298000    -13.735000
C         -11.716000     11.724000    -13.047000
C         -11.738000     12.741000    -12.036000
C         -10.405000     11.156000    -13.253000
N         -10.651000     13.276000    -11.405000
N         -10.064000     10.333000    -14.207000
C          -9.270000     11.716000    -12.660000
C          -9.388000     12.769000    -11.669000
S          -8.432000     10.145000    -14.254000
N          -8.081000     11.249000    -13.079000
C          -8.249000     13.180000    -10.868000
S          -6.754000     12.296000    -10.617000
C          -8.118000     14.423000    -10.342000
C          -6.019000     13.692000     -9.775000
S          -9.271000     15.743000    -10.402000
C          -6.940000     14.710000     -9.721000
C          -4.742000     13.704000     -9.158000
C          -8.088000     16.741000     -9.573000
C          -6.898000     16.078000     -9.281000
N          -3.891000     12.837000     -9.593000
S          -4.260000     14.912000     -8.008000
C          -2.646000     13.225000     -9.137000
C          -2.647000     14.344000     -8.358000
C         -16.315000     10.191000    -16.253000
H         -16.106000     12.433000    -14.446000
H         -14.255000     13.096000    -13.329000
H         -12.217000      9.439000    -14.472000
H         -12.673000     13.219000    -11.750000
H          -8.272000     17.771000     -9.297000
H          -6.083000     16.590000     -8.784000
H          -1.838000     12.648000     -9.568000
H          -1.773000     14.844000     -7.964000
H         -17.234000     10.501000    -15.742000
C         -16.407000      8.666000    -16.610000
H         -16.232000     10.708000    -17.217000
H         -16.321000      7.987000    -15.753000
H         -15.505000      8.374000    -17.162000
C         -17.747000      8.369000    -17.385000
H         -18.480000      8.272000    -16.574000
C         -17.750000      7.178000    -18.440000
H         -18.083000      9.235000    -17.968000
H         -17.662000      6.251000    -17.859000
H         -16.916000      7.104000    -19.148000
C         -19.127000      7.164000    -19.253000
H         -19.910000      6.918000    -18.525000
C         -19.118000      6.169000    -20.420000
H         -19.490000      8.183000    -19.431000
H         -20.169000      5.971000    -20.667000
H         -18.656000      5.237000    -20.072000
H         -18.556000      6.444000    -21.320000
$end

--------------------------------------------------------------

             Standard Nuclear Orientation (Angstroms)
    I     Atom           X                Y                Z
 ----------------------------------------------------------------
    1      C      -2.1072203941    -7.7604202270     1.2023658738
    2      C      -2.7010401554    -6.6542031090     1.8740918440
    3      N      -1.0146734475    -7.6512030916     0.4575593306
    4      C      -2.0380454795    -5.4611323092     1.9348547149
    5      C      -0.4485015004    -6.4788100405     0.3576150458
    6      C      -0.7926361816    -5.3070429956     1.1750618720
    7      C       0.0487518140    -4.1559033372     1.3100312307
    8      C       1.4218203819    -4.3263017773     1.4603245422
    9      C      -0.4567728254    -2.8540991522     1.2992283218
   10      N       2.3179461937    -3.3032425344     1.4848666458
   11      N      -1.7511597174    -2.4734154350     1.2853545694
   12      C       0.4429281842    -1.8034651859     1.3869515348
   13      C       1.8366026461    -2.0141707410     1.4918165115
   14      S      -1.7503754257    -0.9097218081     1.2778962759
   15      N      -0.1500484520    -0.6100103931     1.3573987606
   16      C       2.8408459185    -0.9360712556     1.5754702588
   17      S       2.5243525438     0.7439102519     1.9943533909
   18      C       4.2698954029    -1.0537644520     1.5085233939
   19      C       4.1779674842     1.2961144862     1.8904634854
   20      S       5.1733844373    -2.3432785167     0.9319403195
   21      C       4.9635215949     0.1537199079     1.6602475725
   22      C       4.6134813037     2.6986738702     1.8485959852
   23      C       6.6143282782    -1.3006543682     0.9343345204
   24      C       6.3645545730    -0.0313788741     1.4069768969
   25      N       3.6484555574     3.6158797986     1.9851155587
   26      S       6.2467482860     3.3221378603     1.6616397941
   27      C       4.1574335196     4.8873137863     1.7664879096
   28      C       5.5230636751     4.8644353740     1.4420470730
   29      C      -2.7855748197    -9.1209464035     1.1973862880
   30      H      -3.7127594479    -6.7457908303     2.2572063993
   31      H      -2.4332304855    -4.6421278353     2.5277699557
   32      H       0.3743146775    -6.5117222273    -0.3557182040
   33      H       1.9045638331    -5.2993157416     1.5361967082
   34      H       7.5684957510    -1.7721595236     0.7384102435
   35      H       7.0286062157     0.8219851494     1.3267568293
   36      H       3.5179285024     5.7606136784     1.7778734954
   37      H       6.1731293109     5.6047928220     0.9957069355
   38      H      -2.0093041699    -9.8659494256     1.4119588287
   39      C      -3.6023620768    -9.4424777701    -0.1300149916
   40      H      -3.4528331021    -9.2368628441     2.0603015581
   41      H      -3.7000051924   -10.5344862721    -0.1748396895
   42      H      -2.9783496795    -9.2414673858    -1.0101004155
   43      C      -5.0407376527    -8.8925280590    -0.1807300556
   44      H      -5.6031987258    -9.2960907600     0.6692556429
   45      C      -5.7809510230    -9.0669907740    -1.5394562707
   46      H      -5.0423577792    -7.8123307658     0.0121226941
   47      H      -5.8444858462   -10.1439514291    -1.7398161309
   48      H      -5.1505239967    -8.6582585041    -2.3385017614
   49      C      -7.2025851042    -8.4861436381    -1.4882396346
   50      H      -7.7124362018    -8.5878990709    -0.5219587799
   51      C      -8.0924746012    -9.1957341993    -2.5086032553
   52      H      -7.2534144131    -7.4018706156    -1.6473980278
   53      H      -8.0978576064   -10.2911389151    -2.4492860417
   54      H      -7.6194238079    -8.9153709984    -3.4575924136
   55      H      -9.1224244880    -8.8191052945    -2.4695277043
   56      C      -6.2959919736     3.5908052315    -0.6141773391
   57      C      -5.9686281774     2.3208243333    -1.0966319618
   58      N      -5.4166154756     4.5995335990    -0.5455547807
   59      C      -4.5981136394     2.0041598955    -1.2083572276
   60      C      -4.0807880099     4.2927731723    -0.8323020954
   61      C      -3.6272026695     3.0283764172    -1.1666150995
   62      C      -2.1306653835     2.7377594790    -1.2547226864
   63      C      -1.6620698258     1.5767177449    -1.9542184297
   64      C      -1.0620960549     3.5648310147    -0.7468907607
   65      N      -0.3664310591     1.1519233357    -2.0368313586
   66      N      -1.1941852215     4.5872986583     0.0536330490
   67      C       0.2663489863     3.1311975344    -0.7727708140
   68      C       0.6429997747     1.9209978183    -1.4787204090
   69      S       0.2712308090     5.0787254102     0.6122318362
   70      N       1.1542081725     3.8743656542    -0.0895591254
   71      C       2.0362911155     1.5967822360    -1.7266447844
   72      S       3.4100156453     2.6856162328    -1.6441617945
   73      C       2.4898800445     0.3281129800    -1.8803373420
   74      C       4.5547529701     1.3264564929    -1.8448263373
   75      S       1.5504436522    -1.1521516409    -1.9213850796
   76      C       3.8383445817     0.1618585280    -1.9788099225
   77      C       5.9626803538     1.4453263821    -1.9680027621
   78      C       3.0593018648    -2.0411423945    -2.0469889580
   79      C       4.1916218718    -1.2295396795    -2.0562320429
   80      N       6.4891488321     2.5159301074    -1.4763183054
   81      S       6.9684747882     0.1687788539    -2.5786515677
   82      C       7.8489338283     2.2924834074    -1.3785362198
   83      C       8.2615964483     1.0762292377    -1.8361805761
   84      C      -7.7319807155     3.9195911404    -0.2507971537
   85      H      -6.6189698686     1.4796534054    -1.3200981889
   86      H      -4.4241324552     0.9890801819    -1.5556520914
   87      H      -3.3750051329     5.1001296079    -0.6434314610
   88      H      -2.3642891594     0.8925373223    -2.4267543088
   89      H       3.1060166753    -3.1191434969    -2.1286183010
   90      H       5.1841619552    -1.6594262332    -2.1148812866
   91      H       8.3691849333     3.0737889712    -0.8395980010
   92      H       9.2687703431     0.6864479989    -1.7834232882
   93      H      -8.3540495825     3.3625302388    -0.9610756038
   94      C      -8.1176521319     5.4395268915    -0.3016977532
   95      H      -7.9580635653     3.5992117337     0.7737601072
   96      H      -7.7935841039     5.9661882637    -1.2075088330
   97      H      -7.5245528664     5.9830299015     0.4442310232
   98      C      -9.6738948549     5.6118415524    -0.1204513884
   99      H     -10.0575180481     5.4318027816    -1.1327943573
  100      C     -10.2010751320     6.9441846515     0.5712550679
  101      H     -10.1055577348     4.8112155842     0.4922526325
  102      H     -10.0053620519     7.7583823342    -0.1382606287
  103      H      -9.7048069502     7.2907855669     1.4855207279
  104      C     -11.7744376380     6.8422582809     0.8385291591
  105      H     -12.2514699317     6.8113688376    -0.1489297175
  106      C     -12.3107565337     8.0062527745     1.6808318725
  107      H     -12.0631326421     5.8193881861     1.1072408332
  108      H     -13.3929675754     8.0459449391     1.5017849699
  109      H     -11.8578896051     8.9341696482     1.3106240654
  110      H     -12.0982818126     7.9976335594     2.7561221598
 ----------------------------------------------------------------

   10   -5663.5042571188      2.75E-06 Convergence criterion met
 Total energy in the final basis set = -5663.5042571188

                    Orbital Energies (a.u.)
 --------------------------------------------------------------

 Alpha MOs
 -- Occupied --
-88.986 -88.982 -88.930 -88.926 -88.921 -88.917 -88.907 -88.907
-14.380 -14.376 -14.375 -14.370 -14.350 -14.345 -14.341 -14.340
-14.329 -14.324 -10.268 -10.263 -10.263 -10.260 -10.251 -10.249
-10.248 -10.245 -10.241 -10.240 -10.239 -10.235 -10.234 -10.233
-10.232 -10.231 -10.230 -10.230 -10.228 -10.227 -10.226 -10.226
-10.225 -10.224 -10.223 -10.221 -10.220 -10.217 -10.215 -10.213
-10.212 -10.207 -10.206 -10.204 -10.202 -10.200 -10.199 -10.193
-10.186 -10.185 -10.183 -10.180 -10.179 -10.178 -10.178 -10.178
-10.178 -10.173 -10.173 -10.170  -8.042  -8.037  -7.992  -7.987
 -7.979  -7.975  -7.967  -7.967  -6.007  -6.003  -6.001  -6.000
 -5.997  -5.995  -5.956  -5.953  -5.951  -5.949  -5.948  -5.944
 -5.944  -5.940  -5.940  -5.936  -5.936  -5.933  -5.932  -5.931
 -5.928  -5.928  -5.924  -5.923  -1.050  -1.033  -0.983  -0.958
 -0.949  -0.946  -0.941  -0.928  -0.916  -0.910  -0.906  -0.899
 -0.844  -0.842  -0.836  -0.823  -0.816  -0.806  -0.805  -0.802
 -0.801  -0.797  -0.792  -0.789  -0.782  -0.775  -0.765  -0.763
 -0.748  -0.742  -0.739  -0.736  -0.724  -0.716  -0.711  -0.706
 -0.692  -0.688  -0.672  -0.670  -0.653  -0.651  -0.644  -0.639
 -0.632  -0.630  -0.619  -0.618  -0.610  -0.605  -0.602  -0.594
 -0.593  -0.588  -0.581  -0.580  -0.577  -0.577  -0.574  -0.570
 -0.543  -0.541  -0.539  -0.538  -0.524  -0.523  -0.518  -0.515
 -0.506  -0.502  -0.499  -0.497  -0.485  -0.479  -0.477  -0.473
 -0.468  -0.467  -0.466  -0.462  -0.460  -0.455  -0.448  -0.447
 -0.442  -0.438  -0.438  -0.436  -0.435  -0.433  -0.431  -0.429
 -0.424  -0.421  -0.420  -0.417  -0.415  -0.414  -0.412  -0.411
 -0.406  -0.406  -0.403  -0.401  -0.398  -0.397  -0.396  -0.395
 -0.393  -0.393  -0.391  -0.390  -0.385  -0.384  -0.384  -0.378
 -0.376  -0.375  -0.371  -0.369  -0.365  -0.360  -0.356  -0.354
 -0.352  -0.350  -0.348  -0.345  -0.345  -0.344  -0.342  -0.339
 -0.337  -0.332  -0.332  -0.327  -0.325  -0.323  -0.323  -0.315
 -0.309  -0.308  -0.308  -0.305  -0.303  -0.302  -0.300  -0.297
 -0.295  -0.292  -0.290  -0.289  -0.284  -0.283  -0.280  -0.274
 -0.272  -0.270  -0.265  -0.262  -0.254  -0.251  -0.250  -0.249
 -0.241  -0.237  -0.229  -0.228  -0.191  -0.187

          Ground-State Mulliken Net Atomic Charges

     Atom                 Charge (a.u.)
  ----------------------------------------
      1 C                     0.265268
      2 C                    -0.116913
      3 N                    -0.447552
      4 C                    -0.051875
      5 C                     0.064045
      6 C                    -0.010463
      7 C                     0.030378
      8 C                     0.050476
      9 C                     0.239263
     10 N                    -0.537331
     11 N                    -0.541794
     12 C                     0.227203
     13 C                     0.319400
     14 S                     0.602516
     15 N                    -0.571904
     16 C                    -0.229815
     17 S                     0.362882
     18 C                    -0.117010
     19 C                    -0.226870
     20 S                     0.288743
     21 C                     0.124514
     22 C                     0.070744
     23 C                    -0.320328
     24 C                    -0.072442
     25 N                    -0.424891
     26 S                     0.293493
     27 C                     0.126656
     28 C                    -0.313583
     29 C                    -0.230355
     30 H                     0.092784
     31 H                     0.111900
     32 H                     0.094786
     33 H                     0.118935
     34 H                     0.123331
     35 H                     0.107052
     36 H                     0.111761
     37 H                     0.136252
     38 H                     0.112459
     39 C                    -0.181004
     40 H                     0.089654
     41 H                     0.092219
     42 H                     0.109160
     43 C                    -0.178643
     44 H                     0.090490
     45 C                    -0.172083
     46 H                     0.091144
     47 H                     0.093174
     48 H                     0.099467
     49 C                    -0.179311
     50 H                     0.092030
     51 C                    -0.316463
     52 H                     0.096040
     53 H                     0.103938
     54 H                     0.102067
     55 H                     0.094902
     56 C                     0.280604
     57 C                    -0.109451
     58 N                    -0.487561
     59 C                    -0.102894
     60 C                     0.049345
     61 C                     0.071175
     62 C                     0.043106
     63 C                     0.045297
     64 C                     0.251843
     65 N                    -0.518649
     66 N                    -0.558986
     67 C                     0.175900
     68 C                     0.289070
     69 S                     0.592390
     70 N                    -0.544686
     71 C                    -0.191997
     72 S                     0.362899
     73 C                    -0.124184
     74 C                    -0.230493
     75 S                     0.282322
     76 C                     0.162709
     77 C                     0.075716
     78 C                    -0.299143
     79 C                    -0.082143
     80 N                    -0.422745
     81 S                     0.274903
     82 C                     0.117575
     83 C                    -0.311342
     84 C                    -0.243201
     85 H                     0.093887
     86 H                     0.094303
     87 H                     0.131684
     88 H                     0.109029
     89 H                     0.128504
     90 H                     0.116655
     91 H                     0.108030
     92 H                     0.128054
     93 H                     0.101616
     94 C                    -0.177375
     95 H                     0.122116
     96 H                     0.100248
     97 H                     0.111737
     98 C                    -0.193114
     99 H                     0.095715
    100 C                    -0.182370
    101 H                     0.088789
    102 H                     0.093773
    103 H                     0.095798
    104 C                    -0.179325
    105 H                     0.093122
    106 C                    -0.321127
    107 H                     0.089927
    108 H                     0.101348
    109 H                     0.106279
    110 H                     0.106822
  ----------------------------------------
  Sum of atomic charges =     0.000000

                    Cartesian Multipole Moments
 -----------------------------------------------------------------
    Charge (ESU x 10^10)
                 0.0000
    Dipole Moment (Debye)
         X       2.4167      Y      -0.3818      Z      -0.4003
       Tot       2.4792
    Quadrupole Moments (Debye-Ang)
        XX    -385.8207     XY      23.0156     YY    -445.1182
        XZ      -7.8483     YZ       2.0505     ZZ    -454.5290

 Total job time:  117.46s(wall), 1242.48s(cpu)
        *  Thank you very much for using Q-Chem.  Have a nice day.  *
