 Q-Chem 4.4, Q-Chem, Inc., Pleasanton, CA (2016)
 Q-Chem 4.4.2 for Intel X86 Linux

User input:
--------------------------------------------------------------
$comment
SP
$end

$rem
MEM_STATIC 5000
MEM_TOTAL 20000
JOBTYPE SP
EXCHANGE B3LYP
BASIS 6-31g(d,p)
$end

$molecule
0 1
C          -0.081000     14.269000     -5.115000
C           0.389000     14.377000     -6.429000
N           0.438000     14.974000     -4.054000
C           1.316000     15.435000     -6.619000
C           1.460000     15.843000     -4.246000
C           1.948000     16.139000     -5.559000
C           2.817000     17.328000     -5.857000
C           2.493000     18.178000     -6.903000
C           3.801000     17.869000     -5.025000
N           3.109000     19.325000     -7.187000
N           4.258000     17.265000     -3.975000
C           4.454000     19.081000     -5.248000
C           4.031000     19.813000     -6.374000
S           5.330000     18.250000     -3.268000
N           5.354000     19.456000     -4.337000
C           4.431000     21.268000     -6.767000
S           3.890000     22.024000     -8.277000
C           4.957000     22.249000     -6.000000
C           4.615000     23.567000     -7.909000
S           5.259000     22.316000     -4.297000
C           5.000000     23.503000     -6.599000
C           4.712000     24.687000     -8.817000
C           5.432000     24.116000     -4.422000
C           5.368000     24.547000     -5.698000
N           5.754000     25.468000     -8.663000
S           3.756000     24.913000    -10.210000
C           5.719000     26.492000     -9.528000
C           4.691000     26.408000    -10.449000
C          -1.236000     13.327000     -4.871000
H          -0.057000     13.723000     -7.173000
H           1.639000     15.682000     -7.626000
H           1.918000     16.248000     -3.344000
H           1.622000     17.937000     -7.510000
H           5.528000     24.678000     -3.502000
H           5.276000     25.574000     -6.032000
H           6.406000     27.320000     -9.412000
H           4.397000     27.158000    -11.171000
H          -1.640000     13.092000     -5.863000
C          -2.372000     14.103000     -4.217000
H          -0.966000     12.397000     -4.354000
H          -2.754000     14.864000     -4.909000
H          -2.040000     14.599000     -3.296000
C          -3.546000     13.097000     -3.918000
H          -3.956000     12.664000     -4.839000
C          -4.605000     13.883000     -3.126000
H          -3.188000     12.283000     -3.275000
H          -4.843000     14.812000     -3.658000
H          -4.212000     14.236000     -2.164000
C          -5.794000     13.024000     -2.880000
H          -6.407000     12.769000     -3.753000
C          -6.821000     13.702000     -2.009000
H          -5.464000     12.054000     -2.490000
H          -6.287000     14.061000     -1.121000
H          -7.608000     12.994000     -1.722000
H          -7.306000     14.575000     -2.464000
C         -15.177000     10.585000    -15.330000
C         -15.275000     11.741000    -14.551000
N         -14.157000      9.721000    -15.237000
C         -14.109000     12.173000    -13.884000
C         -13.081000     10.100000    -14.425000
C         -13.011000     11.298000    -13.735000
C         -11.716000     11.724000    -13.047000
C         -11.738000     12.741000    -12.036000
C         -10.405000     11.156000    -13.253000
N         -10.651000     13.276000    -11.405000
N         -10.064000     10.333000    -14.207000
C          -9.270000     11.716000    -12.660000
C          -9.388000     12.769000    -11.669000
S          -8.432000     10.145000    -14.254000
N          -8.081000     11.249000    -13.079000
C          -8.249000     13.180000    -10.868000
S          -6.754000     12.296000    -10.617000
C          -8.118000     14.423000    -10.342000
C          -6.019000     13.692000     -9.775000
S          -9.271000     15.743000    -10.402000
C          -6.940000     14.710000     -9.721000
C          -4.742000     13.704000     -9.158000
C          -8.088000     16.741000     -9.573000
C          -6.898000     16.078000     -9.281000
N          -3.891000     12.837000     -9.593000
S          -4.260000     14.912000     -8.008000
C          -2.646000     13.225000     -9.137000
C          -2.647000     14.344000     -8.358000
C         -16.315000     10.191000    -16.253000
H         -16.106000     12.433000    -14.446000
H         -14.255000     13.096000    -13.329000
H         -12.217000      9.439000    -14.472000
H         -12.673000     13.219000    -11.750000
H          -8.272000     17.771000     -9.297000
H          -6.083000     16.590000     -8.784000
H          -1.838000     12.648000     -9.568000
H          -1.773000     14.844000     -7.964000
H         -17.234000     10.501000    -15.742000
C         -16.407000      8.666000    -16.610000
H         -16.232000     10.708000    -17.217000
H         -16.321000      7.987000    -15.753000
H         -15.505000      8.374000    -17.162000
C         -17.747000      8.369000    -17.385000
H         -18.480000      8.272000    -16.574000
C         -17.750000      7.178000    -18.440000
H         -18.083000      9.235000    -17.968000
H         -17.662000      6.251000    -17.859000
H         -16.916000      7.104000    -19.148000
C         -19.127000      7.164000    -19.253000
H         -19.910000      6.918000    -18.525000
C         -19.118000      6.169000    -20.420000
H         -19.490000      8.183000    -19.431000
H         -20.169000      5.971000    -20.667000
H         -18.656000      5.237000    -20.072000
H         -18.556000      6.444000    -21.320000
$end

--------------------------------------------------------------

             Standard Nuclear Orientation (Angstroms)
    I     Atom           X                Y                Z
 ----------------------------------------------------------------
    1      C       3.9954144453     4.1538294612     1.1290303028
    2      C       3.9148530350     3.0723489404     2.0139425822
    3      N       5.1514019894     4.5381803276     0.4902234389
    4      C       5.0845311510     2.2686905875     2.0418595465
    5      C       6.3032815957     3.8534251967     0.6921956728
    6      C       6.3284977527     2.6542906748     1.4739690056
    7      C       7.4748488690     1.6834766149     1.4410269465
    8      C       7.2326098708     0.3317644263     1.2518539392
    9      C       8.8292732618     1.9994586618     1.3037283295
   10      N       8.1650085456    -0.6048045656     1.0809965870
   11      N       9.2970057557     3.2006566663     1.4242051668
   12      C       9.8456384234     1.0696333981     1.0857631093
   13      C       9.4376962612    -0.2708736141     0.9470074151
   14      S      10.8883041524     3.1405565141     1.1353879509
   15      N      11.0836643887     1.5506172964     0.9573411537
   16      C      10.3080610846    -1.4890317839     0.5110833994
   17      S       9.6721344590    -3.1439649145     0.4777568308
   18      C      11.4910688715    -1.5068065270    -0.1427534567
   19      C      11.1317731221    -3.8234353127    -0.1928197503
   20      S      12.4123189325    -0.2245498732    -0.8519912159
   21      C      11.9044075265    -2.7622815557    -0.5741460952
   22      C      11.4043631141    -5.2333285835    -0.3545870555
   23      C      13.3741357239    -1.4553898475    -1.7714994635
   24      C      13.0450090188    -2.7178378015    -1.4310089713
   25      N      12.6615804336    -5.5939463867    -0.2607765473
   26      S      10.2296589994    -6.4681404209    -0.3823533886
   27      C      12.8002374465    -6.9115295706    -0.4675972093
   28      C      11.5989783077    -7.5855054832    -0.5893097833
   29      C       2.7234201552     4.9233467047     0.8629499804
   30      H       2.9622454021     2.9025707368     2.5077867472
   31      H       5.0732584787     1.3357745066     2.5976720264
   32      H       7.2049008992     4.3030437086     0.2770826457
   33      H       6.1986795736     0.0023445316     1.1644372722
   34      H      14.0742117176    -1.0953622466    -2.5142872728
   35      H      13.3433775195    -3.6261829465    -1.9415325608
   36      H      13.7866123885    -7.3356607828    -0.6024533874
   37      H      11.4557020510    -8.6224463240    -0.8621570061
   38      H       1.9123461923     4.2973004266     1.2537569462
   39      C       2.4569638574     4.9268136642    -0.6368423457
   40      H       2.6820676028     5.9145996686     1.3328398909
   41      H       2.2613088095     3.9051125825    -0.9857764397
   42      H       3.3109465256     5.3321818184    -1.1944006493
   43      C       1.1600032557     5.7791456507    -0.9035563916
   44      H       0.2752686501     5.3330545849    -0.4323054621
   45      C       1.0117177071     5.8842814447    -2.4311358039
   46      H       1.2923263233     6.7959968261    -0.5127709096
   47      H       1.0720085912     4.8824205355    -2.8731185274
   48      H       1.8599391237     6.4124517699    -2.8850725132
   49      C      -0.2459617772     6.6025471040    -2.7694474315
   50      H      -1.1855601535     6.0788399901    -2.5554176437
   51      C      -0.3912908695     6.8375101515    -4.2515829926
   52      H      -0.3081213484     7.5212860876    -2.1745063690
   53      H       0.5424044520     7.3062396174    -4.5848797589
   54      H      -1.2439308186     7.4972327992    -4.4535066049
   55      H      -0.5229362623     5.9276657782    -4.8509424065
   56      C     -13.5684128757    -1.6298673211    -0.8377229531
   57      C     -12.7865058393    -1.7564780898    -1.9889710148
   58      N     -13.1501938418    -0.9998656317     0.2685029330
   59      C     -11.4049857622    -1.4974298309    -1.8650142632
   60      C     -11.8097065393    -0.5960182393     0.2961086475
   61      C     -10.9093612327    -0.8160911215    -0.7320694768
   62      C      -9.4212951498    -0.5353778598    -0.5353351443
   63      C      -8.5583694671    -0.3933896594    -1.6720376634
   64      C      -8.7449649443    -0.3204995069     0.7217192486
   65      N      -7.2027418707    -0.2282426415    -1.6411300192
   66      N      -9.2411220269    -0.5367834651     1.9094799142
   67      C      -7.3539962491    -0.2000107636     0.7862370882
   68      C      -6.5567277412    -0.0974387437    -0.4215111915
   69      S      -8.0671706473    -0.4344561010     3.0550558693
   70      N      -6.8060288341    -0.2155798789     2.0137794764
   71      C      -5.1553824886     0.2784582307    -0.3688239292
   72      S      -4.3129745020     1.0494828797     0.9635993424
   73      C      -4.2479546969    -0.0964585226    -1.3041838764
   74      C      -2.7355438546     0.8305374642     0.1501004441
   75      S      -4.5368136607    -0.9902995369    -2.7850679840
   76      C      -2.9449647238     0.2185741237    -1.0619741285
   77      C      -1.4897108473     1.3172482899     0.6218786654
   78      C      -2.8052747755    -0.9626142175    -3.0744476863
   79      C      -2.0797363047    -0.3030311005    -2.0847623630
   80      N      -1.4077496486     1.5375513322     1.8906827998
   81      S      -0.0846558511     1.4527135768    -0.3888426680
   82      C      -0.0661634634     1.6616954998     2.1960346187
   83      C       0.7740530064     1.5596327162     1.1270994139
   84      C     -15.0073780681    -2.1111021859    -0.8388091595
   85      H     -13.0638781103    -2.1220298043    -2.9737992065
   86      H     -10.8595665192    -1.6513109013    -2.7924345916
   87      H     -11.4691614123    -0.2046406131     1.2534375200
   88      H      -8.9521530490    -0.4847827326    -2.6825260585
   89      H      -2.3445014919    -1.4008819594    -3.9499711683
   90      H      -1.0003787890    -0.2306509752    -2.1406772168
   91      H       0.1242649753     1.7015441533     3.2607895645
   92      H       1.8545849598     1.5604290002     1.1666223637
   93      H     -15.3840699882    -1.9217627370    -1.8507556850
   94      C     -15.9563745153    -1.4266535717     0.2064055733
   95      H     -15.0598675089    -3.1840321074    -0.6162327856
   96      H     -15.8905522124    -0.3323843264     0.2399949038
   97      H     -15.5999927046    -1.6593618385     1.2175489200
   98      C     -17.4504858500    -1.8568127179    -0.0524929174
   99      H     -17.7637347646    -1.1756363756    -0.8539247038
  100      C     -18.4343428557    -1.9234190643     1.1961479384
  101      H     -17.5173280149    -2.8596761185    -0.4912845818
  102      H     -18.5928621090    -0.8866668683     1.5196452805
  103      H     -18.0852834463    -2.4155422573     2.1117178657
  104      C     -19.8347289430    -2.5621151945     0.7622354360
  105      H     -20.2913471354    -1.8518911964     0.0617565291
  106      C     -20.7568582021    -2.8391393929     1.9559398479
  107      H     -19.6936586500    -3.3477627933     0.0107894813
  108      H     -21.7737691559    -2.9187079234     1.5505080275
  109      H     -20.7128516561    -1.9753296372     2.6305272254
  110      H     -20.5257062442    -3.7037919451     2.5887223826
 ----------------------------------------------------------------

    9   -5663.4980302602      6.68E-06 Convergence criterion met
 Total energy in the final basis set = -5663.4980302602

                    Orbital Energies (a.u.)
 --------------------------------------------------------------

 Alpha MOs
 -- Occupied --
-88.991 -88.987 -88.934 -88.931 -88.925 -88.917 -88.912 -88.902
-14.392 -14.385 -14.379 -14.375 -14.354 -14.348 -14.343 -14.339
-14.335 -14.331 -10.270 -10.267 -10.267 -10.267 -10.258 -10.256
-10.255 -10.254 -10.244 -10.241 -10.239 -10.238 -10.238 -10.237
-10.234 -10.234 -10.234 -10.233 -10.232 -10.232 -10.230 -10.230
-10.229 -10.226 -10.225 -10.225 -10.223 -10.222 -10.221 -10.221
-10.218 -10.213 -10.208 -10.208 -10.206 -10.202 -10.200 -10.193
-10.186 -10.184 -10.179 -10.179 -10.178 -10.178 -10.176 -10.174
-10.173 -10.170 -10.168 -10.165  -8.048  -8.043  -7.995  -7.993
 -7.984  -7.977  -7.972  -7.962  -6.013  -6.008  -6.007  -6.005
 -6.002  -6.000  -5.959  -5.957  -5.956  -5.953  -5.952  -5.950
 -5.948  -5.944  -5.941  -5.940  -5.937  -5.936  -5.933  -5.933
 -5.928  -5.927  -5.923  -5.918  -1.061  -1.039  -0.986  -0.982
 -0.970  -0.945  -0.934  -0.930  -0.925  -0.920  -0.916  -0.905
 -0.847  -0.843  -0.835  -0.826  -0.819  -0.814  -0.811  -0.810
 -0.809  -0.800  -0.798  -0.793  -0.790  -0.777  -0.774  -0.765
 -0.751  -0.750  -0.745  -0.739  -0.729  -0.720  -0.711  -0.709
 -0.696  -0.695  -0.680  -0.676  -0.659  -0.653  -0.648  -0.642
 -0.639  -0.635  -0.631  -0.621  -0.612  -0.611  -0.605  -0.596
 -0.596  -0.592  -0.583  -0.581  -0.579  -0.579  -0.573  -0.571
 -0.554  -0.549  -0.544  -0.543  -0.527  -0.526  -0.522  -0.516
 -0.510  -0.508  -0.505  -0.501  -0.492  -0.484  -0.481  -0.478
 -0.475  -0.471  -0.469  -0.468  -0.464  -0.456  -0.451  -0.451
 -0.449  -0.444  -0.442  -0.440  -0.439  -0.438  -0.434  -0.434
 -0.430  -0.425  -0.423  -0.421  -0.420  -0.420  -0.418  -0.415
 -0.413  -0.407  -0.407  -0.405  -0.402  -0.400  -0.399  -0.399
 -0.397  -0.397  -0.393  -0.391  -0.390  -0.388  -0.388  -0.387
 -0.383  -0.378  -0.373  -0.371  -0.368  -0.364  -0.361  -0.358
 -0.355  -0.352  -0.350  -0.349  -0.346  -0.344  -0.342  -0.339
 -0.339  -0.336  -0.333  -0.332  -0.330  -0.328  -0.323  -0.315
 -0.312  -0.310  -0.309  -0.308  -0.304  -0.302  -0.302  -0.300
 -0.296  -0.295  -0.293  -0.292  -0.292  -0.286  -0.285  -0.281
 -0.278  -0.274  -0.272  -0.267  -0.257  -0.254  -0.252  -0.252
 -0.248  -0.241  -0.237  -0.234  -0.196  -0.196

          Ground-State Mulliken Net Atomic Charges

     Atom                 Charge (a.u.)
  ----------------------------------------
      1 C                     0.278468
      2 C                    -0.127426
      3 N                    -0.484988
      4 C                    -0.110282
      5 C                     0.091504
      6 C                     0.045691
      7 C                     0.064934
      8 C                     0.056974
      9 C                     0.219805
     10 N                    -0.510122
     11 N                    -0.546282
     12 C                     0.227630
     13 C                     0.290317
     14 S                     0.599464
     15 N                    -0.557194
     16 C                    -0.237153
     17 S                     0.294961
     18 C                    -0.100550
     19 C                    -0.210687
     20 S                     0.259326
     21 C                     0.136327
     22 C                     0.036666
     23 C                    -0.322190
     24 C                    -0.017381
     25 N                    -0.407098
     26 S                     0.275704
     27 C                     0.130968
     28 C                    -0.314721
     29 C                    -0.232814
     30 H                     0.103039
     31 H                     0.098111
     32 H                     0.123093
     33 H                     0.105650
     34 H                     0.128507
     35 H                     0.107459
     36 H                     0.116759
     37 H                     0.129726
     38 H                     0.101083
     39 C                    -0.182319
     40 H                     0.117757
     41 H                     0.089251
     42 H                     0.123715
     43 C                    -0.184304
     44 H                     0.099831
     45 C                    -0.162518
     46 H                     0.093582
     47 H                     0.086376
     48 H                     0.092323
     49 C                    -0.170876
     50 H                     0.091881
     51 C                    -0.317315
     52 H                     0.090123
     53 H                     0.093715
     54 H                     0.095236
     55 H                     0.101319
     56 C                     0.280969
     57 C                    -0.109442
     58 N                    -0.487330
     59 C                    -0.098243
     60 C                     0.049740
     61 C                     0.069547
     62 C                     0.047319
     63 C                     0.049042
     64 C                     0.253967
     65 N                    -0.512320
     66 N                    -0.554944
     67 C                     0.171173
     68 C                     0.272676
     69 S                     0.596059
     70 N                    -0.555348
     71 C                    -0.194029
     72 S                     0.360925
     73 C                    -0.128791
     74 C                    -0.226506
     75 S                     0.291392
     76 C                     0.162735
     77 C                     0.068300
     78 C                    -0.303350
     79 C                    -0.091171
     80 N                    -0.424573
     81 S                     0.278014
     82 C                     0.116980
     83 C                    -0.317489
     84 C                    -0.243234
     85 H                     0.094719
     86 H                     0.095130
     87 H                     0.131334
     88 H                     0.110673
     89 H                     0.127813
     90 H                     0.116657
     91 H                     0.115402
     92 H                     0.129673
     93 H                     0.101874
     94 C                    -0.177757
     95 H                     0.122853
     96 H                     0.100383
     97 H                     0.111780
     98 C                    -0.192939
     99 H                     0.095871
    100 C                    -0.182810
    101 H                     0.088929
    102 H                     0.093989
    103 H                     0.095920
    104 C                    -0.179626
    105 H                     0.093290
    106 C                    -0.321158
    107 H                     0.090139
    108 H                     0.101494
    109 H                     0.106320
    110 H                     0.106928
  ----------------------------------------
  Sum of atomic charges =     0.000000

                    Cartesian Multipole Moments
 -----------------------------------------------------------------
    Charge (ESU x 10^10)
                 0.0000
    Dipole Moment (Debye)
         X       1.7829      Y      -2.4315      Z      -2.4645
       Tot       3.8942
    Quadrupole Moments (Debye-Ang)
        XX    -444.4763     XY      -7.8234     YY    -428.9456
        XZ      -0.6523     YZ      15.8745     ZZ    -433.8325

 Total job time:  83.81s(wall), 914.17s(cpu)
        *  Thank you very much for using Q-Chem.  Have a nice day.  *
