 Q-Chem 4.4, Q-Chem, Inc., Pleasanton, CA (2016)
 Q-Chem 4.4.2 for Intel X86 Linux

User input:
--------------------------------------------------------------
$comment
SP
$end

$rem
MEM_STATIC 5000
MEM_TOTAL 20000
JOBTYPE SP
EXCHANGE B3LYP
BASIS 6-31g(d,p)
$end

$molecule
0 1
C           2.931000     -3.502000     -9.682000
C           3.285000     -2.761000     -8.542000
N           2.004000     -3.127000    -10.585000
C           2.655000     -1.571000     -8.293000
C           1.377000     -1.900000    -10.390000
C           1.657000     -1.138000     -9.213000
C           1.031000      0.197000     -9.066000
C           1.656000      1.369000     -8.693000
C          -0.354000      0.466000     -9.342000
N           1.159000      2.566000     -8.507000
N          -1.147000     -0.414000     -9.908000
C          -0.991000      1.721000     -9.202000
C          -0.179000      2.784000     -8.654000
S          -2.626000      0.271000    -10.143000
N          -2.293000      1.743000     -9.492000
C          -0.762000      4.133000     -8.314000
S          -2.421000      4.669000     -8.628000
C          -0.002000      5.204000     -7.890000
C          -2.144000      6.267000     -8.069000
S           1.700000      5.408000     -7.509000
C          -0.792000      6.404000     -7.796000
C          -2.954000      7.444000     -8.299000
C           1.334000      7.048000     -7.089000
C           0.042000      7.437000     -7.323000
N          -3.893000      7.257000     -9.190000
S          -2.778000      9.125000     -7.729000
C          -4.475000      8.485000     -9.580000
C          -4.148000      9.572000     -8.811000
C           3.795000     -4.752000     -9.994000
H           4.169000     -3.038000     -7.975000
H           2.960000     -0.993000     -7.425000
H           0.676000     -1.652000    -11.186000
H           2.745000      1.338000     -8.686000
H           2.129000      7.570000     -6.572000
H          -0.253000      8.461000     -7.122000
H          -5.242000      8.429000    -10.342000
H          -4.568000     10.566000     -8.726000
H           3.837000     -4.746000    -11.090000
C           3.311000     -6.198000     -9.553000
H           4.820000     -4.501000     -9.694000
H           2.231000     -6.233000     -9.741000
H           3.451000     -6.343000     -8.475000
C           4.020000     -7.338000    -10.236000
H           3.891000     -7.199000    -11.316000
C           3.335000     -8.686000     -9.858000
H           5.106000     -7.368000    -10.082000
H           2.250000     -8.534000     -9.918000
H           3.680000     -8.816000     -8.825000
C           3.762000     -9.927000    -10.759000
H           3.649000     -9.622000    -11.807000
C           2.884000    -11.177000    -10.423000
H           4.823000    -10.209000    -10.760000
H           3.284000    -11.518000     -9.460000
H           2.986000    -11.932000    -11.213000
H           1.803000    -10.992000    -10.428000
C         -15.177000     10.585000    -15.330000
C         -15.275000     11.741000    -14.551000
N         -14.157000      9.721000    -15.237000
C         -14.109000     12.173000    -13.884000
C         -13.081000     10.100000    -14.425000
C         -13.011000     11.298000    -13.735000
C         -11.716000     11.724000    -13.047000
C         -11.738000     12.741000    -12.036000
C         -10.405000     11.156000    -13.253000
N         -10.651000     13.276000    -11.405000
N         -10.064000     10.333000    -14.207000
C          -9.270000     11.716000    -12.660000
C          -9.388000     12.769000    -11.669000
S          -8.432000     10.145000    -14.254000
N          -8.081000     11.249000    -13.079000
C          -8.249000     13.180000    -10.868000
S          -6.754000     12.296000    -10.617000
C          -8.118000     14.423000    -10.342000
C          -6.019000     13.692000     -9.775000
S          -9.271000     15.743000    -10.402000
C          -6.940000     14.710000     -9.721000
C          -4.742000     13.704000     -9.158000
C          -8.088000     16.741000     -9.573000
C          -6.898000     16.078000     -9.281000
N          -3.891000     12.837000     -9.593000
S          -4.260000     14.912000     -8.008000
C          -2.646000     13.225000     -9.137000
C          -2.647000     14.344000     -8.358000
C         -16.315000     10.191000    -16.253000
H         -16.106000     12.433000    -14.446000
H         -14.255000     13.096000    -13.329000
H         -12.217000      9.439000    -14.472000
H         -12.673000     13.219000    -11.750000
H          -8.272000     17.771000     -9.297000
H          -6.083000     16.590000     -8.784000
H          -1.838000     12.648000     -9.568000
H          -1.773000     14.844000     -7.964000
H         -17.234000     10.501000    -15.742000
C         -16.407000      8.666000    -16.610000
H         -16.232000     10.708000    -17.217000
H         -16.321000      7.987000    -15.753000
H         -15.505000      8.374000    -17.162000
C         -17.747000      8.369000    -17.385000
H         -18.480000      8.272000    -16.574000
C         -17.750000      7.178000    -18.440000
H         -18.083000      9.235000    -17.968000
H         -17.662000      6.251000    -17.859000
H         -16.916000      7.104000    -19.148000
C         -19.127000      7.164000    -19.253000
H         -19.910000      6.918000    -18.525000
C         -19.118000      6.169000    -20.420000
H         -19.490000      8.183000    -19.431000
H         -20.169000      5.971000    -20.667000
H         -18.656000      5.237000    -20.072000
H         -18.556000      6.444000    -21.320000
$end

--------------------------------------------------------------

             Standard Nuclear Orientation (Angstroms)
    I     Atom           X                Y                Z
 ----------------------------------------------------------------
    1      C      12.8302139810    -1.8259479895    -0.6224019686
    2      C      12.7825348539    -0.5550881591    -0.0252093764
    3      N      11.7509274567    -2.5382078843    -1.0008057754
    4      C      11.5671822207     0.0284067246     0.2144835473
    5      C      10.5004033621    -1.9560896178    -0.8163855686
    6      C      10.3953229402    -0.6920735837    -0.1563896819
    7      C       9.0594383290    -0.0618922144    -0.0380945109
    8      C       8.7338207449     1.2492838520    -0.3176092901
    9      C       7.8732119721    -0.7699110241     0.3598230626
   10      N       7.5908041334     1.8767700050    -0.1984952544
   11      N       7.8392036022    -2.0755436352     0.4931344105
   12      C       6.5848366116    -0.2026989369     0.4967660381
   13      C       6.4989850061     1.2262003062     0.2955361821
   14      S       6.3042868697    -2.5352128117     0.8734314950
   15      N       5.6262210881    -1.0382208256     0.9001857348
   16      C       5.2221316164     1.9879509810     0.5498417671
   17      S       3.6538936097     1.2912189218     0.9895769059
   18      C       5.0698318530     3.3305437696     0.2693664807
   19      C       2.8300425632     2.7950129591     0.9377411423
   20      S       6.1592105834     4.5792478055    -0.3116440291
   21      C       3.7069615476     3.7549790844     0.4574494255
   22      C       1.4031273460     3.0270241333     0.8713123990
   23      C       4.8408545493     5.6933820941    -0.1681234578
   24      C       3.6417536702     5.1371941575     0.1898612635
   25      N       0.7144749581     1.9389648487     0.6422799084
   26      S       0.4544829467     4.5375103423     0.8593869592
   27      C      -0.6266412624     2.2457596244     0.3165618574
   28      C      -1.0129975498     3.5428460828     0.5360032815
   29      C      14.2336775529    -2.3558081566    -1.0172161090
   30      H      13.6943751629     0.0270435779     0.0714544304
   31      H      11.5452095523     1.0243681680     0.6482012032
   32      H       9.6860399069    -2.5765424152    -1.1883687522
   33      H       9.4960081695     1.8188084121    -0.8483098697
   34      H       5.1185846509     6.7357509295    -0.2582966337
   35      H       2.7608762322     5.7656081042     0.2616446236
   36      H      -1.2644150396     1.4040880877     0.0780191286
   37      H      -1.9814103743     4.0243449784     0.5806845407
   38      H      14.0323371756    -2.8916619784    -1.9528114992
   39      C      15.0157383942    -3.3563370783    -0.0648633816
   40      H      14.8138954724    -1.4819722757    -1.3387499627
   41      H      14.2689407586    -4.0580030971     0.3261955520
   42      H      15.4348792515    -2.8245489950     0.7978250767
   43      C      16.1600971488    -4.0866048125    -0.7174904399
   44      H      15.7522391230    -4.6175024625    -1.5859151724
   45      C      16.7237045566    -5.1622676995     0.2594993469
   46      H      16.9498031481    -3.4425850177    -1.1244485932
   47      H      15.8679956682    -5.6759933565     0.7153252430
   48      H      17.2620972638    -4.5331188990     0.9787483160
   49      C      17.7030743824    -6.2238125323    -0.4099543948
   50      H      17.1956010457    -6.6187570471    -1.2991043500
   51      C      18.0579791039    -7.3595221850     0.6051742785
   52      H      18.6216149240    -5.8411799903    -0.8737664377
   53      H      18.7680711717    -6.8776473571     1.2887062130
   54      H      18.4969723229    -8.2144620869     0.0751820920
   55      H      17.1930350641    -7.8208174380     1.0969969067
   56      C     -10.5524140415    -5.0673272163     0.3722358916
   57      C     -11.2737310503    -3.9479545414     0.7958956457
   58      N      -9.2319331333    -5.0473951667     0.1453485089
   59      C     -10.6499353939    -2.6888775794     0.6667709662
   60      C      -8.6019808464    -3.7977957667     0.1945669586
   61      C      -9.2572472961    -2.6055361830     0.4501974825
   62      C      -8.5373713996    -1.2701981491     0.2755663597
   63      C      -9.0613476001    -0.0836886572     0.8875615942
   64      C      -7.2897253408    -1.0491880048    -0.4160367259
   65      N      -8.5711964428     1.1831733446     0.7434522219
   66      N      -6.6743776834    -1.9049799164    -1.1859026003
   67      C      -6.7924575839     0.2407327273    -0.6217143447
   68      C      -7.4110728120     1.3893156099     0.0130191122
   69      S      -5.4441687267    -1.1755527628    -1.9955314971
   70      N      -5.7426557721     0.3541877676    -1.4538291863
   71      C      -6.7632048046     2.6885881206     0.0140129932
   72      S      -5.0738095635     3.0321285176    -0.3137151180
   73      C      -7.4425740697     3.8596066998     0.0918518581
   74      C      -5.3862090364     4.7929242440    -0.3105561580
   75      S      -9.1680604369     4.0896347553     0.3044380527
   76      C      -6.7178555294     5.0046599608    -0.0471807534
   77      C      -4.4012204325     5.8055179493    -0.4371003729
   78      C      -8.8985100362     5.8191772699     0.1674735624
   79      C      -7.5634603087     6.1671146670    -0.0262137963
   80      N      -3.3019767341     5.4614256384    -1.0188037107
   81      S      -4.6893079057     7.4624840685    -0.0063372276
   82      C      -2.6369854208     6.6253726100    -1.3527483178
   83      C      -3.2663966356     7.7722780756    -0.9687530371
   84      C     -11.2367045675    -6.4173154002     0.2650566979
   85      H     -12.3039287803    -3.8793746777     1.1341846337
   86      H     -11.2856249186    -1.8659997460     0.9830633935
   87      H      -7.5593138982    -3.7981195452    -0.1192347787
   88      H      -9.9739447695    -0.1212225066     1.4793914824
   89      H      -9.6928666380     6.5498871731     0.2448856195
   90      H      -7.2692254084     7.2033117409    -0.1406666134
   91      H      -1.7705933629     6.4539291269    -1.9784686500
   92      H      -2.9448702570     8.7793792332    -1.1956451839
   93      H     -11.9736618759    -6.4430029715     1.0762385975
   94      C     -10.2972278073    -7.6690056111     0.3754787659
   95      H     -11.7433971688    -6.5219190360    -0.7023081181
   96      H      -9.5836565172    -7.6365144835     1.2077325376
   97      H      -9.5929377222    -7.6614914339    -0.4656460840
   98      C     -11.1565117580    -8.9870453841     0.4694800890
   99      H     -11.4185100384    -9.0305012577     1.5343216209
  100      C     -10.5358555203   -10.3258600445    -0.1253948052
  101      H     -12.1151733369    -8.8886476743    -0.0539956677
  102      H      -9.7028581476   -10.5996382191     0.5347528208
  103      H     -10.0635425036   -10.2893855276    -1.1142760033
  104      C     -11.6276294159   -11.4942509555    -0.1117405020
  105      H     -11.8355673853   -11.7067915869     0.9442790437
  106      C     -11.1600993211   -12.7531266769    -0.8524445783
  107      H     -12.6291343135   -11.1003193101    -0.3205940361
  108      H     -11.7844224906   -13.5783568299    -0.4863438071
  109      H     -10.1177791250   -12.9483517718    -0.5720381395
  110      H     -11.1579651215   -12.7285364141    -1.9482820499
 ----------------------------------------------------------------

    9   -5663.5082397055      6.22E-06 Convergence criterion met
 Total energy in the final basis set = -5663.5082397055

                    Orbital Energies (a.u.)
 --------------------------------------------------------------

 Alpha MOs
 -- Occupied --
-88.990 -88.981 -88.937 -88.930 -88.921 -88.921 -88.915 -88.910
-14.388 -14.381 -14.377 -14.370 -14.357 -14.348 -14.346 -14.336
-14.332 -14.330 -10.271 -10.270 -10.267 -10.266 -10.258 -10.257
-10.251 -10.247 -10.246 -10.243 -10.242 -10.239 -10.236 -10.236
-10.236 -10.235 -10.233 -10.231 -10.230 -10.229 -10.228 -10.228
-10.228 -10.227 -10.225 -10.223 -10.220 -10.220 -10.219 -10.216
-10.214 -10.212 -10.211 -10.209 -10.206 -10.202 -10.198 -10.194
-10.187 -10.184 -10.182 -10.181 -10.180 -10.179 -10.179 -10.179
-10.175 -10.174 -10.173 -10.173  -8.045  -8.036  -7.999  -7.988
 -7.981  -7.979  -7.975  -7.970  -6.010  -6.005  -6.002  -6.002
 -5.996  -5.994  -5.963  -5.960  -5.956  -5.953  -5.949  -5.945
 -5.945  -5.944  -5.942  -5.940  -5.939  -5.938  -5.936  -5.936
 -5.934  -5.931  -5.931  -5.926  -1.041  -1.034  -0.990  -0.958
 -0.956  -0.948  -0.931  -0.926  -0.923  -0.910  -0.907  -0.902
 -0.851  -0.848  -0.828  -0.826  -0.823  -0.813  -0.803  -0.803
 -0.799  -0.794  -0.791  -0.789  -0.778  -0.778  -0.767  -0.761
 -0.752  -0.744  -0.741  -0.739  -0.733  -0.722  -0.711  -0.708
 -0.696  -0.692  -0.679  -0.674  -0.654  -0.650  -0.645  -0.637
 -0.635  -0.629  -0.623  -0.621  -0.615  -0.608  -0.605  -0.598
 -0.594  -0.590  -0.586  -0.580  -0.578  -0.572  -0.571  -0.569
 -0.547  -0.547  -0.541  -0.533  -0.529  -0.525  -0.518  -0.511
 -0.510  -0.505  -0.504  -0.495  -0.483  -0.483  -0.474  -0.473
 -0.471  -0.470  -0.466  -0.466  -0.462  -0.457  -0.453  -0.446
 -0.443  -0.442  -0.439  -0.438  -0.437  -0.434  -0.432  -0.428
 -0.427  -0.424  -0.423  -0.423  -0.421  -0.415  -0.414  -0.413
 -0.408  -0.406  -0.404  -0.403  -0.400  -0.400  -0.399  -0.398
 -0.394  -0.391  -0.391  -0.390  -0.388  -0.387  -0.382  -0.379
 -0.378  -0.372  -0.367  -0.365  -0.362  -0.361  -0.361  -0.354
 -0.353  -0.352  -0.349  -0.348  -0.346  -0.345  -0.342  -0.340
 -0.339  -0.335  -0.335  -0.331  -0.327  -0.324  -0.323  -0.316
 -0.312  -0.309  -0.308  -0.307  -0.303  -0.302  -0.301  -0.299
 -0.297  -0.296  -0.293  -0.292  -0.286  -0.284  -0.283  -0.277
 -0.274  -0.273  -0.269  -0.266  -0.261  -0.253  -0.252  -0.250
 -0.248  -0.242  -0.236  -0.228  -0.199  -0.193

          Ground-State Mulliken Net Atomic Charges

     Atom                 Charge (a.u.)
  ----------------------------------------
      1 C                     0.267662
      2 C                    -0.107716
      3 N                    -0.483525
      4 C                    -0.065533
      5 C                     0.089005
      6 C                     0.016240
      7 C                     0.062331
      8 C                     0.042189
      9 C                     0.218014
     10 N                    -0.515285
     11 N                    -0.554057
     12 C                     0.216766
     13 C                     0.299493
     14 S                     0.589554
     15 N                    -0.570072
     16 C                    -0.243273
     17 S                     0.373450
     18 C                    -0.103651
     19 C                    -0.201661
     20 S                     0.292819
     21 C                     0.103897
     22 C                     0.066880
     23 C                    -0.307801
     24 C                    -0.081066
     25 N                    -0.423623
     26 S                     0.238059
     27 C                     0.106839
     28 C                    -0.296482
     29 C                    -0.237418
     30 H                     0.091697
     31 H                     0.105288
     32 H                     0.130580
     33 H                     0.097016
     34 H                     0.129366
     35 H                     0.107003
     36 H                     0.117634
     37 H                     0.161404
     38 H                     0.116416
     39 C                    -0.171602
     40 H                     0.093209
     41 H                     0.110000
     42 H                     0.090103
     43 C                    -0.180572
     44 H                     0.092402
     45 C                    -0.168407
     46 H                     0.090979
     47 H                     0.097409
     48 H                     0.092982
     49 C                    -0.190792
     50 H                     0.091937
     51 C                    -0.314659
     52 H                     0.093158
     53 H                     0.108460
     54 H                     0.098136
     55 H                     0.104610
     56 C                     0.281162
     57 C                    -0.109161
     58 N                    -0.486837
     59 C                    -0.098637
     60 C                     0.050461
     61 C                     0.070119
     62 C                     0.048590
     63 C                     0.049290
     64 C                     0.255116
     65 N                    -0.512193
     66 N                    -0.552314
     67 C                     0.170087
     68 C                     0.273801
     69 S                     0.599170
     70 N                    -0.558705
     71 C                    -0.193541
     72 S                     0.355044
     73 C                    -0.130734
     74 C                    -0.227561
     75 S                     0.293823
     76 C                     0.163050
     77 C                     0.064773
     78 C                    -0.302352
     79 C                    -0.091042
     80 N                    -0.431971
     81 S                     0.278427
     82 C                     0.115895
     83 C                    -0.309464
     84 C                    -0.243577
     85 H                     0.095278
     86 H                     0.095274
     87 H                     0.131862
     88 H                     0.111480
     89 H                     0.128784
     90 H                     0.116610
     91 H                     0.123059
     92 H                     0.133980
     93 H                     0.102258
     94 C                    -0.177996
     95 H                     0.123236
     96 H                     0.100644
     97 H                     0.112046
     98 C                    -0.192962
     99 H                     0.095985
    100 C                    -0.182794
    101 H                     0.088937
    102 H                     0.094184
    103 H                     0.096023
    104 C                    -0.179558
    105 H                     0.093326
    106 C                    -0.321228
    107 H                     0.089997
    108 H                     0.101581
    109 H                     0.106514
    110 H                     0.106965
  ----------------------------------------
  Sum of atomic charges =     0.000000

                    Cartesian Multipole Moments
 -----------------------------------------------------------------
    Charge (ESU x 10^10)
                 0.0000
    Dipole Moment (Debye)
         X      -3.1482      Y       5.3712      Z      -0.0561
       Tot       6.2261
    Quadrupole Moments (Debye-Ang)
        XX    -382.6824     XY      -2.6773     YY    -400.7171
        XZ      -4.0816     YZ      -6.4017     ZZ    -453.5170

 Total job time:  82.71s(wall), 882.29s(cpu)
        *  Thank you very much for using Q-Chem.  Have a nice day.  *
