 Q-Chem 4.4, Q-Chem, Inc., Pleasanton, CA (2016)
 Q-Chem 4.4.2 for Intel X86 Linux

User input:
--------------------------------------------------------------
$comment
SP
$end

$rem
MEM_STATIC 5000
MEM_TOTAL 20000
JOBTYPE SP
EXCHANGE B3LYP
BASIS 6-31g(d,p)
$end

$molecule
0 1
C         -19.048000     -8.659000    -10.531000
C         -20.033000     -9.369000     -9.780000
N         -18.443000     -9.205000    -11.633000
C         -20.489000    -10.630000    -10.312000
C         -18.838000    -10.432000    -12.086000
C         -19.764000    -11.262000    -11.374000
C         -19.943000    -12.654000    -11.904000
C         -19.688000    -13.000000    -13.268000
C         -20.584000    -13.695000    -11.218000
N         -19.916000    -14.136000    -13.866000
N         -20.869000    -13.666000     -9.853000
C         -20.903000    -14.922000    -11.793000
C         -20.559000    -15.127000    -13.182000
S         -21.519000    -15.160000     -9.519000
N         -21.474000    -15.819000    -10.977000
C         -20.838000    -16.362000    -13.929000
S         -22.108000    -17.573000    -13.524000
C         -20.246000    -16.669000    -15.192000
C         -21.788000    -18.454000    -15.029000
S         -18.958000    -15.976000    -16.012000
C         -20.786000    -17.858000    -15.780000
C         -22.412000    -19.649000    -15.491000
C         -19.109000    -17.184000    -17.263000
C         -20.091000    -18.164000    -16.972000
N         -21.977000    -20.260000    -16.568000
S         -23.626000    -20.510000    -14.595000
C         -22.464000    -21.529000    -16.660000
C         -23.508000    -21.716000    -15.789000
C         -18.391000     -7.318000    -10.184000
H         -20.480000     -9.065000     -8.839000
H         -21.158000    -11.213000     -9.686000
H         -18.192000    -10.773000    -12.893000
H         -19.493000    -12.256000    -14.039000
H         -18.364000    -17.173000    -18.047000
H         -20.150000    -19.079000    -17.551000
H         -22.005000    -22.188000    -17.385000
H         -24.180000    -22.561000    -15.708000
H         -17.669000     -7.405000     -9.362000
C         -19.397000     -6.272000     -9.641000
H         -17.826000     -6.847000    -10.998000
H         -18.876000     -5.326000     -9.449000
H         -19.778000     -6.515000     -8.641000
C         -20.580000     -6.038000    -10.521000
H         -20.276000     -5.576000    -11.469000
C         -21.608000     -5.086000     -9.826000
H         -20.991000     -6.981000    -10.904000
H         -21.212000     -4.063000     -9.819000
H         -21.779000     -5.414000     -8.793000
C         -22.974000     -5.088000    -10.539000
H         -22.735000     -4.927000    -11.597000
C         -24.032000     -4.082000     -9.994000
H         -23.423000     -6.069000    -10.341000
H         -23.501000     -3.151000     -9.760000
H         -24.470000     -4.388000     -9.036000
H         -24.901000     -3.987000    -10.656000
C         -15.142000    -15.577000    -15.147000
C         -14.401000    -16.287000    -14.138000
N         -15.982000    -14.598000    -14.825000
C         -14.806000    -16.138000    -12.817000
C         -16.274000    -14.375000    -13.524000
C         -15.734000    -15.175000    -12.469000
C         -16.149000    -14.946000    -11.068000
C         -16.116000    -15.993000    -10.163000
C         -16.481000    -13.717000    -10.491000
N         -16.474000    -15.896000     -8.822000
N         -16.436000    -12.608000    -11.193000
C         -16.693000    -13.580000     -9.126000
C         -16.728000    -14.693000     -8.341000
S         -16.571000    -11.399000    -10.098000
N         -16.772000    -12.244000     -8.715000
C         -16.905000    -14.628000     -6.894000
S         -16.226000    -15.805000     -5.711000
C         -18.005000    -14.020000     -6.302000
C         -17.308000    -15.177000     -4.405000
S         -19.173000    -12.863000     -6.902000
C         -18.172000    -14.269000     -4.977000
C         -17.133000    -15.392000     -3.042000
C         -19.807000    -12.608000     -5.314000
C         -19.166000    -13.435000     -4.354000
N         -15.899000    -15.773000     -2.754000
S         -18.072000    -15.002000     -1.656000
C         -15.660000    -15.865000     -1.405000
C         -16.701000    -15.341000     -0.602000
C         -14.936000    -15.790000    -16.653000
H         -13.550000    -16.916000    -14.378000
H         -14.346000    -16.760000    -12.055000
H         -17.075000    -13.684000    -13.264000
H         -15.974000    -17.006000    -10.536000
H         -20.493000    -11.779000     -5.200000
H         -19.451000    -13.355000     -3.312000
H         -14.716000    -16.179000     -0.979000
H         -16.696000    -15.402000      0.479000
H         -15.847000    -16.223000    -17.085000
C         -13.739000    -16.651000    -17.119000
H         -14.867000    -14.791000    -17.101000
H         -14.147000    -17.283000    -17.917000
H         -13.453000    -17.346000    -16.321000
C         -12.499000    -15.836000    -17.593000
H         -12.769000    -15.224000    -18.463000
C         -11.290000    -16.778000    -17.841000
H         -12.201000    -15.150000    -16.790000
H         -11.479000    -17.350000    -18.758000
H         -11.231000    -17.502000    -17.019000
C         -10.005000    -16.007000    -18.006000
H         -10.029000    -15.050000    -18.544000
C          -8.989000    -16.879000    -18.838000
H          -9.589000    -15.759000    -17.022000
H          -9.194000    -16.947000    -19.914000
H          -8.948000    -17.924000    -18.505000
H          -7.935000    -16.583000    -18.771000
$end

--------------------------------------------------------------

             Standard Nuclear Orientation (Angstroms)
    I     Atom           X                Y                Z
 ----------------------------------------------------------------
    1      C       3.4716315790     4.1794874731    -1.7930642563
    2      C       3.8459441053     3.7207007934    -0.4939372744
    3      N       2.1933469290     4.0460704502    -2.2692294079
    4      C       2.7919030167     3.2482453325     0.3702757903
    5      C       1.2183656667     3.5325895358    -1.4614473280
    6      C       1.4925458814     2.9772254841    -0.1692724250
    7      C       0.3470273845     2.2820747419     0.5053814261
    8      C      -1.0199750210     2.5839265676     0.2131026231
    9      C       0.4642544443     1.4546561087     1.6309009604
   10      N      -2.0885010612     2.1350732536     0.8104859203
   11      N       1.6734230617     0.9295495925     2.0863846608
   12      C      -0.6222986130     0.9674025226     2.3519428430
   13      C      -1.9473121490     1.3467943995     1.9159578282
   14      S       1.2596567221    -0.0574628917     3.3594501628
   15      N      -0.3272020055     0.1516915850     3.3737254318
   16      C      -3.1888340317     0.9206385743     2.5778412224
   17      S      -3.3385149660     0.3871776132     4.2914517443
   18      C      -4.4817478517     1.0506717557     1.9850957241
   19      C      -5.1049355991     0.3309366427     4.1493915446
   20      S      -4.9526325541     1.3951363748     0.4130891328
   21      C      -5.5389671847     0.6971643727     2.8841979498
   22      C      -6.0494572915    -0.0516609586     5.1455556115
   23      C      -6.6235721942     1.1807617908     0.8703311442
   24      C      -6.7804864662     0.7467196736     2.2106260191
   25      N      -7.3232716598    -0.1697010548     4.8524029367
   26      S      -5.6062624427    -0.5920057034     6.7360080260
   27      C      -8.0021921029    -0.8516170509     5.8167947690
   28      C      -7.2531061802    -0.9535649924     6.9622304493
   29      C       4.3890746515     4.7129046506    -2.8994562861
   30      H       4.8481561719     3.6825598901    -0.0794228054
   31      H       3.0939039496     2.8042763156     1.3142106125
   32      H       0.2928944142     3.3878038166    -2.0158714043
   33      H      -1.3186933595     3.4318522569    -0.4015447389
   34      H      -7.3594334526     1.2425398549     0.0800820194
   35      H      -7.7362619403     0.3774362648     2.5656894038
   36      H      -9.0017660280    -1.1900849117     5.5783026822
   37      H      -7.5503653810    -1.3221451465     7.9358605832
   38      H       4.9787409527     3.9185003500    -3.3745904361
   39      C       5.4824324028     5.6747093873    -2.3698323853
   40      H       3.8791605861     5.2128974143    -3.7323169479
   41      H       6.0790095154     6.0513154473    -3.2097637065
   42      H       6.2500335859     5.1702736986    -1.7693800061
   43      C       4.9620666418     6.8138312218    -1.5572648983
   44      H       4.3578840505     7.4902517235    -2.1753123895
   45      C       6.1395924261     7.6403538600    -0.9437452525
   46      H       4.1932015949     6.4845460176    -0.8464366534
   47      H       6.6291441950     8.2217359114    -1.7347749460
   48      H       6.8720587936     6.9621984554    -0.4882101082
   49      C       5.6592143452     8.6031054199     0.1592848166
   50      H       4.8137759573     9.1387142196    -0.2887811895
   51      C       6.7388582793     9.5574137733     0.7526561523
   52      H       5.3714168924     7.9754794251     1.0115900653
   53      H       7.3627508193     9.8976124387    -0.0831075503
   54      H       7.4438772848     9.0523229090     1.4242776385
   55      H       6.3041078852    10.3445856002     1.3801771557
   56      C      -4.3736982720    -0.4445151035    -3.0147089265
   57      C      -3.9434386805    -1.8040266171    -3.2093037057
   58      N      -3.5192975073     0.5021862064    -2.6385693737
   59      C      -2.6992907077    -2.1642202181    -2.7056933488
   60      C      -2.2653197387     0.1563876607    -2.2703885465
   61      C      -1.8224160551    -1.2028619203    -2.2403568394
   62      C      -0.4681367856    -1.5384914952    -1.7496966222
   63      C      -0.2310044671    -2.7805359706    -1.1862990853
   64      C       0.6832533917    -0.7590845880    -1.8925935534
   65      N       0.9992608877    -3.2104129356    -0.6989522359
   66      N       0.6438598375     0.3939176792    -2.5200837284
   67      C       1.9404970047    -1.2364232769    -1.5484652725
   68      C       2.0478705960    -2.4378932864    -0.9150935585
   69      S       2.2092002785     0.8142406427    -2.7480506340
   70      N       2.9803347791    -0.4086200632    -1.9883939510
   71      C       3.3351995971    -3.0250734525    -0.5582091299
   72      S       3.6821654090    -4.7907433518    -0.4694198727
   73      C       4.2562091919    -2.3717247765     0.2511145592
   74      C       5.2221853565    -4.4833175966     0.4275594839
   75      S       4.4442213841    -0.6899215308     0.6972784959
   76      C       5.2782409191    -3.1370747249     0.7150171406
   77      C       6.2614097824    -5.3953258000     0.5787964814
   78      C       5.9925463184    -1.0004548966     1.4008294368
   79      C       6.3308207189    -2.3781350254     1.3377588989
   80      N       6.1957811571    -6.3743420924    -0.3089427725
   81      S       7.7349036795    -5.3688266645     1.4636300992
   82      C       7.2796123016    -7.2164568470    -0.2697153569
   83      C       8.3326088718    -6.7563772675     0.5564753013
   84      C      -5.7896687911     0.0485459421    -3.3429760350
   85      H      -4.5504028094    -2.5353796597    -3.7329059148
   86      H      -2.4085832965    -3.2102388118    -2.7271945750
   87      H      -1.6144272388     0.9016561900    -1.8147617553
   88      H      -1.0797504649    -3.4146664428    -0.9353593009
   89      H       6.5779522862    -0.1317481422     1.6719040167
   90      H       7.2897857275    -2.7056583885     1.7205167322
   91      H       7.3937981282    -8.0838098574    -0.9067933367
   92      H       9.2253983556    -7.3381514414     0.7482375191
   93      H      -6.2928230254     0.3474798637    -2.4148013063
   94      C      -6.7411260473    -0.8990247237    -4.1098690672
   95      H      -5.6702175633     0.9833416361    -3.9045402918
   96      H      -7.7066469201    -0.7928876370    -3.6007557565
   97      H      -6.4402377336    -1.9392699684    -3.9396308408
   98      C      -6.8493956259    -0.6130979483    -5.6372932314
   99      H      -7.2556758014     0.3937073968    -5.7973663902
  100      C      -7.6568674295    -1.7341045816    -6.3457298303
  101      H      -5.8415851843    -0.6321887121    -6.0710704282
  102      H      -8.7144600528    -1.6225802923    -6.0758147028
  103      H      -7.3285794409    -2.7061184913    -5.9574554997
  104      C      -7.5276304625    -1.6537885078    -7.8456425393
  105      H      -7.4976691482    -0.6641574101    -8.3206179176
  106      C      -8.7803889360    -2.3476394065    -8.5044529351
  107      H      -6.5995216827    -2.1415287172    -8.1674182080
  108      H      -9.7155638286    -1.7748541172    -8.4621453405
  109      H      -9.0321127694    -3.3091735742    -8.0389616288
  110      H      -8.6728042608    -2.6323854476    -9.5581921010
 ----------------------------------------------------------------

   10   -5663.4937719932      3.84E-06 Convergence criterion met
 Total energy in the final basis set = -5663.4937719932

                    Orbital Energies (a.u.)
 --------------------------------------------------------------

 Alpha MOs
 -- Occupied --
-88.987 -88.981 -88.931 -88.928 -88.926 -88.917 -88.908 -88.902
-14.385 -14.383 -14.378 -14.371 -14.345 -14.341 -14.339 -14.332
-14.331 -14.324 -10.265 -10.264 -10.259 -10.254 -10.252 -10.246
-10.246 -10.244 -10.243 -10.243 -10.238 -10.236 -10.232 -10.232
-10.231 -10.231 -10.230 -10.229 -10.229 -10.228 -10.228 -10.228
-10.228 -10.225 -10.224 -10.223 -10.221 -10.221 -10.217 -10.214
-10.213 -10.209 -10.207 -10.204 -10.203 -10.201 -10.198 -10.196
-10.187 -10.185 -10.183 -10.182 -10.182 -10.179 -10.177 -10.177
-10.177 -10.172 -10.172 -10.172  -8.042  -8.036  -7.989  -7.989
 -7.988  -7.974  -7.969  -7.963  -6.007  -6.002  -6.001  -6.000
 -5.995  -5.994  -5.954  -5.952  -5.952  -5.950  -5.949  -5.949
 -5.946  -5.946  -5.945  -5.939  -5.935  -5.933  -5.930  -5.929
 -5.928  -5.926  -5.924  -5.919  -1.034  -1.032  -0.979  -0.965
 -0.961  -0.954  -0.935  -0.927  -0.909  -0.909  -0.899  -0.895
 -0.846  -0.839  -0.830  -0.827  -0.815  -0.809  -0.805  -0.805
 -0.805  -0.799  -0.795  -0.792  -0.780  -0.779  -0.767  -0.766
 -0.749  -0.745  -0.740  -0.737  -0.722  -0.719  -0.709  -0.706
 -0.693  -0.690  -0.674  -0.669  -0.655  -0.653  -0.644  -0.640
 -0.637  -0.633  -0.624  -0.619  -0.612  -0.606  -0.598  -0.598
 -0.593  -0.592  -0.583  -0.580  -0.578  -0.572  -0.571  -0.570
 -0.549  -0.542  -0.537  -0.535  -0.522  -0.520  -0.509  -0.509
 -0.505  -0.504  -0.499  -0.494  -0.483  -0.481  -0.479  -0.474
 -0.471  -0.469  -0.466  -0.463  -0.462  -0.461  -0.449  -0.446
 -0.441  -0.440  -0.440  -0.438  -0.438  -0.437  -0.436  -0.433
 -0.428  -0.426  -0.421  -0.421  -0.418  -0.416  -0.412  -0.411
 -0.409  -0.408  -0.403  -0.402  -0.401  -0.399  -0.398  -0.394
 -0.392  -0.391  -0.390  -0.387  -0.385  -0.381  -0.381  -0.379
 -0.378  -0.371  -0.369  -0.367  -0.365  -0.363  -0.359  -0.356
 -0.353  -0.351  -0.347  -0.346  -0.344  -0.343  -0.342  -0.338
 -0.337  -0.335  -0.333  -0.332  -0.328  -0.324  -0.323  -0.319
 -0.316  -0.312  -0.310  -0.308  -0.305  -0.303  -0.301  -0.299
 -0.294  -0.294  -0.287  -0.285  -0.284  -0.282  -0.276  -0.274
 -0.271  -0.270  -0.267  -0.262  -0.253  -0.251  -0.247  -0.245
 -0.243  -0.239  -0.228  -0.224  -0.188  -0.188

          Ground-State Mulliken Net Atomic Charges

     Atom                 Charge (a.u.)
  ----------------------------------------
      1 C                     0.258165
      2 C                    -0.112388
      3 N                    -0.473851
      4 C                    -0.093942
      5 C                     0.043503
      6 C                     0.039793
      7 C                     0.059544
      8 C                     0.046937
      9 C                     0.201188
     10 N                    -0.507841
     11 N                    -0.566945
     12 C                     0.214380
     13 C                     0.284636
     14 S                     0.614627
     15 N                    -0.557618
     16 C                    -0.215876
     17 S                     0.324309
     18 C                    -0.117658
     19 C                    -0.228482
     20 S                     0.339791
     21 C                     0.152844
     22 C                     0.076034
     23 C                    -0.330706
     24 C                    -0.056033
     25 N                    -0.438423
     26 S                     0.270695
     27 C                     0.126771
     28 C                    -0.315830
     29 C                    -0.222105
     30 H                     0.103397
     31 H                     0.126387
     32 H                     0.123939
     33 H                     0.120009
     34 H                     0.129684
     35 H                     0.127320
     36 H                     0.119074
     37 H                     0.131337
     38 H                     0.112649
     39 C                    -0.193147
     40 H                     0.123851
     41 H                     0.091495
     42 H                     0.086482
     43 C                    -0.172826
     44 H                     0.091077
     45 C                    -0.176440
     46 H                     0.098701
     47 H                     0.091814
     48 H                     0.085008
     49 C                    -0.173330
     50 H                     0.094668
     51 C                    -0.324401
     52 H                     0.094351
     53 H                     0.100028
     54 H                     0.099541
     55 H                     0.104485
     56 C                     0.275502
     57 C                    -0.123912
     58 N                    -0.487656
     59 C                    -0.083319
     60 C                     0.100531
     61 C                     0.050295
     62 C                     0.072140
     63 C                     0.012431
     64 C                     0.230722
     65 N                    -0.520078
     66 N                    -0.575334
     67 C                     0.224276
     68 C                     0.248987
     69 S                     0.635044
     70 N                    -0.537328
     71 C                    -0.219833
     72 S                     0.344241
     73 C                    -0.134911
     74 C                    -0.218328
     75 S                     0.287480
     76 C                     0.155258
     77 C                     0.053995
     78 C                    -0.313053
     79 C                    -0.090371
     80 N                    -0.424005
     81 S                     0.268474
     82 C                     0.113962
     83 C                    -0.316303
     84 C                    -0.238242
     85 H                     0.094013
     86 H                     0.098016
     87 H                     0.119165
     88 H                     0.109790
     89 H                     0.135190
     90 H                     0.113390
     91 H                     0.117324
     92 H                     0.134581
     93 H                     0.110821
     94 C                    -0.188897
     95 H                     0.124850
     96 H                     0.092342
     97 H                     0.089698
     98 C                    -0.179411
     99 H                     0.098514
    100 C                    -0.166589
    101 H                     0.097916
    102 H                     0.096639
    103 H                     0.094039
    104 C                    -0.173166
    105 H                     0.100508
    106 C                    -0.336071
    107 H                     0.097807
    108 H                     0.104209
    109 H                     0.098936
    110 H                     0.095052
  ----------------------------------------
  Sum of atomic charges =     0.000000

                    Cartesian Multipole Moments
 -----------------------------------------------------------------
    Charge (ESU x 10^10)
                 0.0000
    Dipole Moment (Debye)
         X      -0.0598      Y      -1.2160      Z       2.6331
       Tot       2.9009
    Quadrupole Moments (Debye-Ang)
        XX    -380.7485     XY      10.2327     YY    -447.7121
        XZ       2.8204     YZ      -3.1959     ZZ    -424.4440

 Total job time:  105.75s(wall), 1152.14s(cpu)
        *  Thank you very much for using Q-Chem.  Have a nice day.  *
