 Q-Chem 4.4, Q-Chem, Inc., Pleasanton, CA (2016)
 Q-Chem 4.4.2 for Intel X86 Linux

User input:
--------------------------------------------------------------
$comment
SP
$end

$rem
MEM_STATIC 5000
MEM_TOTAL 20000
JOBTYPE SP
EXCHANGE B3LYP
BASIS 6-31g(d,p)
$end

$molecule
0 1
C         -14.422000     -6.323000     -9.688000
C         -13.412000     -6.803000     -8.898000
N         -14.968000     -7.154000    -10.632000
C         -13.014000     -8.168000     -9.015000
C         -14.680000     -8.449000    -10.680000
C         -13.644000     -9.030000     -9.950000
C         -13.358000    -10.460000    -10.003000
C         -13.216000    -11.162000    -11.201000
C         -13.203000    -11.253000     -8.841000
N         -12.935000    -12.439000    -11.338000
N         -13.317000    -10.754000     -7.585000
C         -12.911000    -12.596000     -8.946000
C         -12.809000    -13.241000    -10.280000
S         -12.936000    -12.059000     -6.595000
N         -12.632000    -13.167000     -7.726000
C         -12.445000    -14.633000    -10.433000
S         -12.739000    -15.889000     -9.144000
C         -11.988000    -15.240000    -11.600000
C         -11.845000    -17.020000    -10.201000
S         -11.341000    -14.452000    -13.027000
C         -11.705000    -16.572000    -11.474000
C         -11.415000    -18.243000     -9.801000
C         -10.850000    -16.103000    -13.621000
C         -11.062000    -17.094000    -12.698000
N         -11.147000    -19.253000    -10.642000
S         -11.316000    -18.659000     -8.069000
C         -10.609000    -20.353000     -9.951000
C         -10.524000    -20.147000     -8.574000
C         -14.858000     -4.829000     -9.735000
H         -12.743000     -6.231000     -8.263000
H         -12.202000     -8.531000     -8.391000
H         -15.243000     -8.960000    -11.459000
H         -13.323000    -10.612000    -12.135000
H         -10.229000    -16.235000    -14.497000
H         -10.801000    -18.127000    -12.896000
H         -10.326000    -21.201000    -10.561000
H         -10.145000    -20.808000     -7.806000
H         -13.988000     -4.244000    -10.058000
C         -15.489000     -4.266000     -8.396000
H         -15.626000     -4.678000    -10.503000
H         -15.418000     -5.045000     -7.627000
H         -16.581000     -4.210000     -8.485000
C         -14.780000     -3.080000     -7.821000
H         -13.705000     -3.297000     -7.842000
C         -15.152000     -2.780000     -6.321000
H         -14.950000     -2.194000     -8.446000
H         -15.381000     -3.608000     -5.639000
H         -16.070000     -2.182000     -6.374000
C         -14.043000     -1.983000     -5.624000
H         -13.111000     -2.561000     -5.661000
C         -14.506000     -1.639000     -4.171000
H         -13.843000     -1.070000     -6.199000
H         -14.816000     -2.518000     -3.592000
H         -15.379000     -0.977000     -4.114000
H         -13.687000     -1.160000     -3.621000
C         -15.142000    -15.577000    -15.147000
C         -14.401000    -16.287000    -14.138000
N         -15.982000    -14.598000    -14.825000
C         -14.806000    -16.138000    -12.817000
C         -16.274000    -14.375000    -13.524000
C         -15.734000    -15.175000    -12.469000
C         -16.149000    -14.946000    -11.068000
C         -16.116000    -15.993000    -10.163000
C         -16.481000    -13.717000    -10.491000
N         -16.474000    -15.896000     -8.822000
N         -16.436000    -12.608000    -11.193000
C         -16.693000    -13.580000     -9.126000
C         -16.728000    -14.693000     -8.341000
S         -16.571000    -11.399000    -10.098000
N         -16.772000    -12.244000     -8.715000
C         -16.905000    -14.628000     -6.894000
S         -16.226000    -15.805000     -5.711000
C         -18.005000    -14.020000     -6.302000
C         -17.308000    -15.177000     -4.405000
S         -19.173000    -12.863000     -6.902000
C         -18.172000    -14.269000     -4.977000
C         -17.133000    -15.392000     -3.042000
C         -19.807000    -12.608000     -5.314000
C         -19.166000    -13.435000     -4.354000
N         -15.899000    -15.773000     -2.754000
S         -18.072000    -15.002000     -1.656000
C         -15.660000    -15.865000     -1.405000
C         -16.701000    -15.341000     -0.602000
C         -14.936000    -15.790000    -16.653000
H         -13.550000    -16.916000    -14.378000
H         -14.346000    -16.760000    -12.055000
H         -17.075000    -13.684000    -13.264000
H         -15.974000    -17.006000    -10.536000
H         -20.493000    -11.779000     -5.200000
H         -19.451000    -13.355000     -3.312000
H         -14.716000    -16.179000     -0.979000
H         -16.696000    -15.402000      0.479000
H         -15.847000    -16.223000    -17.085000
C         -13.739000    -16.651000    -17.119000
H         -14.867000    -14.791000    -17.101000
H         -14.147000    -17.283000    -17.917000
H         -13.453000    -17.346000    -16.321000
C         -12.499000    -15.836000    -17.593000
H         -12.769000    -15.224000    -18.463000
C         -11.290000    -16.778000    -17.841000
H         -12.201000    -15.150000    -16.790000
H         -11.479000    -17.350000    -18.758000
H         -11.231000    -17.502000    -17.019000
C         -10.005000    -16.007000    -18.006000
H         -10.029000    -15.050000    -18.544000
C          -8.989000    -16.879000    -18.838000
H          -9.589000    -15.759000    -17.022000
H          -9.194000    -16.947000    -19.914000
H          -8.948000    -17.924000    -18.505000
H          -7.935000    -16.583000    -18.771000
$end

--------------------------------------------------------------

             Standard Nuclear Orientation (Angstroms)
    I     Atom           X                Y                Z
 ----------------------------------------------------------------
    1      C      -4.5572838592     5.2845596742     0.1939431002
    2      C      -4.4464113810     4.6616342426     1.4081388012
    3      N      -3.5341963061     5.1493164379    -0.7087274519
    4      C      -3.3211024347     3.8249339833     1.6706848948
    5      C      -2.5364682363     4.2946560422    -0.5180253103
    6      C      -2.3091223768     3.6417521052     0.6926717241
    7      C      -1.2173272109     2.6905912557     0.8737279422
    8      C       0.1016236190     2.9711058438     0.5133777317
    9      C      -1.4084352767     1.4028466369     1.4289841928
   10      N       1.1444202875     2.1847903908     0.6641826275
   11      N      -2.6200556924     0.9426265959     1.8286171268
   12      C      -0.3389292025     0.5501652695     1.5993638953
   13      C       1.0198363961     0.9500220880     1.1523118034
   14      S      -2.2797201219    -0.5595587020     2.5038186008
   15      N      -0.6804888879    -0.5827182458     2.3009292323
   16      C       2.1768966935     0.1085658367     1.3684873002
   17      S       2.0749136576    -1.7042270130     1.5384124149
   18      C       3.5086489444     0.5119567167     1.3146473514
   19      C       3.8234485465    -1.6550849450     1.9069999887
   20      S       4.1290252257     2.1503316795     1.3967616061
   21      C       4.4136891548    -0.4819706027     1.5660428591
   22      C       4.5174258703    -2.7095789831     2.4040581318
   23      C       5.7952014669     1.4289804450     1.5491661005
   24      C       5.7837192858     0.0632238084     1.6654887951
   25      N       5.8455483945    -2.8538897152     2.2837669295
   26      S       3.6732674599    -4.0965175732     3.1433002610
   27      C       6.2955330365    -3.9785118672     2.9976743725
   28      C       5.2631619928    -4.6852204231     3.6145722938
   29      C      -5.6721826128     6.3118332377    -0.1610932288
   30      H      -5.0497554028     4.8319146747     2.2941131607
   31      H      -3.2400314658     3.3480528853     2.6435676814
   32      H      -1.8453537213     4.2855051888    -1.3589819020
   33      H       0.3198353266     3.9460015956     0.0794803662
   34      H       6.6621587321     2.0339085936     1.7791400885
   35      H       6.6959286343    -0.5094895327     1.7850192658
   36      H       7.3644634718    -4.1475355299     2.9871043265
   37      H       5.3153249497    -5.5730125080     4.2306000852
   38      H      -5.5823136110     7.1488054787     0.5423661022
   39      C      -7.1430115134     5.7262411376    -0.2034634714
   40      H      -5.4999997573     6.7348568717    -1.1580150258
   41      H      -7.1072788009     4.6798873776     0.1238131429
   42      H      -7.4604603912     5.5717195795    -1.2421502856
   43      C      -8.1093510946     6.3953062644     0.7230578020
   44      H      -7.6147941390     6.4976821684     1.6967556976
   45      C      -9.4293117097     5.5736467282     0.9699658442
   46      H      -8.3443609314     7.4056289853     0.3645339168
   47      H      -9.3954618872     4.4773911724     0.9850305665
   48      H     -10.0835353167     5.8347685386     0.1291663008
   49      C     -10.0897156764     5.9714865469     2.2952918718
   50      H      -9.3845903499     5.7856712618     3.1152601357
   51      C     -11.4363177238     5.1910926740     2.4421330408
   52      H     -10.2615233951     7.0553070262     2.2983375813
   53      H     -11.3243332637     4.1042861158     2.3406786881
   54      H     -12.1933212726     5.4395370222     1.6879162066
   55      H     -11.8734183359     5.3818733112     3.4296793959
   56      C       5.1258040406     1.7962473763    -2.9722980525
   57      C       5.1625897277     0.8024909364    -1.9319341973
   58      N       3.9876126682     2.1163916786    -3.5803712598
   59      C       4.0540721916    -0.0236786489    -1.7908679418
   60      C       2.8774524420     1.3834811173    -3.3395801027
   61      C       2.8820315176     0.2477908327    -2.4707811562
   62      C       1.6628641018    -0.5728858995    -2.3046862630
   63      C       1.7773455067    -1.9116971322    -1.9718176837
   64      C       0.3429468305    -0.1141166023    -2.3353966655
   65      N       0.7052510363    -2.7779718440    -1.7819873113
   66      N       0.0751905168     1.1588923510    -2.5155764686
   67      C      -0.7269168489    -0.9325422169    -1.9999727236
   68      C      -0.5087652322    -2.2590879326    -1.7788272138
   69      S      -1.5158873783     1.3182995188    -2.1663036720
   70      N      -1.9298701750    -0.2308304382    -1.8565785994
   71      C      -1.5737923290    -3.1746143383    -1.3827316652
   72      S      -1.3564228195    -4.6368644641    -0.3529578717
   73      C      -2.7219176047    -3.3593660033    -2.1428653202
   74      C      -2.9892010135    -5.2578937431    -0.8210412016
   75      S      -3.4667926482    -2.3964803521    -3.4001979701
   76      C      -3.4899138338    -4.4256031098    -1.7981404665
   77      C      -3.6994116101    -6.2443108571    -0.1448746645
   78      C      -4.8963868938    -3.3678715303    -3.3629894806
   79      C      -4.7787581794    -4.4395032264    -2.4387714363
   80      N      -3.2508312279    -6.4226943954     1.0871220701
   81      S      -5.1801664587    -7.0582124339    -0.4607010432
   82      C      -4.0150575101    -7.2949883311     1.8222734009
   83      C      -5.2289039534    -7.6623441270     1.1940278029
   84      C       6.3393713283     2.6473061357    -3.3707882360
   85      H       6.0126154023     0.6898695164    -1.2669418903
   86      H       4.1089951040    -0.8602578613    -1.1007616492
   87      H       1.9876413865     1.5404811948    -3.9480776468
   88      H       2.7559217472    -2.3856636213    -2.0284419598
   89      H      -5.7464015066    -2.9897914085    -3.9155866029
   90      H      -5.6170593245    -5.1108019610    -2.2973564475
   91      H      -3.7939717108    -7.5791277847     2.8428584489
   92      H      -5.9078126829    -8.3951055808     1.6117006278
   93      H       6.6380033388     2.3938509872    -4.3957825823
   94      C       7.6046784253     2.5882049677    -2.4837758335
   95      H       5.9839132042     3.6831003749    -3.4359481632
   96      H       8.4384696681     2.5380583689    -3.1943878810
   97      H       7.6309493119     1.6348024694    -1.9434439756
   98      C       7.7545858194     3.7760077513    -1.4872050531
   99      H       7.8375160596     4.7179996921    -2.0440872299
  100      C       8.9328784801     3.5211813199    -0.5088191908
  101      H       6.8467703797     3.8372308818    -0.8737461256
  102      H       9.8735027607     3.6416129115    -1.0606490510
  103      H       8.8922838190     2.4786941554    -0.1698301271
  104      C       8.9202218870     4.4900740355     0.6461603399
  105      H       8.6244038577     5.5308716787     0.4588078391
  106      C      10.3811490122     4.6143560899     1.2250471213
  107      H       8.2245687703     4.1412632366     1.4189564112
  108      H      11.0819253884     5.2028851283     0.6192657735
  109      H      10.8786603022     3.6434846970     1.3454059802
  110      H      10.4633046888     5.0328388998     2.2355636143
 ----------------------------------------------------------------

   10   -5663.4930081518      3.61E-06 Convergence criterion met
 Total energy in the final basis set = -5663.4930081518

                    Orbital Energies (a.u.)
 --------------------------------------------------------------

 Alpha MOs
 -- Occupied --
-88.985 -88.985 -88.930 -88.929 -88.925 -88.918 -88.913 -88.904
-14.387 -14.386 -14.378 -14.374 -14.347 -14.345 -14.342 -14.334
-14.323 -14.318 -10.266 -10.265 -10.260 -10.256 -10.249 -10.247
-10.246 -10.246 -10.245 -10.239 -10.238 -10.236 -10.235 -10.233
-10.233 -10.233 -10.233 -10.232 -10.230 -10.230 -10.229 -10.229
-10.226 -10.223 -10.223 -10.218 -10.217 -10.214 -10.214 -10.211
-10.210 -10.209 -10.205 -10.203 -10.203 -10.198 -10.198 -10.191
-10.188 -10.185 -10.182 -10.181 -10.180 -10.179 -10.179 -10.179
-10.179 -10.177 -10.175 -10.174  -8.040  -8.040  -7.990  -7.988
 -7.986  -7.976  -7.972  -7.966  -6.005  -6.005  -6.000  -5.999
 -5.998  -5.998  -5.954  -5.953  -5.950  -5.950  -5.949  -5.947
 -5.946  -5.945  -5.943  -5.940  -5.937  -5.937  -5.933  -5.932
 -5.930  -5.928  -5.927  -5.922  -1.036  -1.028  -0.967  -0.964
 -0.960  -0.955  -0.935  -0.930  -0.916  -0.911  -0.902  -0.895
 -0.844  -0.840  -0.831  -0.829  -0.810  -0.806  -0.805  -0.804
 -0.800  -0.800  -0.794  -0.794  -0.785  -0.778  -0.767  -0.767
 -0.752  -0.745  -0.740  -0.736  -0.734  -0.720  -0.710  -0.705
 -0.693  -0.690  -0.675  -0.671  -0.654  -0.653  -0.643  -0.640
 -0.639  -0.637  -0.621  -0.620  -0.615  -0.605  -0.599  -0.598
 -0.595  -0.592  -0.586  -0.581  -0.581  -0.578  -0.577  -0.569
 -0.554  -0.543  -0.540  -0.536  -0.523  -0.521  -0.510  -0.509
 -0.505  -0.504  -0.495  -0.494  -0.489  -0.480  -0.476  -0.475
 -0.472  -0.469  -0.469  -0.464  -0.461  -0.458  -0.451  -0.446
 -0.442  -0.441  -0.441  -0.437  -0.436  -0.436  -0.433  -0.432
 -0.428  -0.427  -0.423  -0.422  -0.420  -0.416  -0.416  -0.413
 -0.411  -0.408  -0.403  -0.402  -0.398  -0.396  -0.395  -0.394
 -0.392  -0.391  -0.389  -0.387  -0.384  -0.382  -0.379  -0.379
 -0.378  -0.373  -0.367  -0.365  -0.364  -0.361  -0.358  -0.357
 -0.354  -0.352  -0.351  -0.351  -0.349  -0.345  -0.343  -0.339
 -0.338  -0.334  -0.334  -0.331  -0.330  -0.329  -0.326  -0.325
 -0.318  -0.313  -0.311  -0.310  -0.305  -0.300  -0.297  -0.296
 -0.293  -0.290  -0.288  -0.286  -0.282  -0.281  -0.278  -0.275
 -0.272  -0.269  -0.266  -0.261  -0.253  -0.252  -0.249  -0.245
 -0.241  -0.238  -0.235  -0.222  -0.195  -0.190

          Ground-State Mulliken Net Atomic Charges

     Atom                 Charge (a.u.)
  ----------------------------------------
      1 C                     0.255171
      2 C                    -0.112720
      3 N                    -0.469072
      4 C                    -0.059354
      5 C                     0.064574
      6 C                     0.042198
      7 C                     0.013351
      8 C                     0.058040
      9 C                     0.246114
     10 N                    -0.514400
     11 N                    -0.575806
     12 C                     0.172428
     13 C                     0.302917
     14 S                     0.611681
     15 N                    -0.540735
     16 C                    -0.192470
     17 S                     0.325803
     18 C                    -0.112100
     19 C                    -0.201755
     20 S                     0.282645
     21 C                     0.148611
     22 C                     0.051956
     23 C                    -0.305297
     24 C                    -0.054783
     25 N                    -0.456782
     26 S                     0.264777
     27 C                     0.123604
     28 C                    -0.305777
     29 C                    -0.236125
     30 H                     0.092233
     31 H                     0.107022
     32 H                     0.102637
     33 H                     0.113072
     34 H                     0.134286
     35 H                     0.133618
     36 H                     0.119892
     37 H                     0.134916
     38 H                     0.111057
     39 C                    -0.187227
     40 H                     0.121100
     41 H                     0.101724
     42 H                     0.101438
     43 C                    -0.181408
     44 H                     0.090344
     45 C                    -0.172773
     46 H                     0.097009
     47 H                     0.092469
     48 H                     0.093776
     49 C                    -0.175708
     50 H                     0.093837
     51 C                    -0.325671
     52 H                     0.094928
     53 H                     0.101611
     54 H                     0.105831
     55 H                     0.098338
     56 C                     0.269206
     57 C                    -0.119261
     58 N                    -0.491983
     59 C                    -0.086924
     60 C                     0.099308
     61 C                     0.054947
     62 C                     0.079195
     63 C                     0.019136
     64 C                     0.222621
     65 N                    -0.518372
     66 N                    -0.560318
     67 C                     0.218249
     68 C                     0.250872
     69 S                     0.621548
     70 N                    -0.543115
     71 C                    -0.223387
     72 S                     0.343375
     73 C                    -0.125732
     74 C                    -0.219102
     75 S                     0.271966
     76 C                     0.154815
     77 C                     0.053699
     78 C                    -0.304425
     79 C                    -0.090139
     80 N                    -0.425827
     81 S                     0.271143
     82 C                     0.113377
     83 C                    -0.316348
     84 C                    -0.234714
     85 H                     0.097667
     86 H                     0.104026
     87 H                     0.114525
     88 H                     0.112233
     89 H                     0.140217
     90 H                     0.114730
     91 H                     0.116652
     92 H                     0.135056
     93 H                     0.116441
     94 C                    -0.188043
     95 H                     0.123152
     96 H                     0.092944
     97 H                     0.089712
     98 C                    -0.181439
     99 H                     0.098740
    100 C                    -0.167565
    101 H                     0.099922
    102 H                     0.098298
    103 H                     0.091776
    104 C                    -0.176397
    105 H                     0.103277
    106 C                    -0.336262
    107 H                     0.091291
    108 H                     0.106401
    109 H                     0.098841
    110 H                     0.094948
  ----------------------------------------
  Sum of atomic charges =     0.000000

                    Cartesian Multipole Moments
 -----------------------------------------------------------------
    Charge (ESU x 10^10)
                 0.0000
    Dipole Moment (Debye)
         X      -0.9179      Y      -2.0061      Z       3.8778
       Tot       4.4614
    Quadrupole Moments (Debye-Ang)
        XX    -388.4840     XY       3.7661     YY    -427.1554
        XZ       8.0572     YZ      -5.1502     ZZ    -441.4137

 Total job time:  112.55s(wall), 1211.98s(cpu)
        *  Thank you very much for using Q-Chem.  Have a nice day.  *
