 Q-Chem 4.4, Q-Chem, Inc., Pleasanton, CA (2016)
 Q-Chem 4.4.2 for Intel X86 Linux

User input:
--------------------------------------------------------------
$comment
SP
$end

$rem
MEM_STATIC 5000
MEM_TOTAL 20000
JOBTYPE SP
EXCHANGE B3LYP
BASIS 6-31g(d,p)
$end

$molecule
0 1
C          -9.140000    -15.171000     -6.285000
C          -8.504000    -14.271000     -5.417000
N         -10.400000    -15.603000     -6.088000
C          -9.174000    -13.898000     -4.257000
C         -11.018000    -15.238000     -4.990000
C         -10.449000    -14.439000     -3.964000
C         -11.166000    -14.062000     -2.702000
C         -10.454000    -13.907000     -1.436000
C         -12.541000    -13.732000     -2.651000
N         -11.043000    -13.654000     -0.209000
N         -13.276000    -13.451000     -3.722000
C         -13.113000    -13.287000     -1.382000
C         -12.375000    -13.328000     -0.221000
S         -14.686000    -12.972000     -3.048000
N         -14.390000    -12.897000     -1.435000
C         -13.040000    -13.204000      1.073000
S         -14.621000    -13.804000      1.376000
C         -12.344000    -12.885000      2.189000
C         -14.250000    -13.761000      3.138000
S         -10.780000    -12.099000      2.394000
C         -13.054000    -13.219000      3.369000
C         -15.250000    -14.133000      4.178000
C         -10.988000    -12.374000      4.167000
C         -12.218000    -12.913000      4.486000
N         -14.938000    -13.951000      5.431000
S         -16.882000    -14.761000      3.781000
C         -16.040000    -14.197000      6.227000
C         -17.128000    -14.705000      5.533000
C          -8.514000    -15.646000     -7.584000
H          -7.573000    -13.748000     -5.617000
H          -8.764000    -13.106000     -3.638000
H         -12.014000    -15.565000     -4.694000
H          -9.391000    -14.142000     -1.446000
H         -10.311000    -11.870000      4.844000
H         -12.598000    -13.136000      5.477000
H         -15.902000    -14.050000      7.290000
H         -18.091000    -15.055000      5.883000
H          -7.471000    -15.830000     -7.298000
C          -8.735000    -14.732000     -8.801000
H          -8.834000    -16.675000     -7.790000
H          -9.818000    -14.574000     -8.874000
H          -8.341000    -15.189000     -9.717000
C          -8.002000    -13.344000     -8.725000
H          -7.093000    -13.311000     -8.111000
C          -8.936000    -12.191000     -8.311000
H          -7.558000    -13.080000     -9.693000
H          -9.326000    -12.327000     -7.294000
H          -9.777000    -12.117000     -9.012000
C          -8.179000    -10.835000     -8.265000
H          -7.804000    -10.631000     -9.275000
C          -6.947000    -10.672000     -7.359000
H          -8.918000    -10.037000     -8.120000
H          -6.576000     -9.641000     -7.313000
H          -6.090000    -11.276000     -7.680000
H          -7.142000    -10.903000     -6.305000
C         -15.142000    -15.577000    -15.147000
C         -14.401000    -16.287000    -14.138000
N         -15.982000    -14.598000    -14.825000
C         -14.806000    -16.138000    -12.817000
C         -16.274000    -14.375000    -13.524000
C         -15.734000    -15.175000    -12.469000
C         -16.149000    -14.946000    -11.068000
C         -16.116000    -15.993000    -10.163000
C         -16.481000    -13.717000    -10.491000
N         -16.474000    -15.896000     -8.822000
N         -16.436000    -12.608000    -11.193000
C         -16.693000    -13.580000     -9.126000
C         -16.728000    -14.693000     -8.341000
S         -16.571000    -11.399000    -10.098000
N         -16.772000    -12.244000     -8.715000
C         -16.905000    -14.628000     -6.894000
S         -16.226000    -15.805000     -5.711000
C         -18.005000    -14.020000     -6.302000
C         -17.308000    -15.177000     -4.405000
S         -19.173000    -12.863000     -6.902000
C         -18.172000    -14.269000     -4.977000
C         -17.133000    -15.392000     -3.042000
C         -19.807000    -12.608000     -5.314000
C         -19.166000    -13.435000     -4.354000
N         -15.899000    -15.773000     -2.754000
S         -18.072000    -15.002000     -1.656000
C         -15.660000    -15.865000     -1.405000
C         -16.701000    -15.341000     -0.602000
C         -14.936000    -15.790000    -16.653000
H         -13.550000    -16.916000    -14.378000
H         -14.346000    -16.760000    -12.055000
H         -17.075000    -13.684000    -13.264000
H         -15.974000    -17.006000    -10.536000
H         -20.493000    -11.779000     -5.200000
H         -19.451000    -13.355000     -3.312000
H         -14.716000    -16.179000     -0.979000
H         -16.696000    -15.402000      0.479000
H         -15.847000    -16.223000    -17.085000
C         -13.739000    -16.651000    -17.119000
H         -14.867000    -14.791000    -17.101000
H         -14.147000    -17.283000    -17.917000
H         -13.453000    -17.346000    -16.321000
C         -12.499000    -15.836000    -17.593000
H         -12.769000    -15.224000    -18.463000
C         -11.290000    -16.778000    -17.841000
H         -12.201000    -15.150000    -16.790000
H         -11.479000    -17.350000    -18.758000
H         -11.231000    -17.502000    -17.019000
C         -10.005000    -16.007000    -18.006000
H         -10.029000    -15.050000    -18.544000
C          -8.989000    -16.879000    -18.838000
H          -9.589000    -15.759000    -17.022000
H          -9.194000    -16.947000    -19.914000
H          -8.948000    -17.924000    -18.505000
H          -7.935000    -16.583000    -18.771000
$end

--------------------------------------------------------------

             Standard Nuclear Orientation (Angstroms)
    I     Atom           X                Y                Z
 ----------------------------------------------------------------
    1      C       1.2541031912    -4.7032518093    -1.2788798087
    2      C       0.3540668346    -5.4565692703    -0.5105261403
    3      N       1.0157737714    -3.4259956929    -1.6322194479
    4      C      -0.8735274137    -4.8846454414    -0.1950194121
    5      C      -0.1462089534    -2.9017013287    -1.3229225566
    6      C      -1.1989268913    -3.5892008115    -0.6641605325
    7      C      -2.5312483281    -2.9765562166    -0.3503959879
    8      C      -3.7584588866    -3.7687101816    -0.3634857069
    9      C      -2.6968892175    -1.6371762022     0.0747513662
   10      N      -5.0372940916    -3.2716364069    -0.1792109632
   11      N      -1.7023491756    -0.8677430875     0.5049719922
   12      C      -4.0328517645    -1.1746394552     0.4446619375
   13      C      -5.1372389153    -1.9711901640     0.2444570691
   14      S      -2.5024213949     0.4595843277     1.0244942506
   15      N      -4.0940408205     0.0682895591     0.9315103377
   16      C      -6.4764417296    -1.3919971281     0.3002087460
   17      S      -6.8260235309     0.2121191469    -0.2057295314
   18      C      -7.5695510169    -2.1728189288     0.4647152858
   19      C      -8.5583310553    -0.2596590899    -0.3494999602
   20      S      -7.7420851622    -3.8033725653     1.1108142001
   21      C      -8.7590274926    -1.5060368590     0.0792241897
   22      C      -9.6236291596     0.7066405918    -0.7385871920
   23      C      -9.4946061318    -3.6742538210     0.6931820640
   24      C      -9.8431927133    -2.4252170138     0.2203433499
   25      N     -10.8654404962     0.3111726940    -0.6940142593
   26      S      -9.2779961548     2.4031188821    -1.2054021837
   27      C     -11.7053382748     1.3827033677    -0.9283851975
   28      C     -11.0403684054     2.5449395189    -1.2895862516
   29      C       2.6258681119    -5.2154607611    -1.6798847864
   30      H       0.5668489136    -6.4134496306    -0.0421312610
   31      H      -1.5309759849    -5.3904476014     0.5053023361
   32      H      -0.4753239729    -1.9011031689    -1.6004970989
   33      H      -3.6613867404    -4.8074267890    -0.6748356834
   34      H     -10.1682389818    -4.4261680823     1.0824348445
   35      H     -10.8334401131    -2.0850542293    -0.0623390992
   36      H     -12.7661989092     1.1738785592    -0.8885240158
   37      H     -11.4191280674     3.5114840004    -1.5973229635
   38      H       2.4229909743    -6.2549764180    -1.9658027225
   39      C       3.7437919178    -4.9996664906    -0.6459577111
   40      H       2.8986203655    -4.8036346508    -2.6595186277
   41      H       3.7345805239    -3.9302576993    -0.4021094237
   42      H       4.7185614565    -5.3039538749    -1.0464256051
   43      C       3.5956041891    -5.8437411459     0.6713074003
   44      H       3.0395614776    -6.7855867934     0.5812558642
   45      C       3.0263641564    -5.0290774110     1.8483587093
   46      H       4.5635064511    -6.2521514047     0.9878864136
   47      H       2.0021856861    -4.6873372213     1.6504771697
   48      H       3.6640402251    -4.1585159252     2.0474816133
   49      C       2.9122588476    -5.8928078672     3.1347687052
   50      H       3.9227099514    -6.2254159180     3.4006661507
   51      C       2.0751034360    -7.1828750584     3.1235233011
   52      H       2.6531782827    -5.2288789885     3.9690502553
   53      H       1.9644881532    -7.6366167736     4.1157937859
   54      H       2.5000168683    -7.9697561861     2.4890371578
   55      H       1.0345602011    -7.0297420458     2.8134877280
   56      C       9.7222743775     1.8010416748    -0.4373769675
   57      C       8.8264877013     1.0632103665    -1.2885133792
   58      N       9.2653346781     2.5411523671     0.5681911675
   59      C       7.4746878370     1.3801331684    -1.2296570771
   60      C       7.9342097715     2.7408575264     0.6939621195
   61      C       6.9877178058     2.2076344337    -0.2357965010
   62      C       5.5488921847     2.5236529595    -0.1039628055
   63      C       4.7407348359     2.5230849841    -1.2278864582
   64      C       4.8490191689     2.7239679879     1.0892034240
   65      N       3.3764628590     2.7962374727    -1.2259652602
   66      N       5.4549362803     2.6305602960     2.2506032075
   67      C       3.4666625376     2.8472857056     1.1178545059
   68      C       2.7791886602     2.9263894177    -0.0557473306
   69      S       4.2541299383     2.6072592634     3.3625619256
   70      N       2.9386373783     2.7966396046     2.4134942721
   71      C       1.3236670258     3.0159809781    -0.1085973445
   72      S       0.2909377573     2.3671711456    -1.4346346966
   73      C       0.6136285529     4.0291444995     0.5234414565
   74      C      -1.1296315899     3.3206639325    -0.8484792266
   75      S       1.0375480601     5.1334230391     1.8132996497
   76      C      -0.6930727148     4.1405951475     0.1690045086
   77      C      -2.4554688450     3.0868999529    -1.1979487889
   78      C      -0.6032491466     5.6548155411     1.9703327202
   79      C      -1.4466011188     5.0285618134     1.0148361375
   80      N      -2.6314290880     1.8728313187    -1.6938684842
   81      S      -3.9261951140     3.9124813270    -0.8659900019
   82      C      -3.9498411665     1.5663861988    -1.9246648877
   83      C      -4.8587732781     2.5156339085    -1.3994628291
   84      C      11.2509599825     1.6976660687    -0.5283429246
   85      H       9.1726222086     0.2797302869    -1.9546904335
   86      H       6.7992536494     0.9288705766    -1.9502670488
   87      H       7.5660327748     3.4685238841     1.4162012565
   88      H       5.2072949244     2.4832292251    -2.2108387471
   89      H      -0.8308182299     6.2652770795     2.8342667585
   90      H      -2.5075104684     5.2472324684     1.0214313254
   91      H      -4.2870364738     0.6278532767    -2.3449781979
   92      H      -5.9281093011     2.4546909759    -1.5579349995
   93      H      11.6601519450     2.6630447837    -0.8518237962
   94      C      11.8634865850     0.6009766268    -1.4302128871
   95      H      11.6152466399     1.5748230625     0.4991155062
   96      H      12.6853492115     1.1021457050    -1.9556302244
   97      H      11.1475371252     0.3266623648    -2.2136623473
   98      C      12.3431968417    -0.6712219837    -0.6700222761
   99      H      13.1388524620    -0.4021866379     0.0363035104
  100      C      12.7466498117    -1.7856826464    -1.6728942182
  101      H      11.5048053333    -1.0674853236    -0.0832650486
  102      H      13.6955069901    -1.5005459602    -2.1442339315
  103      H      11.9950091747    -1.8331211929    -2.4704698805
  104      C      12.9257149160    -3.1165548371    -0.9876162451
  105      H      13.3772244627    -3.1384394797     0.0131480586
  106      C      13.8916988320    -4.0116401638    -1.8539656735
  107      H      11.9522848481    -3.6056396235    -0.8609435386
  108      H      14.9544990104    -3.7416790744    -1.8092242943
  109      H      13.6526327518    -3.9881503011    -2.9248954731
  110      H      13.8661813290    -5.0879208971    -1.6442285993
 ----------------------------------------------------------------

    9   -5663.4906965906      9.68E-06 Convergence criterion met
 Total energy in the final basis set = -5663.4906965906

                    Orbital Energies (a.u.)
 --------------------------------------------------------------

 Alpha MOs
 -- Occupied --
-88.991 -88.978 -88.934 -88.928 -88.923 -88.922 -88.909 -88.905
-14.394 -14.386 -14.381 -14.380 -14.351 -14.348 -14.344 -14.340
-14.328 -14.326 -10.273 -10.266 -10.254 -10.253 -10.253 -10.252
-10.250 -10.247 -10.242 -10.238 -10.237 -10.236 -10.235 -10.235
-10.235 -10.234 -10.234 -10.234 -10.233 -10.228 -10.228 -10.227
-10.226 -10.226 -10.226 -10.222 -10.221 -10.221 -10.212 -10.211
-10.209 -10.209 -10.208 -10.207 -10.202 -10.202 -10.197 -10.195
-10.185 -10.185 -10.184 -10.183 -10.182 -10.181 -10.180 -10.177
-10.177 -10.176 -10.175 -10.173  -8.046  -8.033  -7.995  -7.989
 -7.982  -7.980  -7.971  -7.965  -6.011  -6.006  -6.004  -5.998
 -5.992  -5.991  -5.959  -5.955  -5.953  -5.952  -5.950  -5.947
 -5.946  -5.945  -5.943  -5.941  -5.939  -5.937  -5.935  -5.931
 -5.930  -5.927  -5.926  -5.921  -1.042  -1.037  -0.973  -0.970
 -0.961  -0.944  -0.943  -0.939  -0.917  -0.916  -0.909  -0.908
 -0.845  -0.839  -0.836  -0.825  -0.813  -0.806  -0.806  -0.804
 -0.803  -0.801  -0.799  -0.792  -0.783  -0.780  -0.772  -0.761
 -0.750  -0.744  -0.741  -0.736  -0.726  -0.724  -0.709  -0.707
 -0.695  -0.690  -0.677  -0.666  -0.659  -0.656  -0.650  -0.642
 -0.642  -0.632  -0.628  -0.622  -0.614  -0.611  -0.604  -0.597
 -0.596  -0.595  -0.584  -0.582  -0.580  -0.576  -0.575  -0.563
 -0.549  -0.549  -0.541  -0.531  -0.527  -0.519  -0.516  -0.511
 -0.510  -0.506  -0.501  -0.498  -0.485  -0.484  -0.478  -0.476
 -0.469  -0.468  -0.467  -0.466  -0.466  -0.457  -0.452  -0.447
 -0.444  -0.442  -0.442  -0.441  -0.440  -0.436  -0.434  -0.433
 -0.431  -0.423  -0.422  -0.420  -0.416  -0.415  -0.414  -0.411
 -0.408  -0.407  -0.405  -0.404  -0.402  -0.401  -0.400  -0.397
 -0.391  -0.390  -0.388  -0.385  -0.384  -0.382  -0.382  -0.380
 -0.378  -0.372  -0.370  -0.369  -0.367  -0.363  -0.361  -0.357
 -0.356  -0.354  -0.351  -0.349  -0.347  -0.347  -0.343  -0.341
 -0.339  -0.336  -0.336  -0.332  -0.330  -0.328  -0.328  -0.322
 -0.320  -0.319  -0.316  -0.309  -0.303  -0.303  -0.300  -0.298
 -0.296  -0.294  -0.293  -0.290  -0.289  -0.285  -0.282  -0.280
 -0.278  -0.275  -0.268  -0.263  -0.253  -0.251  -0.248  -0.247
 -0.245  -0.244  -0.230  -0.229  -0.195  -0.192

          Ground-State Mulliken Net Atomic Charges

     Atom                 Charge (a.u.)
  ----------------------------------------
      1 C                     0.248038
      2 C                    -0.107962
      3 N                    -0.478183
      4 C                    -0.087695
      5 C                     0.111838
      6 C                     0.035476
      7 C                     0.004027
      8 C                     0.055227
      9 C                     0.199934
     10 N                    -0.502337
     11 N                    -0.502829
     12 C                     0.180341
     13 C                     0.260788
     14 S                     0.630597
     15 N                    -0.545464
     16 C                    -0.218650
     17 S                     0.320202
     18 C                    -0.109067
     19 C                    -0.284823
     20 S                     0.265985
     21 C                     0.209819
     22 C                     0.082881
     23 C                    -0.302923
     24 C                    -0.056941
     25 N                    -0.438128
     26 S                     0.241728
     27 C                     0.128564
     28 C                    -0.316025
     29 C                    -0.218513
     30 H                     0.100481
     31 H                     0.099351
     32 H                     0.115389
     33 H                     0.111447
     34 H                     0.130495
     35 H                     0.122918
     36 H                     0.117732
     37 H                     0.132584
     38 H                     0.091845
     39 C                    -0.176776
     40 H                     0.112795
     41 H                     0.115710
     42 H                     0.095404
     43 C                    -0.182695
     44 H                     0.090918
     45 C                    -0.174720
     46 H                     0.087703
     47 H                     0.102902
     48 H                     0.093635
     49 C                    -0.182963
     50 H                     0.089689
     51 C                    -0.322148
     52 H                     0.089645
     53 H                     0.104114
     54 H                     0.103492
     55 H                     0.096178
     56 C                     0.268673
     57 C                    -0.123605
     58 N                    -0.486932
     59 C                    -0.084063
     60 C                     0.096858
     61 C                     0.046974
     62 C                     0.080915
     63 C                     0.016314
     64 C                     0.229113
     65 N                    -0.514631
     66 N                    -0.554802
     67 C                     0.224589
     68 C                     0.252992
     69 S                     0.610305
     70 N                    -0.534713
     71 C                    -0.221400
     72 S                     0.354156
     73 C                    -0.125105
     74 C                    -0.222808
     75 S                     0.271391
     76 C                     0.156249
     77 C                     0.049581
     78 C                    -0.304324
     79 C                    -0.090893
     80 N                    -0.428409
     81 S                     0.270503
     82 C                     0.100458
     83 C                    -0.295608
     84 C                    -0.234791
     85 H                     0.096059
     86 H                     0.100903
     87 H                     0.118136
     88 H                     0.112758
     89 H                     0.141791
     90 H                     0.116784
     91 H                     0.125022
     92 H                     0.145598
     93 H                     0.119102
     94 C                    -0.189737
     95 H                     0.124283
     96 H                     0.095390
     97 H                     0.088323
     98 C                    -0.179520
     99 H                     0.099068
    100 C                    -0.166806
    101 H                     0.096557
    102 H                     0.097486
    103 H                     0.093903
    104 C                    -0.172939
    105 H                     0.100296
    106 C                    -0.336270
    107 H                     0.097094
    108 H                     0.104617
    109 H                     0.099248
    110 H                     0.094842
  ----------------------------------------
  Sum of atomic charges =     0.000000

                    Cartesian Multipole Moments
 -----------------------------------------------------------------
    Charge (ESU x 10^10)
                 0.0000
    Dipole Moment (Debye)
         X      -0.7818      Y       0.2280      Z       0.8939
       Tot       1.2092
    Quadrupole Moments (Debye-Ang)
        XX    -404.1006     XY     -30.6601     YY    -420.2729
        XZ      -5.3202     YZ       0.6668     ZZ    -446.1740

 Total job time:  93.04s(wall), 1012.20s(cpu)
        *  Thank you very much for using Q-Chem.  Have a nice day.  *
