 Q-Chem 4.4, Q-Chem, Inc., Pleasanton, CA (2016)
 Q-Chem 4.4.2 for Intel X86 Linux

User input:
--------------------------------------------------------------
$comment
SP
$end

$rem
MEM_STATIC 5000
MEM_TOTAL 20000
JOBTYPE SP
EXCHANGE B3LYP
BASIS 6-31g(d,p)
$end

$molecule
0 1
C         -17.876000    -19.315000    -14.228000
C         -17.913000    -18.163000    -13.485000
N         -18.601000    -20.431000    -13.889000
C         -18.724000    -18.013000    -12.329000
C         -19.380000    -20.295000    -12.811000
C         -19.518000    -19.114000    -12.030000
C         -20.416000    -19.046000    -10.725000
C         -20.093000    -18.226000     -9.583000
C         -21.569000    -19.895000    -10.495000
N         -20.820000    -18.241000     -8.425000
N         -22.225000    -20.555000    -11.513000
C         -22.232000    -19.957000     -9.285000
C         -21.794000    -19.118000     -8.182000
S         -23.440000    -21.334000    -10.755000
N         -23.300000    -20.840000     -9.258000
C         -22.500000    -19.033000     -6.921000
S         -23.640000    -20.209000     -6.265000
C         -22.332000    -18.011000     -6.023000
C         -23.992000    -19.176000     -4.826000
S         -21.425000    -16.500000     -6.206000
C         -23.195000    -18.036000     -4.923000
C         -24.940000    -19.467000     -3.739000
C         -22.164000    -15.943000     -4.662000
C         -23.100000    -16.806000     -4.144000
N         -24.902000    -18.673000     -2.676000
S         -25.675000    -20.988000     -3.396000
C         -25.752000    -19.114000     -1.671000
C         -26.191000    -20.413000     -1.846000
C         -17.074000    -19.322000    -15.490000
H         -17.308000    -17.333000    -13.837000
H         -18.827000    -17.090000    -11.767000
H         -19.857000    -21.213000    -12.472000
H         -19.342000    -17.441000     -9.664000
H         -21.892000    -14.937000     -4.373000
H         -23.519000    -16.588000     -3.168000
H         -25.865000    -18.545000     -0.757000
H         -26.661000    -21.111000     -1.164000
H         -17.290000    -18.343000    -15.935000
C         -17.550000    -20.407000    -16.483000
H         -15.999000    -19.339000    -15.269000
H         -18.642000    -20.428000    -16.583000
H         -17.235000    -21.343000    -16.005000
C         -16.897000    -20.430000    -17.935000
H         -17.462000    -19.621000    -18.415000
C         -16.809000    -21.745000    -18.669000
H         -15.897000    -19.985000    -17.866000
H         -17.821000    -22.162000    -18.739000
H         -16.143000    -22.450000    -18.156000
C         -16.485000    -21.570000    -20.180000
H         -17.336000    -21.094000    -20.682000
C         -16.435000    -22.952000    -20.884000
H         -15.541000    -21.047000    -20.374000
H         -16.551000    -22.781000    -21.961000
H         -17.146000    -23.677000    -20.469000
H         -15.444000    -23.396000    -20.729000
C         -15.142000    -15.577000    -15.147000
C         -14.401000    -16.287000    -14.138000
N         -15.982000    -14.598000    -14.825000
C         -14.806000    -16.138000    -12.817000
C         -16.274000    -14.375000    -13.524000
C         -15.734000    -15.175000    -12.469000
C         -16.149000    -14.946000    -11.068000
C         -16.116000    -15.993000    -10.163000
C         -16.481000    -13.717000    -10.491000
N         -16.474000    -15.896000     -8.822000
N         -16.436000    -12.608000    -11.193000
C         -16.693000    -13.580000     -9.126000
C         -16.728000    -14.693000     -8.341000
S         -16.571000    -11.399000    -10.098000
N         -16.772000    -12.244000     -8.715000
C         -16.905000    -14.628000     -6.894000
S         -16.226000    -15.805000     -5.711000
C         -18.005000    -14.020000     -6.302000
C         -17.308000    -15.177000     -4.405000
S         -19.173000    -12.863000     -6.902000
C         -18.172000    -14.269000     -4.977000
C         -17.133000    -15.392000     -3.042000
C         -19.807000    -12.608000     -5.314000
C         -19.166000    -13.435000     -4.354000
N         -15.899000    -15.773000     -2.754000
S         -18.072000    -15.002000     -1.656000
C         -15.660000    -15.865000     -1.405000
C         -16.701000    -15.341000     -0.602000
C         -14.936000    -15.790000    -16.653000
H         -13.550000    -16.916000    -14.378000
H         -14.346000    -16.760000    -12.055000
H         -17.075000    -13.684000    -13.264000
H         -15.974000    -17.006000    -10.536000
H         -20.493000    -11.779000     -5.200000
H         -19.451000    -13.355000     -3.312000
H         -14.716000    -16.179000     -0.979000
H         -16.696000    -15.402000      0.479000
H         -15.847000    -16.223000    -17.085000
C         -13.739000    -16.651000    -17.119000
H         -14.867000    -14.791000    -17.101000
H         -14.147000    -17.283000    -17.917000
H         -13.453000    -17.346000    -16.321000
C         -12.499000    -15.836000    -17.593000
H         -12.769000    -15.224000    -18.463000
C         -11.290000    -16.778000    -17.841000
H         -12.201000    -15.150000    -16.790000
H         -11.479000    -17.350000    -18.758000
H         -11.231000    -17.502000    -17.019000
C         -10.005000    -16.007000    -18.006000
H         -10.029000    -15.050000    -18.544000
C          -8.989000    -16.879000    -18.838000
H          -9.589000    -15.759000    -17.022000
H          -9.194000    -16.947000    -19.914000
H          -8.948000    -17.924000    -18.505000
H          -7.935000    -16.583000    -18.771000
$end

--------------------------------------------------------------

             Standard Nuclear Orientation (Angstroms)
    I     Atom           X                Y                Z
 ----------------------------------------------------------------
    1      C       4.4521261846    -2.6043635884     0.2575833132
    2      C       3.7617271518    -1.5526706336    -0.2881392395
    3      N       3.8250300605    -3.7411928003     0.7052123940
    4      C       2.3531583924    -1.5612436436    -0.4681879926
    5      C       2.5003941597    -3.7658509607     0.5259006385
    6      C       1.7265212352    -2.7424342751    -0.0885137041
    7      C       0.1473105409    -2.8145364579    -0.2107751379
    8      C      -0.7053326605    -1.6522526123    -0.1561049154
    9      C      -0.6018557874    -4.0555120765    -0.2536625108
   10      N      -2.0705483617    -1.7279782281    -0.1691325923
   11      N      -0.0247533502    -5.2649837561    -0.5798388945
   12      C      -1.9797148599    -4.1090938667    -0.1752637356
   13      C      -2.7421926723    -2.8756813754    -0.0767994679
   14      S      -1.2653380987    -6.3206024963    -0.5146579372
   15      N      -2.5096486732    -5.3891260945    -0.2168527878
   16      C      -4.1889019311    -2.8327479762    -0.1079610418
   17      S      -5.2948957383    -4.1624337195     0.2407874674
   18      C      -4.9102022301    -1.6990804356    -0.3793201876
   19      C      -6.7432788531    -3.1612031608    -0.1610056650
   20      S      -4.3379889672    -0.1151460428    -0.9297589408
   21      C      -6.2917544840    -1.8839774555    -0.4912150562
   22      C      -8.1494386656    -3.5941632895    -0.1463732161
   23      C      -6.0577248497     0.3407968169    -1.2034934898
   24      C      -6.9501761622    -0.6836802297    -0.9957281514
   25      N      -9.0732117311    -2.6503839144    -0.2796879364
   26      S      -8.7758555792    -5.0280328907     0.5767691055
   27      C     -10.3563864614    -3.1586013308    -0.1307461050
   28      C     -10.3913312800    -4.4210646464     0.4311366553
   29      C       5.9452594057    -2.5327603895     0.2939586619
   30      H       4.3474181621    -0.6996934288    -0.6171148138
   31      H       1.7928240507    -0.7742637781    -0.9632335630
   32      H       1.9910579339    -4.6084746937     0.9903743769
   33      H      -0.2824284257    -0.6540301544    -0.2633006840
   34      H      -6.1976623136     1.3272117564    -1.6241406976
   35      H      -8.0105337440    -0.4628539451    -1.0461121852
   36      H     -11.2199045557    -2.5180502833    -0.2570665563
   37      H     -11.2005233513    -4.9884908182     0.8743789493
   38      H       6.2039586117    -2.1036535768    -0.6817790406
   39      C       6.5988447903    -3.9308986997     0.3827584958
   40      H       6.2831034953    -1.8167874836     1.0542212278
   41      H       6.1482208183    -4.6450937348    -0.3170761188
   42      H       6.3592570560    -4.2577748100     1.4023440617
   43      C       8.1841946774    -4.0238984404     0.2676117048
   44      H       8.3051838797    -3.9418689410    -0.8199262367
   45      C       8.8955519696    -5.1591480945     0.9610841453
   46      H       8.6069394474    -3.0700230922     0.6055387377
   47      H       8.4671358938    -6.1004681723     0.5959688525
   48      H       8.7932911949    -5.0937091100     2.0515017137
   49      C      10.3656678762    -5.3293226499     0.4830445635
   50      H      10.3723388108    -5.6692966110    -0.5596223078
   51      C      11.0337073690    -6.5262956125     1.2103814611
   52      H      10.9878475309    -4.4393456255     0.6351444430
   53      H      11.9095743294    -6.8259085181     0.6224059731
   54      H      10.3386266057    -7.3475827355     1.4242066091
   55      H      11.3971524315    -6.1912857996     2.1896251038
   56      C       6.5148638405     1.4606979570    -0.9721926808
   57      C       6.0182102742     1.7305060649     0.3513634457
   58      N       5.7988877682     1.7598807091    -2.0518189795
   59      C       4.6661900962     2.0229140129     0.4848026843
   60      C       4.5182857962     2.1680984816    -1.9068678173
   61      C       3.8845940457     2.2653567563    -0.6287439604
   62      C       2.4562610309     2.6355536822    -0.5273238699
   63      C       1.7087686210     2.1961505788     0.5517975366
   64      C       1.7631735028     3.5085120709    -1.3706312457
   65      N       0.3636767022     2.4862556837     0.7577605378
   66      N       2.3711235024     4.1066389412    -2.3693058899
   67      C       0.4682485562     3.9244190817    -1.0929106291
   68      C      -0.2068843668     3.3566521924    -0.0546162125
   69      S       1.3249578459     5.2547816944    -2.8852871274
   70      N       0.0418266098     4.9746799176    -1.9146006561
   71      C      -1.5542780086     3.7687785632     0.3249166961
   72      S      -2.2223642559     3.7206738614     1.9974015850
   73      C      -2.6249137109     3.7298982420    -0.5595919322
   74      C      -3.9056745646     3.9407160904     1.3738698519
   75      S      -2.7044745559     3.6558483530    -2.3063202127
   76      C      -3.8542096648     3.8816463585    -0.0016322858
   77      C      -5.0002682294     4.3381141317     2.1345001863
   78      C      -4.4039710324     3.9723297833    -2.2897000198
   79      C      -4.9046505146     4.0806662019    -0.9653159076
   80      N      -4.6341925161     4.9103593166     3.2700110935
   81      S      -6.6773662079     4.4998381346     1.7939055336
   82      C      -5.6878313487     5.4309878953     3.9800653826
   83      C      -6.9110552349     5.4365008019     3.2681953579
   84      C       7.9311906525     0.9401756873    -1.2531124708
   85      H       6.6604240089     1.7174115942     1.2259102162
   86      H       4.2439601547     2.1039776093     1.4819378656
   87      H       3.8819209633     2.2629827016    -2.7859120620
   88      H       2.1259317785     1.4298354853     1.2031024402
   89      H      -4.8597629371     4.1892192745    -3.2468027772
   90      H      -5.9532956928     4.3052635436    -0.8127107822
   91      H      -5.5862000108     5.9197539085     4.9402668487
   92      H      -7.8475648655     5.7490653765     3.7126726898
   93      H       7.8677984249    -0.0694485440    -1.6781705103
   94      C       8.9456941513     0.8968885468    -0.0868385431
   95      H       8.3324846184     1.5566400572    -2.0669925809
   96      H       9.4529965285    -0.0691001027    -0.1973022344
   97      H       8.4080476995     0.8308744192     0.8661585335
   98      C       9.9507436375     2.0866192869    -0.0565516433
   99      H      10.5607676808     2.0789571673    -0.9687774698
  100      C      10.7833432149     2.0635000894     1.2537126225
  101      H       9.3836778276     3.0260874442    -0.0498472679
  102      H      11.5007276866     1.2355229953     1.1936505602
  103      H      10.1136159217     1.8458934399     2.0948152909
  104      C      11.5427602183     3.3499951129     1.4564621467
  105      H      11.9774600255     3.8499702534     0.5807167862
  106      C      12.7866993477     3.0686274856     2.3829132790
  107      H      10.8862169804     4.1046018843     1.9062794399
  108      H      13.6232036580     2.5425723481     1.9054705796
  109      H      12.5406763007     2.4484819060     3.2543988614
  110      H      13.2411352323     3.9472816346     2.8567021699
 ----------------------------------------------------------------

    9   -5663.5088967261      8.43E-06 Convergence criterion met
 Total energy in the final basis set = -5663.5088967261

                    Orbital Energies (a.u.)
 --------------------------------------------------------------

 Alpha MOs
 -- Occupied --
-88.993 -88.984 -88.931 -88.923 -88.921 -88.921 -88.909 -88.898
-14.396 -14.384 -14.383 -14.377 -14.351 -14.344 -14.340 -14.336
-14.333 -14.330 -10.269 -10.262 -10.259 -10.256 -10.256 -10.255
-10.253 -10.251 -10.244 -10.241 -10.240 -10.239 -10.237 -10.236
-10.235 -10.234 -10.233 -10.232 -10.232 -10.232 -10.231 -10.231
-10.227 -10.225 -10.223 -10.223 -10.222 -10.219 -10.218 -10.215
-10.214 -10.211 -10.210 -10.208 -10.207 -10.206 -10.193 -10.191
-10.189 -10.186 -10.186 -10.185 -10.184 -10.181 -10.178 -10.177
-10.174 -10.173 -10.173 -10.169  -8.049  -8.040  -7.992  -7.986
 -7.979  -7.979  -7.971  -7.957  -6.014  -6.008  -6.007  -6.005
 -5.999  -5.998  -5.956  -5.952  -5.949  -5.949  -5.946  -5.944
 -5.943  -5.943  -5.940  -5.940  -5.936  -5.935  -5.935  -5.931
 -5.927  -5.921  -5.918  -5.913  -1.045  -1.036  -0.969  -0.966
 -0.963  -0.949  -0.945  -0.935  -0.916  -0.910  -0.902  -0.894
 -0.846  -0.839  -0.830  -0.820  -0.815  -0.809  -0.804  -0.803
 -0.802  -0.801  -0.800  -0.793  -0.786  -0.785  -0.774  -0.762
 -0.751  -0.743  -0.743  -0.732  -0.724  -0.717  -0.712  -0.706
 -0.696  -0.689  -0.678  -0.664  -0.662  -0.654  -0.650  -0.643
 -0.636  -0.632  -0.630  -0.623  -0.613  -0.603  -0.602  -0.598
 -0.591  -0.587  -0.585  -0.581  -0.578  -0.575  -0.572  -0.566
 -0.551  -0.544  -0.541  -0.533  -0.528  -0.518  -0.516  -0.512
 -0.505  -0.502  -0.501  -0.494  -0.489  -0.480  -0.480  -0.475
 -0.472  -0.472  -0.469  -0.466  -0.465  -0.458  -0.453  -0.452
 -0.445  -0.444  -0.443  -0.441  -0.441  -0.432  -0.431  -0.428
 -0.427  -0.425  -0.424  -0.422  -0.420  -0.418  -0.415  -0.413
 -0.413  -0.410  -0.408  -0.407  -0.405  -0.403  -0.397  -0.394
 -0.394  -0.391  -0.386  -0.385  -0.385  -0.383  -0.381  -0.376
 -0.375  -0.372  -0.369  -0.367  -0.367  -0.365  -0.363  -0.358
 -0.357  -0.352  -0.349  -0.344  -0.343  -0.341  -0.339  -0.339
 -0.338  -0.336  -0.335  -0.332  -0.330  -0.324  -0.324  -0.322
 -0.319  -0.312  -0.311  -0.309  -0.306  -0.301  -0.300  -0.297
 -0.295  -0.294  -0.291  -0.289  -0.288  -0.285  -0.282  -0.275
 -0.272  -0.271  -0.267  -0.261  -0.253  -0.253  -0.252  -0.248
 -0.245  -0.241  -0.234  -0.228  -0.194  -0.191

          Ground-State Mulliken Net Atomic Charges

     Atom                 Charge (a.u.)
  ----------------------------------------
      1 C                     0.283744
      2 C                    -0.132294
      3 N                    -0.486928
      4 C                    -0.085204
      5 C                     0.096236
      6 C                     0.052302
      7 C                     0.015007
      8 C                     0.057941
      9 C                     0.190531
     10 N                    -0.536377
     11 N                    -0.531716
     12 C                     0.163021
     13 C                     0.334696
     14 S                     0.613114
     15 N                    -0.530821
     16 C                    -0.220151
     17 S                     0.312276
     18 C                    -0.112636
     19 C                    -0.247768
     20 S                     0.284469
     21 C                     0.154821
     22 C                     0.057069
     23 C                    -0.309910
     24 C                    -0.050383
     25 N                    -0.429923
     26 S                     0.275265
     27 C                     0.120530
     28 C                    -0.314173
     29 C                    -0.255012
     30 H                     0.096322
     31 H                     0.107860
     32 H                     0.109096
     33 H                     0.117058
     34 H                     0.123964
     35 H                     0.125101
     36 H                     0.115145
     37 H                     0.143020
     38 H                     0.112517
     39 C                    -0.175869
     40 H                     0.115992
     41 H                     0.105736
     42 H                     0.108971
     43 C                    -0.189821
     44 H                     0.088691
     45 C                    -0.165852
     46 H                     0.081113
     47 H                     0.097139
     48 H                     0.095262
     49 C                    -0.178022
     50 H                     0.098976
     51 C                    -0.322639
     52 H                     0.092102
     53 H                     0.098265
     54 H                     0.103357
     55 H                     0.099768
     56 C                     0.262838
     57 C                    -0.116721
     58 N                    -0.484378
     59 C                    -0.092971
     60 C                     0.089674
     61 C                     0.048994
     62 C                     0.076663
     63 C                     0.007266
     64 C                     0.228697
     65 N                    -0.516493
     66 N                    -0.558398
     67 C                     0.224512
     68 C                     0.253257
     69 S                     0.612684
     70 N                    -0.529427
     71 C                    -0.223276
     72 S                     0.355272
     73 C                    -0.121227
     74 C                    -0.209511
     75 S                     0.273784
     76 C                     0.159352
     77 C                     0.054120
     78 C                    -0.311157
     79 C                    -0.094127
     80 N                    -0.423145
     81 S                     0.275413
     82 C                     0.114918
     83 C                    -0.315169
     84 C                    -0.237792
     85 H                     0.099265
     86 H                     0.102383
     87 H                     0.120040
     88 H                     0.117122
     89 H                     0.142025
     90 H                     0.116908
     91 H                     0.119015
     92 H                     0.136834
     93 H                     0.121497
     94 C                    -0.192603
     95 H                     0.125578
     96 H                     0.099684
     97 H                     0.087770
     98 C                    -0.179698
     99 H                     0.100014
    100 C                    -0.166699
    101 H                     0.096322
    102 H                     0.098278
    103 H                     0.093735
    104 C                    -0.173786
    105 H                     0.100759
    106 C                    -0.336422
    107 H                     0.097369
    108 H                     0.105018
    109 H                     0.099487
    110 H                     0.095475
  ----------------------------------------
  Sum of atomic charges =     0.000000

                    Cartesian Multipole Moments
 -----------------------------------------------------------------
    Charge (ESU x 10^10)
                 0.0000
    Dipole Moment (Debye)
         X      -2.3534      Y       2.4018      Z       0.1267
       Tot       3.3650
    Quadrupole Moments (Debye-Ang)
        XX    -373.1775     XY       2.0875     YY    -434.6800
        XZ      -0.6375     YZ      -3.2490     ZZ    -442.3315

 Total job time:  91.32s(wall), 1007.85s(cpu)
        *  Thank you very much for using Q-Chem.  Have a nice day.  *
