 Q-Chem 4.4, Q-Chem, Inc., Pleasanton, CA (2016)
 Q-Chem 4.4.2 for Intel X86 Linux

User input:
--------------------------------------------------------------
$comment
SP
$end

$rem
MEM_STATIC 5000
MEM_TOTAL 20000
JOBTYPE SP
EXCHANGE B3LYP
BASIS 6-31g(d,p)
$end

$molecule
0 1
C         -14.422000     -6.323000     -9.688000
C         -13.412000     -6.803000     -8.898000
N         -14.968000     -7.154000    -10.632000
C         -13.014000     -8.168000     -9.015000
C         -14.680000     -8.449000    -10.680000
C         -13.644000     -9.030000     -9.950000
C         -13.358000    -10.460000    -10.003000
C         -13.216000    -11.162000    -11.201000
C         -13.203000    -11.253000     -8.841000
N         -12.935000    -12.439000    -11.338000
N         -13.317000    -10.754000     -7.585000
C         -12.911000    -12.596000     -8.946000
C         -12.809000    -13.241000    -10.280000
S         -12.936000    -12.059000     -6.595000
N         -12.632000    -13.167000     -7.726000
C         -12.445000    -14.633000    -10.433000
S         -12.739000    -15.889000     -9.144000
C         -11.988000    -15.240000    -11.600000
C         -11.845000    -17.020000    -10.201000
S         -11.341000    -14.452000    -13.027000
C         -11.705000    -16.572000    -11.474000
C         -11.415000    -18.243000     -9.801000
C         -10.850000    -16.103000    -13.621000
C         -11.062000    -17.094000    -12.698000
N         -11.147000    -19.253000    -10.642000
S         -11.316000    -18.659000     -8.069000
C         -10.609000    -20.353000     -9.951000
C         -10.524000    -20.147000     -8.574000
C         -14.858000     -4.829000     -9.735000
H         -12.743000     -6.231000     -8.263000
H         -12.202000     -8.531000     -8.391000
H         -15.243000     -8.960000    -11.459000
H         -13.323000    -10.612000    -12.135000
H         -10.229000    -16.235000    -14.497000
H         -10.801000    -18.127000    -12.896000
H         -10.326000    -21.201000    -10.561000
H         -10.145000    -20.808000     -7.806000
H         -13.988000     -4.244000    -10.058000
C         -15.489000     -4.266000     -8.396000
H         -15.626000     -4.678000    -10.503000
H         -15.418000     -5.045000     -7.627000
H         -16.581000     -4.210000     -8.485000
C         -14.780000     -3.080000     -7.821000
H         -13.705000     -3.297000     -7.842000
C         -15.152000     -2.780000     -6.321000
H         -14.950000     -2.194000     -8.446000
H         -15.381000     -3.608000     -5.639000
H         -16.070000     -2.182000     -6.374000
C         -14.043000     -1.983000     -5.624000
H         -13.111000     -2.561000     -5.661000
C         -14.506000     -1.639000     -4.171000
H         -13.843000     -1.070000     -6.199000
H         -14.816000     -2.518000     -3.592000
H         -15.379000     -0.977000     -4.114000
H         -13.687000     -1.160000     -3.621000
C         -19.048000     -8.659000    -10.531000
C         -20.033000     -9.369000     -9.780000
N         -18.443000     -9.205000    -11.633000
C         -20.489000    -10.630000    -10.312000
C         -18.838000    -10.432000    -12.086000
C         -19.764000    -11.262000    -11.374000
C         -19.943000    -12.654000    -11.904000
C         -19.688000    -13.000000    -13.268000
C         -20.584000    -13.695000    -11.218000
N         -19.916000    -14.136000    -13.866000
N         -20.869000    -13.666000     -9.853000
C         -20.903000    -14.922000    -11.793000
C         -20.559000    -15.127000    -13.182000
S         -21.519000    -15.160000     -9.519000
N         -21.474000    -15.819000    -10.977000
C         -20.838000    -16.362000    -13.929000
S         -22.108000    -17.573000    -13.524000
C         -20.246000    -16.669000    -15.192000
C         -21.788000    -18.454000    -15.029000
S         -18.958000    -15.976000    -16.012000
C         -20.786000    -17.858000    -15.780000
C         -22.412000    -19.649000    -15.491000
C         -19.109000    -17.184000    -17.263000
C         -20.091000    -18.164000    -16.972000
N         -21.977000    -20.260000    -16.568000
S         -23.626000    -20.510000    -14.595000
C         -22.464000    -21.529000    -16.660000
C         -23.508000    -21.716000    -15.789000
C         -18.391000     -7.318000    -10.184000
H         -20.480000     -9.065000     -8.839000
H         -21.158000    -11.213000     -9.686000
H         -18.192000    -10.773000    -12.893000
H         -19.493000    -12.256000    -14.039000
H         -18.364000    -17.173000    -18.047000
H         -20.150000    -19.079000    -17.551000
H         -22.005000    -22.188000    -17.385000
H         -24.180000    -22.561000    -15.708000
H         -17.669000     -7.405000     -9.362000
C         -19.397000     -6.272000     -9.641000
H         -17.826000     -6.847000    -10.998000
H         -18.876000     -5.326000     -9.449000
H         -19.778000     -6.515000     -8.641000
C         -20.580000     -6.038000    -10.521000
H         -20.276000     -5.576000    -11.469000
C         -21.608000     -5.086000     -9.826000
H         -20.991000     -6.981000    -10.904000
H         -21.212000     -4.063000     -9.819000
H         -21.779000     -5.414000     -8.793000
C         -22.974000     -5.088000    -10.539000
H         -22.735000     -4.927000    -11.597000
C         -24.032000     -4.082000     -9.994000
H         -23.423000     -6.069000    -10.341000
H         -23.501000     -3.151000     -9.760000
H         -24.470000     -4.388000     -9.036000
H         -24.901000     -3.987000    -10.656000
$end

--------------------------------------------------------------

             Standard Nuclear Orientation (Angstroms)
    I     Atom           X                Y                Z
 ----------------------------------------------------------------
    1      C       6.9269045704     0.1665969776     1.5795654800
    2      C       7.0809872848     1.4239004522     1.0599055047
    3      N       5.6781536545    -0.2265256660     1.9868598908
    4      C       5.9364605236     2.2555328618     0.8761555981
    5      C       4.5942253405     0.4943884492     1.7267536650
    6      C       4.6422669755     1.7992856837     1.2381922986
    7      C       3.4370504033     2.5662814488     0.9404079629
    8      C       2.3787529965     2.6975111987     1.8409396676
    9      C       3.2425656444     3.2391815716    -0.2894290601
   10      N       1.2733804192     3.3868056784     1.6635035223
   11      N       4.1526223357     3.2191893909    -1.2948792734
   12      C       2.0947254620     3.9691308388    -0.5120834624
   13      C       1.0220204422     4.0147452931     0.5141758918
   14      S       3.4976463225     4.2466994927    -2.4539803962
   15      N       2.1507919724     4.6863205306    -1.6845925210
   16      C      -0.1694140046     4.8177212561     0.3430544093
   17      S      -0.8369327168     5.2776137786    -1.2904726449
   18      C      -1.0501937586     5.2070055187     1.3489727896
   19      C      -2.0217335600     6.2767884430    -0.3996623665
   20      S      -0.7580131843     5.2082247215     3.0782821967
   21      C      -2.0986281160     5.9734301082     0.9205247217
   22      C      -2.8270007422     7.1948327088    -0.9907363815
   23      C      -2.3201821695     6.1275620298     3.2631198963
   24      C      -2.8791670794     6.4887541546     2.0647751548
   25      N      -3.9813833770     7.6272932175    -0.4619796879
   26      S      -2.4771334966     7.8002027206    -2.6320166925
   27      C      -4.5344911119     8.6600537014    -1.2394130398
   28      C      -3.7824675597     8.9524395250    -2.3772887391
   29      C       8.1097311785    -0.7808368095     1.9368208987
   30      H       8.0105725802     1.9575441863     0.8894193071
   31      H       6.0760509781     3.2557082933     0.4753406641
   32      H       3.6883749043     0.0045414763     2.0794800891
   33      H       2.4627319445     2.2043011017     2.8084087041
   34      H      -2.6245976876     6.5547696228     4.2093047962
   35      H      -3.7993494298     7.0585759701     2.0101716696
   36      H      -5.4503973216     9.0960264958    -0.8621378914
   37      H      -3.9598197584     9.6978843473    -3.1409930107
   38      H       8.7210259751    -0.2711245197     2.6917818601
   39      C       8.9752811218    -1.2759209180     0.7064689079
   40      H       7.7376238484    -1.6945145650     2.4155463878
   41      H       8.6147406319    -0.7670987371    -0.1959464861
   42      H       8.7062756022    -2.3063411065     0.4430466888
   43      C      10.4315329054    -0.9412274528     0.7913984514
   44      H      10.5106449785     0.1089773806     1.0979373358
   45      C      11.1969245057    -1.0719185186    -0.5780830357
   46      H      10.9179636402    -1.5484070371     1.5655038012
   47      H      10.6809062766    -0.8360025024    -1.5168150638
   48      H      11.4641989696    -2.1333180368    -0.6497239721
   49      C      12.4631328288    -0.2073488491    -0.5896920402
   50      H      12.1812138619     0.8405602507    -0.4269492535
   51      C      13.2249393237    -0.4465040949    -1.9337045523
   52      H      13.0890683498    -0.4778853623     0.2700804405
   53      H      12.6020242996    -0.2873175705    -2.8228718724
   54      H      13.6040147493    -1.4670968146    -2.0690349710
   55      H      14.0776728903     0.2391431225    -2.0074294310
   56      C       3.3376083735    -3.3636046942     0.0889112722
   57      C       2.7571185807    -3.8422853756    -1.1244404516
   58      N       2.5747317066    -2.8483911114     1.1043516472
   59      C       1.3175379502    -3.9110440224    -1.1873757907
   60      C       1.2123465330    -2.8574662121     1.0014571320
   61      C       0.5260141444    -3.2472833502    -0.1944987415
   62      C      -0.9562899037    -3.0166455691    -0.2081340956
   63      C      -1.7382558117    -2.9468608707     0.9872304574
   64      C      -1.7648192386    -3.0766910998    -1.3517392936
   65      N      -3.0351117319    -2.8678484209     1.0968012344
   66      N      -1.2691318621    -3.0585589120    -2.6552945277
   67      C      -3.1561414434    -3.0424550380    -1.3206681735
   68      C      -3.8009643369    -2.9482603882    -0.0303144220
   69      S      -2.6188367438    -3.0366302734    -3.6268437375
   70      N      -3.7680380693    -3.0637940675    -2.5129907662
   71      C      -5.2575116635    -2.9110221339     0.1650268119
   72      S      -6.4904968468    -3.5396287608    -0.9873825106
   73      C      -5.8776365609    -2.5281671806     1.3933383344
   74      C      -7.7825320684    -3.2465322898     0.1908897181
   75      S      -5.2611305370    -1.7827697352     2.7629718515
   76      C      -7.2979407476    -2.7110824825     1.3748178221
   77      C      -9.1796559985    -3.4770038749     0.0303513349
   78      C      -6.8616275474    -1.7452278413     3.4587203159
   79      C      -7.8622156814    -2.2201328426     2.5740205782
   80      N     -10.0337857462    -3.0872935169     0.9474463196
   81      S      -9.8945219839    -4.0783034996    -1.4343460346
   82      C     -11.3130840023    -3.0886576970     0.4790574736
   83      C     -11.4008775613    -3.7852732299    -0.7001647659
   84      C       4.8259045862    -3.1803244890     0.4078497455
   85      H       3.2838323601    -4.1602072564    -2.0184227066
   86      H       0.8808101419    -4.1752094139    -2.1459223296
   87      H       0.7580180833    -2.3172531248     1.8300713245
   88      H      -1.3404174893    -3.2019241058     1.9683876392
   89      H      -6.9714490067    -1.2379275031     4.4076078824
   90      H      -8.9132883377    -2.0638258084     2.7902643810
   91      H     -12.0629506755    -2.5856446025     1.0750984111
   92      H     -12.2860932537    -4.0719066361    -1.2537029023
   93      H       5.2639283509    -2.3202448753    -0.1145822975
   94      C       5.7020734706    -4.3585755446    -0.0871790778
   95      H       5.0622347745    -3.0095468923     1.4655099246
   96      H       6.7458426387    -4.1881728670     0.2039048471
   97      H       5.7881232104    -4.4058188603    -1.1801445445
   98      C       5.2508806684    -5.7026884732     0.3801864005
   99      H       5.3582962741    -5.7938097778     1.4686361217
  100      C       6.0992227700    -6.8348266392    -0.2866657960
  101      H       4.1621213592    -5.8145279166     0.2967951206
  102      H       7.1046400326    -6.8447751572     0.1520039603
  103      H       6.1780238938    -6.6536523366    -1.3659619810
  104      C       5.4595484489    -8.2243449441    -0.1012348293
  105      H       5.2414626330    -8.2884955956     0.9714856705
  106      C       6.2878539473    -9.4348796303    -0.6274864563
  107      H       4.5590551396    -8.2345810969    -0.7274720216
  108      H       7.3377533148    -9.2411168711    -0.3752062328
  109      H       6.2869742467    -9.5198699306    -1.7211133922
  110      H       5.8825620206   -10.3976283262    -0.2938947859
 ----------------------------------------------------------------

   10   -5663.5091718319      4.04E-06 Convergence criterion met
 Total energy in the final basis set = -5663.5091718319

                    Orbital Energies (a.u.)
 --------------------------------------------------------------

 Alpha MOs
 -- Occupied --
-88.986 -88.984 -88.930 -88.927 -88.925 -88.922 -88.910 -88.909
-14.385 -14.383 -14.377 -14.376 -14.343 -14.343 -14.342 -14.337
-14.323 -14.319 -10.264 -10.264 -10.262 -10.261 -10.255 -10.252
-10.250 -10.247 -10.245 -10.243 -10.241 -10.236 -10.235 -10.234
-10.233 -10.231 -10.231 -10.230 -10.229 -10.228 -10.228 -10.228
-10.227 -10.223 -10.221 -10.221 -10.218 -10.216 -10.214 -10.210
-10.209 -10.208 -10.206 -10.206 -10.203 -10.203 -10.196 -10.194
-10.186 -10.181 -10.180 -10.178 -10.177 -10.174 -10.172 -10.172
-10.172 -10.169 -10.168 -10.165  -8.041  -8.039  -7.988  -7.987
 -7.986  -7.983  -7.971  -7.969  -6.006  -6.004  -6.001  -5.999
 -5.999  -5.997  -5.952  -5.951  -5.950  -5.949  -5.948  -5.947
 -5.947  -5.944  -5.944  -5.944  -5.942  -5.940  -5.935  -5.933
 -5.931  -5.930  -5.927  -5.925  -1.032  -1.027  -0.978  -0.961
 -0.959  -0.957  -0.930  -0.918  -0.912  -0.908  -0.893  -0.893
 -0.846  -0.840  -0.827  -0.823  -0.814  -0.807  -0.806  -0.803
 -0.799  -0.798  -0.790  -0.787  -0.781  -0.772  -0.764  -0.761
 -0.749  -0.747  -0.736  -0.736  -0.730  -0.721  -0.708  -0.705
 -0.691  -0.688  -0.673  -0.672  -0.652  -0.647  -0.637  -0.636
 -0.636  -0.630  -0.616  -0.613  -0.612  -0.606  -0.596  -0.594
 -0.593  -0.591  -0.582  -0.581  -0.579  -0.577  -0.566  -0.563
 -0.550  -0.548  -0.537  -0.535  -0.520  -0.519  -0.508  -0.506
 -0.501  -0.499  -0.496  -0.491  -0.484  -0.478  -0.474  -0.473
 -0.468  -0.468  -0.465  -0.461  -0.461  -0.456  -0.447  -0.445
 -0.437  -0.437  -0.436  -0.433  -0.432  -0.431  -0.429  -0.429
 -0.426  -0.426  -0.421  -0.419  -0.416  -0.414  -0.413  -0.409
 -0.407  -0.405  -0.401  -0.400  -0.397  -0.394  -0.393  -0.391
 -0.390  -0.389  -0.388  -0.386  -0.386  -0.385  -0.380  -0.379
 -0.377  -0.376  -0.371  -0.366  -0.364  -0.359  -0.355  -0.355
 -0.353  -0.350  -0.348  -0.348  -0.347  -0.346  -0.343  -0.342
 -0.337  -0.335  -0.331  -0.329  -0.325  -0.324  -0.318  -0.312
 -0.311  -0.309  -0.308  -0.305  -0.303  -0.301  -0.298  -0.296
 -0.295  -0.294  -0.292  -0.286  -0.278  -0.276  -0.275  -0.274
 -0.269  -0.265  -0.265  -0.261  -0.251  -0.250  -0.248  -0.244
 -0.243  -0.240  -0.233  -0.224  -0.191  -0.186

          Ground-State Mulliken Net Atomic Charges

     Atom                 Charge (a.u.)
  ----------------------------------------
      1 C                     0.253077
      2 C                    -0.114830
      3 N                    -0.467105
      4 C                    -0.060921
      5 C                     0.072475
      6 C                     0.029353
      7 C                     0.039033
      8 C                     0.054765
      9 C                     0.246126
     10 N                    -0.519475
     11 N                    -0.575508
     12 C                     0.170868
     13 C                     0.305877
     14 S                     0.593489
     15 N                    -0.542717
     16 C                    -0.190797
     17 S                     0.310826
     18 C                    -0.116744
     19 C                    -0.199213
     20 S                     0.275786
     21 C                     0.161081
     22 C                     0.053880
     23 C                    -0.298345
     24 C                    -0.046956
     25 N                    -0.454469
     26 S                     0.252631
     27 C                     0.123866
     28 C                    -0.306937
     29 C                    -0.236474
     30 H                     0.089895
     31 H                     0.104337
     32 H                     0.117096
     33 H                     0.110775
     34 H                     0.129727
     35 H                     0.133009
     36 H                     0.118975
     37 H                     0.132587
     38 H                     0.110864
     39 C                    -0.191908
     40 H                     0.120392
     41 H                     0.101155
     42 H                     0.103112
     43 C                    -0.181376
     44 H                     0.091138
     45 C                    -0.172820
     46 H                     0.096936
     47 H                     0.091932
     48 H                     0.093543
     49 C                    -0.175604
     50 H                     0.093966
     51 C                    -0.325566
     52 H                     0.095016
     53 H                     0.101357
     54 H                     0.105789
     55 H                     0.098226
     56 C                     0.256955
     57 C                    -0.114753
     58 N                    -0.477371
     59 C                    -0.097176
     60 C                     0.061873
     61 C                     0.049513
     62 C                     0.051024
     63 C                     0.056947
     64 C                     0.200814
     65 N                    -0.513861
     66 N                    -0.565209
     67 C                     0.213484
     68 C                     0.285504
     69 S                     0.602129
     70 N                    -0.558508
     71 C                    -0.214075
     72 S                     0.323507
     73 C                    -0.108874
     74 C                    -0.229535
     75 S                     0.306116
     76 C                     0.153354
     77 C                     0.075968
     78 C                    -0.318137
     79 C                    -0.055421
     80 N                    -0.439356
     81 S                     0.268914
     82 C                     0.126813
     83 C                    -0.316337
     84 C                    -0.217552
     85 H                     0.101798
     86 H                     0.121436
     87 H                     0.107547
     88 H                     0.114995
     89 H                     0.131268
     90 H                     0.128499
     91 H                     0.118614
     92 H                     0.130485
     93 H                     0.115577
     94 C                    -0.200564
     95 H                     0.139663
     96 H                     0.089504
     97 H                     0.082470
     98 C                    -0.172071
     99 H                     0.089978
    100 C                    -0.175933
    101 H                     0.098333
    102 H                     0.089457
    103 H                     0.084499
    104 C                    -0.173023
    105 H                     0.094090
    106 C                    -0.324152
    107 H                     0.094385
    108 H                     0.099049
    109 H                     0.098977
    110 H                     0.103178
  ----------------------------------------
  Sum of atomic charges =     0.000000

                    Cartesian Multipole Moments
 -----------------------------------------------------------------
    Charge (ESU x 10^10)
                 0.0000
    Dipole Moment (Debye)
         X      -2.1515      Y       2.8353      Z      -3.0286
       Tot       4.6734
    Quadrupole Moments (Debye-Ang)
        XX    -379.6296     XY      -2.4441     YY    -423.2522
        XZ      -0.7033     YZ       6.7244     ZZ    -429.2475

 Total job time:  93.05s(wall), 1018.33s(cpu)
        *  Thank you very much for using Q-Chem.  Have a nice day.  *
