 Q-Chem 4.4, Q-Chem, Inc., Pleasanton, CA (2016)
 Q-Chem 4.4.2 for Intel X86 Linux

User input:
--------------------------------------------------------------
$comment
SP
$end

$rem
MEM_STATIC 5000
MEM_TOTAL 20000
JOBTYPE SP
EXCHANGE B3LYP
BASIS 6-31g(d,p)
$end

$molecule
0 1
C          15.497000     16.387000    -14.884000
C          15.357000     17.572000    -14.182000
N          14.467000     15.598000    -15.203000
C          14.045000     18.072000    -13.882000
C          13.231000     16.033000    -14.818000
C          12.979000     17.166000    -14.067000
C          11.583000     17.598000    -13.664000
C          11.399000     18.370000    -12.519000
C          10.367000     17.150000    -14.141000
N          10.268000     18.908000    -12.080000
N          10.282000     16.213000    -15.114000
C           9.119000     17.653000    -13.677000
C           9.127000     18.555000    -12.563000
S           8.705000     16.249000    -15.505000
N           8.068000     17.190000    -14.333000
C           7.865000     19.155000    -12.040000
S           6.254000     18.412000    -12.097000
C           7.781000     20.411000    -11.462000
C           5.566000     19.828000    -11.296000
S           9.057000     21.675000    -11.271000
C           6.515000     20.791000    -11.107000
C           4.155000     20.029000    -11.035000
C           7.753000     22.736000    -10.714000
C           6.482000     22.159000    -10.704000
N           3.545000     19.035000    -10.413000
S           3.049000     21.384000    -11.536000
C           2.258000     19.398000    -10.083000
C           1.771000     20.456000    -10.829000
C          16.915000     15.786000    -15.033000
H          16.232000     18.156000    -13.910000
H          14.001000     19.006000    -13.330000
H          12.433000     15.322000    -15.028000
H          12.316000     18.670000    -12.014000
H           8.166000     23.679000    -10.381000
H           5.559000     22.653000    -10.424000
H           1.690000     18.791000     -9.391000
H           0.741000     20.789000    -10.835000
H          16.976000     15.349000    -16.037000
C          17.205000     14.716000    -13.933000
H          17.701000     16.514000    -14.795000
H          18.125000     14.129000    -14.040000
H          16.358000     14.020000    -13.880000
C          17.266000     15.286000    -12.468000
H          17.920000     16.164000    -12.394000
C          17.942000     14.258000    -11.460000
H          16.292000     15.661000    -12.131000
H          18.811000     13.750000    -11.895000
H          17.172000     13.513000    -11.225000
C          18.452000     14.761000    -10.098000
H          18.689000     13.927000     -9.426000
C          17.455000     15.512000     -9.235000
H          19.355000     15.360000    -10.273000
H          17.333000     16.602000     -9.272000
H          17.607000     15.276000     -8.175000
H          16.439000     15.115000     -9.351000
C           1.271000     13.768000    -15.587000
C           2.139000     14.897000    -15.840000
N           1.654000     12.738000    -14.726000
C           3.317000     15.063000    -15.097000
C           2.820000     12.922000    -14.098000
C           3.694000     14.044000    -14.213000
C           4.903000     14.115000    -13.427000
C           6.037000     13.687000    -14.042000
C           5.152000     14.582000    -12.089000
N           7.288000     13.841000    -13.570000
N           4.127000     14.922000    -11.266000
C           6.417000     14.707000    -11.547000
C           7.530000     14.362000    -12.337000
S           4.875000     15.348000     -9.861000
N           6.412000     15.234000    -10.293000
C           8.901000     14.617000    -11.936000
S           9.411000     15.749000    -10.618000
C          10.098000     14.095000    -12.434000
C          11.093000     15.528000    -10.806000
S          10.260000     12.954000    -13.696000
C          11.230000     14.632000    -11.865000
C          12.135000     16.251000    -10.132000
C          12.013000     12.957000    -13.334000
C          12.362000     13.889000    -12.427000
N          13.373000     16.171000    -10.546000
S          11.812000     17.313000     -8.783000
C          14.141000     17.118000     -9.828000
C          13.419000     17.865000     -8.911000
C          -0.028000     13.589000    -16.366000
H           1.837000     15.605000    -16.605000
H           3.946000     15.919000    -15.324000
H           3.114000     12.059000    -13.502000
H           5.959000     13.334000    -15.069000
H          12.665000     12.388000    -13.985000
H          13.383000     14.110000    -12.137000
H          15.180000     17.262000    -10.096000
H          13.747000     18.724000     -8.341000
H           0.283000     14.014000    -17.329000
C          -1.261000     14.285000    -15.805000
H          -0.221000     12.517000    -16.491000
H          -1.088000     14.439000    -14.732000
H          -2.172000     13.675000    -15.823000
C          -1.622000     15.578000    -16.488000
H          -0.846000     16.242000    -16.089000
C          -3.055000     16.051000    -16.056000
H          -1.608000     15.437000    -17.576000
H          -3.254000     16.014000    -14.978000
H          -3.754000     15.264000    -16.365000
C          -3.668000     17.310000    -16.722000
H          -4.718000     17.408000    -16.418000
C          -3.539000     17.321000    -18.201000
H          -3.180000     18.257000    -16.462000
H          -2.574000     16.998000    -18.611000
H          -3.675000     18.327000    -18.617000
H          -4.296000     16.715000    -18.714000
$end

--------------------------------------------------------------

             Standard Nuclear Orientation (Angstroms)
    I     Atom           X                Y                Z
 ----------------------------------------------------------------
    1      C       6.8908810734    -1.7710638041    -2.9082019574
    2      C       6.8330690857    -0.3879049020    -2.9207807257
    3      N       5.8480865580    -2.5454132605    -2.5949217025
    4      C       5.5751430263     0.2747576789    -2.7211702726
    5      C       4.6815321958    -1.8983264524    -2.3023886567
    6      C       4.5233882899    -0.5269211403    -2.2286867244
    7      C       3.2023730420     0.1368553127    -1.8937710105
    8      C       3.1896870300     1.4027630644    -1.3122371514
    9      C       1.9384813064    -0.4185089155    -1.8615645699
   10      N       2.1323350599     2.1592019904    -1.0455295167
   11      N       1.7206938567    -1.7183987736    -2.1694249010
   12      C       0.7712550346     0.3284110897    -1.5367533382
   13      C       0.9382015761     1.6768978729    -1.0802708656
   14      S       0.0999472405    -1.7949591420    -2.2612122429
   15      N      -0.3599105427    -0.3433367443    -1.6728609587
   16      C      -0.2359989757     2.5379972054    -0.7547958226
   17      S      -1.8082590303     1.9753315397    -0.1531109637
   18      C      -0.2619547916     3.9133499239    -0.9172987311
   19      C      -2.3966610931     3.6403846088    -0.1159318093
   20      S       0.9859760229     5.0097582809    -1.6264604876
   21      C      -1.4613404878     4.4998329737    -0.6161466367
   22      C      -3.7489371703     4.0344422730     0.2239372366
   23      C      -0.2389030806     6.2833210545    -1.5077379394
   24      C      -1.4703361588     5.8759288414    -0.9919141724
   25      N      -4.2120635187     3.5512850197     1.3637148702
   26      S      -4.9674431925     4.9934039955    -0.7278492355
   27      C      -5.4358105468     4.1115444225     1.6562736043
   28      C      -6.0763422067     4.6518628440     0.5558990335
   29      C       8.2820759534    -2.4473031324    -2.9456609585
   30      H       7.7219267186     0.1970626000    -3.1408037471
   31      H       5.5947083424     1.3601805352    -2.7428594688
   32      H       3.8831643370    -2.5636790187    -1.9762909341
   33      H       4.1686280515     1.8652525162    -1.1952244027
   34      H       0.1934641964     7.2339252039    -1.7907879156
   35      H      -2.3482732532     6.4991161038    -0.8685079560
   36      H      -5.8583623076     3.9915391385     2.6446994949
   37      H      -7.1028209909     4.9953338980     0.5419727732
   38      H       8.1865212190    -3.3470638505    -3.5653430890
   39      C       8.7888598862    -2.8008491104    -1.5113753220
   40      H       9.0728067861    -1.7521304474    -3.2553441646
   41      H       9.6961591765    -3.4126151113    -1.4408887427
   42      H       7.9862460133    -3.3130877108    -0.9654297320
   43      C       9.0782639566    -1.5547249327    -0.5958067458
   44      H       9.7063140813    -0.8094857298    -1.1000364271
   45      C       9.9483281119    -1.9443321356     0.6773855387
   46      H       8.1636248518    -0.9998556749    -0.3540932487
   47      H      10.7472983084    -2.6570486034     0.4404639030
   48      H       9.2539647108    -2.4079441896     1.3887738509
   49      C      10.6647689675    -0.8366036367     1.4697257896
   50      H      11.0392001632    -1.2096543591     2.4309455554
   51      C       9.8042110790     0.3141865881     1.9574767290
   52      H      11.5050662502    -0.4740269790     0.8636947310
   53      H       9.6421635567     1.2295190819     1.3741586114
   54      H      10.1410430531     0.6576379920     2.9428626201
   55      H       8.7967560702    -0.0215818066     2.2324585290
   56      C      -7.1556076965    -3.4908411605     0.1692913542
   57      C      -6.3803031563    -2.7160279168    -0.7744465900
   58      N      -6.5989714080    -3.9408917471     1.3678406906
   59      C      -5.0996110145    -2.2592868093    -0.4302022019
   60      C      -5.3501505786    -3.5281558352     1.6084474301
   61      C      -4.5453517384    -2.6876009634     0.7827650854
   62      C      -3.2237424097    -2.2911183331     1.2078160311
   63      C      -2.1968157713    -3.0460850111     0.7357863769
   64      C      -2.7672807764    -1.2104900985     2.0410143244
   65      N      -0.8896887769    -2.7455600043     0.8480572137
   66      N      -3.6487614230    -0.4284610250     2.7155337072
   67      C      -1.4335689141    -0.8989388887     2.2247601053
   68      C      -0.4596570327    -1.6734009591     1.5662784058
   69      S      -2.6880896610     0.6215870709     3.5459033610
   70      N      -1.2434822278     0.2044832029     2.9971568553
   71      C       0.9503579308    -1.3314238289     1.5468762108
   72      S       1.6388019797     0.2883525355     1.9723375142
   73      C       2.0622140489    -2.1091232434     1.2118290598
   74      C       3.2710300536    -0.1012651120     1.6603461623
   75      S       2.0454836725    -3.7486462703     0.7296949099
   76      C       3.2560255622    -1.4248458258     1.2233393439
   77      C       4.3878821923     0.8015911173     1.6764994785
   78      C       3.8334138757    -3.6648825480     0.7484359657
   79      C       4.3002433778    -2.4199502298     0.9612451267
   80      N       5.5399003406     0.4411989069     1.1730993984
   81      S       4.2633273603     2.4292524136     2.2987364094
   82      C       6.3869817901     1.5744197671     1.1525933079
   83      C       5.8065776920     2.7330915334     1.6432997588
   84      C      -8.5611568027    -3.9699967876    -0.1787382351
   85      H      -6.8303844339    -2.4947196018    -1.7368095534
   86      H      -4.5464098072    -1.6884079228    -1.1704533222
   87      H      -4.9314874438    -3.9690678411     2.5121834438
   88      H      -2.4359270165    -3.8778565015     0.0751775667
   89      H       4.3840685979    -4.5289348060     0.3979233805
   90      H       5.3478217932    -2.1433299403     0.9232625122
   91      H       7.3603694038     1.4930442403     0.6857147614
   92      H       6.1980719228     3.7412375527     1.6161175751
   93      H      -8.4316769342    -4.1305105321    -1.2567852199
   94      C      -9.7034966342    -3.0091800651     0.1234486858
   95      H      -8.7373999239    -4.9352406472     0.3104454253
   96      H      -9.3565205735    -2.3284991065     0.9116460252
   97      H     -10.5839785154    -3.4814075675     0.5752205783
   98      C     -10.2169296260    -2.2438226513    -1.0678840100
   99      H      -9.4067101955    -1.5183973493    -1.2077968603
  100      C     -11.5708225868    -1.5277517986    -0.7242877579
  101      H     -10.3826678994    -2.9327814461    -1.9055519656
  102      H     -11.5831923462    -0.9840418063     0.2282249367
  103      H     -12.2859441499    -2.3155379231    -0.4569954609
  104      C     -12.3284959229    -0.7669364746    -1.8429910959
  105      H     -13.3145326030    -0.4602405000    -1.4712529558
  106      C     -12.4520950810    -1.5378621156    -3.1057657806
  107      H     -11.8347365374     0.1443355086    -2.2012340885
  108      H     -11.5603748425    -2.0860680412    -3.4343373548
  109      H     -12.6893314287    -0.8910358380    -3.9595354696
  110      H     -13.2647874095    -2.2746533756    -3.0946384100
 ----------------------------------------------------------------

    9   -5663.4920824881      7.99E-06 Convergence criterion met
 Total energy in the final basis set = -5663.4920824881

                    Orbital Energies (a.u.)
 --------------------------------------------------------------

 Alpha MOs
 -- Occupied --
-88.981 -88.977 -88.932 -88.927 -88.926 -88.921 -88.909 -88.902
-14.381 -14.379 -14.375 -14.373 -14.348 -14.348 -14.343 -14.340
-14.332 -14.326 -10.273 -10.271 -10.261 -10.257 -10.249 -10.247
-10.247 -10.246 -10.241 -10.240 -10.237 -10.237 -10.235 -10.234
-10.233 -10.232 -10.232 -10.231 -10.229 -10.227 -10.226 -10.224
-10.224 -10.223 -10.216 -10.215 -10.214 -10.213 -10.213 -10.212
-10.211 -10.210 -10.207 -10.205 -10.203 -10.202 -10.196 -10.189
-10.187 -10.185 -10.181 -10.181 -10.181 -10.180 -10.179 -10.179
-10.178 -10.177 -10.170 -10.168  -8.037  -8.032  -7.992  -7.988
 -7.985  -7.981  -7.968  -7.962  -6.002  -5.997  -5.996  -5.995
 -5.992  -5.990  -5.956  -5.953  -5.952  -5.950  -5.949  -5.949
 -5.946  -5.945  -5.945  -5.942  -5.941  -5.938  -5.933  -5.929
 -5.927  -5.924  -5.923  -5.918  -1.038  -1.034  -0.972  -0.971
 -0.969  -0.952  -0.934  -0.927  -0.914  -0.913  -0.907  -0.896
 -0.846  -0.841  -0.833  -0.832  -0.816  -0.811  -0.807  -0.806
 -0.798  -0.798  -0.794  -0.793  -0.785  -0.779  -0.771  -0.764
 -0.750  -0.746  -0.741  -0.739  -0.724  -0.720  -0.712  -0.704
 -0.693  -0.692  -0.671  -0.670  -0.655  -0.653  -0.644  -0.637
 -0.634  -0.633  -0.625  -0.624  -0.614  -0.612  -0.598  -0.596
 -0.594  -0.592  -0.580  -0.579  -0.575  -0.574  -0.566  -0.559
 -0.549  -0.545  -0.541  -0.541  -0.523  -0.521  -0.517  -0.511
 -0.505  -0.503  -0.498  -0.496  -0.489  -0.481  -0.481  -0.478
 -0.475  -0.470  -0.467  -0.464  -0.459  -0.456  -0.450  -0.448
 -0.443  -0.442  -0.441  -0.440  -0.438  -0.436  -0.432  -0.431
 -0.428  -0.426  -0.424  -0.423  -0.419  -0.415  -0.414  -0.414
 -0.412  -0.407  -0.402  -0.400  -0.398  -0.396  -0.394  -0.393
 -0.392  -0.390  -0.388  -0.387  -0.385  -0.384  -0.383  -0.382
 -0.378  -0.376  -0.369  -0.368  -0.367  -0.361  -0.356  -0.353
 -0.352  -0.350  -0.348  -0.347  -0.345  -0.339  -0.338  -0.338
 -0.336  -0.332  -0.330  -0.329  -0.328  -0.325  -0.321  -0.319
 -0.314  -0.311  -0.307  -0.307  -0.303  -0.302  -0.301  -0.300
 -0.296  -0.294  -0.292  -0.287  -0.286  -0.283  -0.280  -0.277
 -0.268  -0.267  -0.265  -0.258  -0.253  -0.252  -0.251  -0.247
 -0.244  -0.242  -0.239  -0.231  -0.198  -0.194

          Ground-State Mulliken Net Atomic Charges

     Atom                 Charge (a.u.)
  ----------------------------------------
      1 C                     0.265889
      2 C                    -0.110359
      3 N                    -0.480438
      4 C                    -0.100481
      5 C                     0.060681
      6 C                     0.080183
      7 C                     0.081330
      8 C                     0.030139
      9 C                     0.176160
     10 N                    -0.511783
     11 N                    -0.547712
     12 C                     0.238595
     13 C                     0.313754
     14 S                     0.608086
     15 N                    -0.572858
     16 C                    -0.231118
     17 S                     0.345868
     18 C                    -0.108623
     19 C                    -0.234629
     20 S                     0.262782
     21 C                     0.177815
     22 C                     0.015414
     23 C                    -0.309390
     24 C                    -0.074155
     25 N                    -0.392622
     26 S                     0.266608
     27 C                     0.113603
     28 C                    -0.296960
     29 C                    -0.218893
     30 H                     0.087884
     31 H                     0.102417
     32 H                     0.138758
     33 H                     0.097815
     34 H                     0.134739
     35 H                     0.104827
     36 H                     0.116781
     37 H                     0.136007
     38 H                     0.112891
     39 C                    -0.175962
     40 H                     0.094331
     41 H                     0.093879
     42 H                     0.114281
     43 C                    -0.201589
     44 H                     0.076364
     45 C                    -0.178581
     46 H                     0.117452
     47 H                     0.090035
     48 H                     0.094577
     49 C                    -0.175817
     50 H                     0.100025
     51 C                    -0.335241
     52 H                     0.091818
     53 H                     0.095352
     54 H                     0.098196
     55 H                     0.111446
     56 C                     0.242641
     57 C                    -0.118810
     58 N                    -0.464172
     59 C                    -0.053140
     60 C                     0.097771
     61 C                     0.002279
     62 C                     0.025897
     63 C                     0.068019
     64 C                     0.215684
     65 N                    -0.534940
     66 N                    -0.550358
     67 C                     0.207132
     68 C                     0.318845
     69 S                     0.626004
     70 N                    -0.554871
     71 C                    -0.244582
     72 S                     0.323599
     73 C                    -0.104034
     74 C                    -0.217955
     75 S                     0.269985
     76 C                     0.128389
     77 C                     0.087938
     78 C                    -0.304578
     79 C                    -0.059006
     80 N                    -0.446735
     81 S                     0.293035
     82 C                     0.105176
     83 C                    -0.305514
     84 C                    -0.232090
     85 H                     0.092536
     86 H                     0.109754
     87 H                     0.100821
     88 H                     0.109527
     89 H                     0.132099
     90 H                     0.127265
     91 H                     0.117496
     92 H                     0.139425
     93 H                     0.099988
     94 C                    -0.178303
     95 H                     0.122140
     96 H                     0.108846
     97 H                     0.094102
     98 C                    -0.170755
     99 H                     0.098345
    100 C                    -0.187761
    101 H                     0.099145
    102 H                     0.091016
    103 H                     0.091709
    104 C                    -0.172476
    105 H                     0.093873
    106 C                    -0.319425
    107 H                     0.091840
    108 H                     0.104062
    109 H                     0.096037
    110 H                     0.097517
  ----------------------------------------
  Sum of atomic charges =     0.000000

                    Cartesian Multipole Moments
 -----------------------------------------------------------------
    Charge (ESU x 10^10)
                 0.0000
    Dipole Moment (Debye)
         X      -0.2651      Y       5.2286      Z      -1.4141
       Tot       5.4229
    Quadrupole Moments (Debye-Ang)
        XX    -399.2697     XY      -0.6476     YY    -431.6707
        XZ       8.4241     YZ       3.5090     ZZ    -447.0098

 Total job time:  110.89s(wall), 1184.47s(cpu)
        *  Thank you very much for using Q-Chem.  Have a nice day.  *
