 Q-Chem 4.4, Q-Chem, Inc., Pleasanton, CA (2016)
 Q-Chem 4.4.2 for Intel X86 Linux

User input:
--------------------------------------------------------------
$comment
SP
$end

$rem
MEM_STATIC 5000
MEM_TOTAL 20000
JOBTYPE SP
EXCHANGE B3LYP
BASIS 6-31g(d,p)
$end

$molecule
0 1
C         -17.876000    -19.315000    -14.228000
C         -17.913000    -18.163000    -13.485000
N         -18.601000    -20.431000    -13.889000
C         -18.724000    -18.013000    -12.329000
C         -19.380000    -20.295000    -12.811000
C         -19.518000    -19.114000    -12.030000
C         -20.416000    -19.046000    -10.725000
C         -20.093000    -18.226000     -9.583000
C         -21.569000    -19.895000    -10.495000
N         -20.820000    -18.241000     -8.425000
N         -22.225000    -20.555000    -11.513000
C         -22.232000    -19.957000     -9.285000
C         -21.794000    -19.118000     -8.182000
S         -23.440000    -21.334000    -10.755000
N         -23.300000    -20.840000     -9.258000
C         -22.500000    -19.033000     -6.921000
S         -23.640000    -20.209000     -6.265000
C         -22.332000    -18.011000     -6.023000
C         -23.992000    -19.176000     -4.826000
S         -21.425000    -16.500000     -6.206000
C         -23.195000    -18.036000     -4.923000
C         -24.940000    -19.467000     -3.739000
C         -22.164000    -15.943000     -4.662000
C         -23.100000    -16.806000     -4.144000
N         -24.902000    -18.673000     -2.676000
S         -25.675000    -20.988000     -3.396000
C         -25.752000    -19.114000     -1.671000
C         -26.191000    -20.413000     -1.846000
C         -17.074000    -19.322000    -15.490000
H         -17.308000    -17.333000    -13.837000
H         -18.827000    -17.090000    -11.767000
H         -19.857000    -21.213000    -12.472000
H         -19.342000    -17.441000     -9.664000
H         -21.892000    -14.937000     -4.373000
H         -23.519000    -16.588000     -3.168000
H         -25.865000    -18.545000     -0.757000
H         -26.661000    -21.111000     -1.164000
H         -17.290000    -18.343000    -15.935000
C         -17.550000    -20.407000    -16.483000
H         -15.999000    -19.339000    -15.269000
H         -18.642000    -20.428000    -16.583000
H         -17.235000    -21.343000    -16.005000
C         -16.897000    -20.430000    -17.935000
H         -17.462000    -19.621000    -18.415000
C         -16.809000    -21.745000    -18.669000
H         -15.897000    -19.985000    -17.866000
H         -17.821000    -22.162000    -18.739000
H         -16.143000    -22.450000    -18.156000
C         -16.485000    -21.570000    -20.180000
H         -17.336000    -21.094000    -20.682000
C         -16.435000    -22.952000    -20.884000
H         -15.541000    -21.047000    -20.374000
H         -16.551000    -22.781000    -21.961000
H         -17.146000    -23.677000    -20.469000
H         -15.444000    -23.396000    -20.729000
C         -19.048000     -8.659000    -10.531000
C         -20.033000     -9.369000     -9.780000
N         -18.443000     -9.205000    -11.633000
C         -20.489000    -10.630000    -10.312000
C         -18.838000    -10.432000    -12.086000
C         -19.764000    -11.262000    -11.374000
C         -19.943000    -12.654000    -11.904000
C         -19.688000    -13.000000    -13.268000
C         -20.584000    -13.695000    -11.218000
N         -19.916000    -14.136000    -13.866000
N         -20.869000    -13.666000     -9.853000
C         -20.903000    -14.922000    -11.793000
C         -20.559000    -15.127000    -13.182000
S         -21.519000    -15.160000     -9.519000
N         -21.474000    -15.819000    -10.977000
C         -20.838000    -16.362000    -13.929000
S         -22.108000    -17.573000    -13.524000
C         -20.246000    -16.669000    -15.192000
C         -21.788000    -18.454000    -15.029000
S         -18.958000    -15.976000    -16.012000
C         -20.786000    -17.858000    -15.780000
C         -22.412000    -19.649000    -15.491000
C         -19.109000    -17.184000    -17.263000
C         -20.091000    -18.164000    -16.972000
N         -21.977000    -20.260000    -16.568000
S         -23.626000    -20.510000    -14.595000
C         -22.464000    -21.529000    -16.660000
C         -23.508000    -21.716000    -15.789000
C         -18.391000     -7.318000    -10.184000
H         -20.480000     -9.065000     -8.839000
H         -21.158000    -11.213000     -9.686000
H         -18.192000    -10.773000    -12.893000
H         -19.493000    -12.256000    -14.039000
H         -18.364000    -17.173000    -18.047000
H         -20.150000    -19.079000    -17.551000
H         -22.005000    -22.188000    -17.385000
H         -24.180000    -22.561000    -15.708000
H         -17.669000     -7.405000     -9.362000
C         -19.397000     -6.272000     -9.641000
H         -17.826000     -6.847000    -10.998000
H         -18.876000     -5.326000     -9.449000
H         -19.778000     -6.515000     -8.641000
C         -20.580000     -6.038000    -10.521000
H         -20.276000     -5.576000    -11.469000
C         -21.608000     -5.086000     -9.826000
H         -20.991000     -6.981000    -10.904000
H         -21.212000     -4.063000     -9.819000
H         -21.779000     -5.414000     -8.793000
C         -22.974000     -5.088000    -10.539000
H         -22.735000     -4.927000    -11.597000
C         -24.032000     -4.082000     -9.994000
H         -23.423000     -6.069000    -10.341000
H         -23.501000     -3.151000     -9.760000
H         -24.470000     -4.388000     -9.036000
H         -24.901000     -3.987000    -10.656000
$end

--------------------------------------------------------------

             Standard Nuclear Orientation (Angstroms)
    I     Atom           X                Y                Z
 ----------------------------------------------------------------
    1      C      -4.6192352440     0.8804613581    -2.0507589317
    2      C      -3.3213550109     1.3035590804    -2.1812089906
    3      N      -4.9394928112    -0.3960294536    -1.6583200213
    4      C      -2.2043933659     0.4760267389    -1.8911332982
    5      C      -3.8951492844    -1.1785037264    -1.3676284142
    6      C      -2.5274358898    -0.7904727977    -1.4182057648
    7      C      -1.3370967574    -1.7941203320    -1.1184769259
    8      C      -0.0546504931    -1.7205907570    -1.7748441865
    9      C      -1.4606273641    -2.9581262073    -0.2623574767
   10      N       0.9358856605    -2.6430993163    -1.5811070285
   11      N      -2.4714981810    -3.0985436562     0.6653726197
   12      C      -0.4785317435    -3.9230443675    -0.1531140058
   13      C       0.7616048379    -3.7732379829    -0.8960765262
   14      S      -2.1557378924    -4.5323495488     1.3739811878
   15      N      -0.7898572006    -4.9673715574     0.7033316611
   16      C       1.8867944077    -4.6725249458    -0.7511165654
   17      S       1.8513298503    -6.3181919450    -0.1159517105
   18      C       3.1628261150    -4.3633743920    -1.1451736894
   19      C       3.6439623980    -6.4892077656    -0.2535603511
   20      S       3.8118727198    -2.8180283723    -1.7195456805
   21      C       4.1368618014    -5.3075427948    -0.8057705238
   22      C       4.4538941225    -7.6537717900     0.1372787905
   23      C       5.4576149467    -3.5379646744    -1.6032261058
   24      C       5.4810156207    -4.8009648100    -1.0614954846
   25      N       5.7289823389    -7.6536021401    -0.2315016475
   26      S       3.8730322260    -9.2379129884     0.4899983969
   27      C       6.3587912051    -8.8493007084     0.0857549140
   28      C       5.4829400841    -9.8704345960     0.4034299010
   29      C      -5.7163161371     1.8717865749    -2.2734354422
   30      H      -3.1701733986     2.3325957656    -2.4927481064
   31      H      -1.1713208917     0.8085060465    -1.9156439701
   32      H      -4.1432359877    -2.2213081314    -1.1774023366
   33      H       0.2274585704    -0.8286296751    -2.3330618005
   34      H       6.2618839295    -2.8580876762    -1.8491115887
   35      H       6.4221074914    -5.3393014017    -1.0473249222
   36      H       7.4144637815    -8.9844837855    -0.1122525279
   37      H       5.6237548517   -10.9419965959     0.4752218339
   38      H      -5.3428103380     2.7798175529    -1.7844618630
   39      C      -7.0301127915     1.4628155454    -1.5687858499
   40      H      -5.8193278961     2.1065241204    -3.3406944840
   41      H      -6.8612477679     1.1249949727    -0.5390932431
   42      H      -7.3747804319     0.6024261583    -2.1559309088
   43      C      -8.2393295229     2.4986101270    -1.5816886028
   44      H      -7.9212042000     3.1786831140    -0.7814367604
   45      C      -9.6496110651     1.9665882625    -1.5201767550
   46      H      -8.1307326394     3.1382010155    -2.4659488656
   47      H      -9.7377532467     1.3442730997    -0.6213509688
   48      H      -9.8993294173     1.3803229217    -2.4133081534
   49      C     -10.6945695411     3.0693463419    -1.1874480344
   50      H     -10.5441512240     3.4144266150    -0.1573631180
   51      C     -12.1184419210     2.4571174305    -1.1112692593
   52      H     -10.7104688131     3.8973020684    -1.9061534874
   53      H     -12.7520678913     3.1571866914    -0.5535532387
   54      H     -12.1308055432     1.4337053995    -0.7164959627
   55      H     -12.5294901523     2.3819504422    -2.1254838695
   56      C       5.3004780371     6.3132405456    -1.2286106966
   57      C       5.6029157162     5.0146943363    -0.7180862677
   58      N       4.0103632640     6.7433405062    -1.3993821698
   59      C       4.4997735267     4.2191366830    -0.2372054819
   60      C       2.9720162018     5.9493480653    -1.0016707389
   61      C       3.1539640954     4.6040230737    -0.5430689170
   62      C       1.9017465098     3.8058311748    -0.3298886860
   63      C       0.6364176689     4.4126128233    -0.0542150464
   64      C       1.8601571518     2.4169472881    -0.1443357971
   65      N      -0.4851676989     3.8269391220     0.2606128083
   66      N       2.9251433837     1.5628783454    -0.4301006774
   67      C       0.7165539307     1.7187611996     0.2333186195
   68      C      -0.4949109703     2.4757710206     0.4546123715
   69      S       2.3357402292     0.0334919221    -0.1478364577
   70      N       0.8464555170     0.3875434923     0.3198691460
   71      C      -1.7765148175     1.8833834129     0.8640552870
   72      S      -1.9847865937     0.3093300480     1.7140110926
   73      C      -3.0222806602     2.5787476119     0.7975865280
   74      C      -3.7175682607     0.6201015931     1.9249014467
   75      S      -3.4559832644     4.0090676903     0.0375342111
   76      C      -4.0987855984     1.8395690384     1.3856487310
   77      C      -4.6880205863    -0.2244092469     2.5379827829
   78      C      -5.1113696358     3.7680413991     0.5362007215
   79      C      -5.3169404384     2.5310310263     1.1972234008
   80      N      -5.9632488672     0.0839979835     2.5040296994
   81      S      -4.3272785474    -1.7975229080     3.1807203580
   82      C      -6.7486652187    -0.9786663561     2.8354805350
   83      C      -6.0031183400    -1.9761148721     3.4123707408
   84      C       6.2765364410     7.3434816953    -1.8084832394
   85      H       6.5818565694     4.5506624786    -0.6544054940
   86      H       4.7222390099     3.1960871269     0.0512467921
   87      H       2.0185912067     6.3786258311    -1.3042387121
   88      H       0.5259930131     5.4736483629     0.1649013134
   89      H      -5.8403336503     4.4809919390     0.1754861622
   90      H      -6.3192199316     2.1579532216     1.3766551957
   91      H      -7.8083844531    -0.8980145567     2.6328048549
   92      H      -6.3430109620    -2.8853786404     3.8918312763
   93      H       6.6411149878     7.0615008343    -2.8045285583
   94      C       7.5870772234     7.4649991159    -0.9907318261
   95      H       5.8698809160     8.3539214343    -1.9400310169
   96      H       8.2243473176     8.2417842145    -1.4308599183
   97      H       8.2339811486     6.5825490248    -1.0744405380
   98      C       7.3847556957     7.7295352188     0.4645109886
   99      H       6.9368386733     8.7189164849     0.6228114983
  100      C       8.7478077043     7.6868487983     1.2302655780
  101      H       6.5867612071     7.1018598262     0.8817488076
  102      H       9.3319752583     8.5829150870     0.9869397162
  103      H       9.3136820813     6.7951560705     0.9326344831
  104      C       8.5530751972     7.6169042329     2.7571958346
  105      H       7.8438145130     8.4219400553     2.9836303872
  106      C       9.8509136719     7.6894149728     3.6167204046
  107      H       8.1559329689     6.6170929895     2.9712554709
  108      H      10.5061495510     8.4345897351     3.1488972367
  109      H      10.4396096898     6.7641156259     3.5943124334
  110      H       9.6406527066     7.8352825145     4.6829956911
 ----------------------------------------------------------------

   10   -5663.5048507760      8.53E-06 Convergence criterion met
 Total energy in the final basis set = -5663.5048507760

                    Orbital Energies (a.u.)
 --------------------------------------------------------------

 Alpha MOs
 -- Occupied --
-88.992 -88.984 -88.929 -88.929 -88.928 -88.924 -88.914 -88.908
-14.391 -14.384 -14.382 -14.377 -14.352 -14.346 -14.345 -14.337
-14.328 -14.326 -10.275 -10.266 -10.263 -10.262 -10.259 -10.259
-10.253 -10.252 -10.251 -10.247 -10.244 -10.242 -10.241 -10.238
-10.237 -10.236 -10.234 -10.233 -10.230 -10.230 -10.230 -10.226
-10.225 -10.224 -10.223 -10.223 -10.222 -10.221 -10.221 -10.220
-10.216 -10.212 -10.211 -10.209 -10.207 -10.200 -10.199 -10.191
-10.183 -10.180 -10.179 -10.177 -10.175 -10.175 -10.174 -10.173
-10.171 -10.170 -10.170 -10.169  -8.048  -8.039  -7.991  -7.987
 -7.986  -7.986  -7.974  -7.966  -6.012  -6.007  -6.006  -6.004
 -5.998  -5.997  -5.955  -5.951  -5.951  -5.951  -5.950  -5.948
 -5.947  -5.947  -5.946  -5.943  -5.943  -5.943  -5.939  -5.935
 -5.931  -5.931  -5.927  -5.923  -1.044  -1.032  -0.977  -0.972
 -0.960  -0.957  -0.934  -0.921  -0.909  -0.909  -0.902  -0.894
 -0.847  -0.838  -0.825  -0.823  -0.813  -0.810  -0.807  -0.807
 -0.803  -0.799  -0.797  -0.789  -0.785  -0.776  -0.766  -0.763
 -0.748  -0.746  -0.739  -0.737  -0.725  -0.722  -0.708  -0.708
 -0.694  -0.691  -0.673  -0.670  -0.652  -0.650  -0.641  -0.638
 -0.635  -0.632  -0.625  -0.616  -0.609  -0.607  -0.596  -0.595
 -0.593  -0.591  -0.583  -0.580  -0.575  -0.569  -0.567  -0.565
 -0.552  -0.549  -0.540  -0.536  -0.522  -0.521  -0.512  -0.509
 -0.503  -0.501  -0.500  -0.497  -0.483  -0.480  -0.478  -0.474
 -0.473  -0.469  -0.469  -0.464  -0.459  -0.458  -0.453  -0.448
 -0.446  -0.437  -0.437  -0.437  -0.436  -0.435  -0.434  -0.433
 -0.428  -0.427  -0.424  -0.419  -0.418  -0.417  -0.413  -0.413
 -0.410  -0.408  -0.406  -0.403  -0.401  -0.398  -0.395  -0.394
 -0.391  -0.390  -0.388  -0.388  -0.387  -0.385  -0.382  -0.379
 -0.377  -0.377  -0.371  -0.367  -0.367  -0.366  -0.360  -0.356
 -0.352  -0.350  -0.348  -0.347  -0.345  -0.344  -0.341  -0.340
 -0.337  -0.334  -0.331  -0.331  -0.324  -0.321  -0.317  -0.314
 -0.312  -0.310  -0.309  -0.308  -0.307  -0.304  -0.301  -0.299
 -0.296  -0.294  -0.294  -0.292  -0.285  -0.277  -0.276  -0.274
 -0.272  -0.270  -0.265  -0.264  -0.256  -0.255  -0.252  -0.249
 -0.247  -0.241  -0.232  -0.224  -0.197  -0.187

          Ground-State Mulliken Net Atomic Charges

     Atom                 Charge (a.u.)
  ----------------------------------------
      1 C                     0.292140
      2 C                    -0.124145
      3 N                    -0.487900
      4 C                    -0.072374
      5 C                     0.093972
      6 C                     0.042661
      7 C                     0.050831
      8 C                     0.057857
      9 C                     0.199724
     10 N                    -0.545765
     11 N                    -0.536918
     12 C                     0.162785
     13 C                     0.329772
     14 S                     0.617392
     15 N                    -0.534301
     16 C                    -0.219734
     17 S                     0.316355
     18 C                    -0.111518
     19 C                    -0.248353
     20 S                     0.270741
     21 C                     0.155403
     22 C                     0.056494
     23 C                    -0.307092
     24 C                    -0.048409
     25 N                    -0.429904
     26 S                     0.277597
     27 C                     0.121227
     28 C                    -0.312565
     29 C                    -0.249048
     30 H                     0.093552
     31 H                     0.103174
     32 H                     0.105406
     33 H                     0.110503
     34 H                     0.129621
     35 H                     0.130401
     36 H                     0.117916
     37 H                     0.145294
     38 H                     0.110814
     39 C                    -0.178928
     40 H                     0.113494
     41 H                     0.108982
     42 H                     0.104433
     43 C                    -0.190989
     44 H                     0.082595
     45 C                    -0.164676
     46 H                     0.082640
     47 H                     0.092429
     48 H                     0.096407
     49 C                    -0.177619
     50 H                     0.097207
     51 C                    -0.323163
     52 H                     0.093760
     53 H                     0.098468
     54 H                     0.101603
     55 H                     0.100788
     56 C                     0.262234
     57 C                    -0.115854
     58 N                    -0.480094
     59 C                    -0.096058
     60 C                     0.062993
     61 C                     0.050306
     62 C                     0.045935
     63 C                     0.054254
     64 C                     0.197016
     65 N                    -0.515502
     66 N                    -0.572429
     67 C                     0.207722
     68 C                     0.278876
     69 S                     0.636536
     70 N                    -0.573826
     71 C                    -0.223562
     72 S                     0.334410
     73 C                    -0.097095
     74 C                    -0.220816
     75 S                     0.282919
     76 C                     0.157648
     77 C                     0.076862
     78 C                    -0.323770
     79 C                    -0.053651
     80 N                    -0.442719
     81 S                     0.281847
     82 C                     0.131294
     83 C                    -0.319337
     84 C                    -0.219887
     85 H                     0.102312
     86 H                     0.123160
     87 H                     0.106969
     88 H                     0.114273
     89 H                     0.134210
     90 H                     0.135953
     91 H                     0.119300
     92 H                     0.128806
     93 H                     0.111298
     94 C                    -0.192807
     95 H                     0.122038
     96 H                     0.089832
     97 H                     0.085959
     98 C                    -0.172025
     99 H                     0.089872
    100 C                    -0.176594
    101 H                     0.099413
    102 H                     0.091039
    103 H                     0.085318
    104 C                    -0.173712
    105 H                     0.094264
    106 C                    -0.324487
    107 H                     0.095001
    108 H                     0.099668
    109 H                     0.099661
    110 H                     0.103993
  ----------------------------------------
  Sum of atomic charges =     0.000000

                    Cartesian Multipole Moments
 -----------------------------------------------------------------
    Charge (ESU x 10^10)
                 0.0000
    Dipole Moment (Debye)
         X       0.4992      Y      -4.2627      Z       1.0869
       Tot       4.4273
    Quadrupole Moments (Debye-Ang)
        XX    -410.9402     XY     -17.4829     YY    -419.1089
        XZ      -5.5926     YZ     -14.8308     ZZ    -451.2472

 Total job time:  116.78s(wall), 1263.73s(cpu)
        *  Thank you very much for using Q-Chem.  Have a nice day.  *
