 Q-Chem 4.4, Q-Chem, Inc., Pleasanton, CA (2016)
 Q-Chem 4.4.2 for Intel X86 Linux

User input:
--------------------------------------------------------------
$comment
SP
$end

$rem
MEM_STATIC 5000
MEM_TOTAL 20000
JOBTYPE SP
EXCHANGE B3LYP
BASIS 6-31g(d,p)
$end

$molecule
0 1
C          -5.047000     21.668000      6.759000
C          -4.181000     21.241000      5.749000
N          -5.551000     22.919000      6.733000
C          -3.677000     22.161000      4.899000
C          -5.078000     23.787000      5.861000
C          -4.074000     23.513000      4.948000
C          -3.504000     24.590000      4.034000
C          -3.342000     24.302000      2.671000
C          -3.004000     25.804000      4.563000
N          -2.828000     25.203000      1.862000
N          -3.131000     26.194000      5.819000
C          -2.403000     26.718000      3.682000
C          -2.306000     26.376000      2.316000
S          -2.540000     27.706000      5.889000
N          -2.081000     27.829000      4.342000
C          -1.628000     27.299000      1.379000
S          -0.999000     28.995000      1.645000
C          -1.316000     26.906000      0.066000
C          -0.342000     29.075000      0.024000
S          -1.517000     25.398000     -0.709000
C          -0.599000     27.853000     -0.593000
C           0.097000     30.220000     -0.677000
C          -0.479000     26.064000     -2.010000
C          -0.163000     27.351000     -1.917000
N           0.879000     30.986000      0.050000
S           0.007000     30.622000     -2.340000
C           1.444000     32.009000     -0.745000
C           1.086000     31.967000     -2.043000
C          -5.501000     20.739000      7.871000
H          -3.906000     20.198000      5.631000
H          -2.890000     21.981000      4.173000
H          -5.355000     24.833000      5.981000
H          -3.703000     23.365000      2.249000
H          -0.018000     25.436000     -2.761000
H           0.513000     27.922000     -2.544000
H           2.150000     32.661000     -0.248000
H           1.341000     32.640000     -2.851000
H          -6.549000     20.953000      8.116000
C          -4.557000     21.065000      9.084000
H          -5.389000     19.695000      7.555000
H          -3.687000     21.663000      8.786000
H          -4.142000     20.160000      9.544000
C          -5.290000     21.801000     10.227000
H          -5.712000     22.783000      9.979000
C          -4.380000     21.997000     11.476000
H          -6.097000     21.088000     10.436000
H          -4.737000     22.768000     12.170000
H          -3.410000     22.335000     11.089000
C          -3.985000     20.739000     12.345000
H          -4.884000     20.344000     12.834000
C          -2.828000     21.002000     13.289000
H          -3.671000     19.954000     11.646000
H          -3.086000     21.792000     14.005000
H          -1.994000     21.415000     12.709000
H          -2.495000     20.148000     13.892000
C         -10.985000     13.248000      3.087000
C          -9.962000     12.844000      2.204000
N         -11.001000     14.478000      3.616000
C          -8.891000     13.750000      1.959000
C          -9.953000     15.244000      3.449000
C          -8.893000     15.008000      2.574000
C          -7.761000     15.995000      2.340000
C          -7.078000     16.088000      1.084000
C          -7.169000     16.759000      3.399000
N          -5.934000     16.769000      0.818000
N          -7.462000     16.722000      4.722000
C          -5.993000     17.496000      3.121000
C          -5.372000     17.384000      1.874000
S          -6.328000     17.690000      5.496000
N          -5.456000     18.142000      4.192000
C          -4.194000     18.275000      1.590000
S          -3.750000     19.866000      2.329000
C          -3.072000     17.802000      0.931000
C          -2.087000     19.793000      1.668000
S          -2.932000     16.208000      0.254000
C          -1.913000     18.526000      1.109000
C          -1.039000     20.748000      1.842000
C          -1.213000     16.620000      0.130000
C          -0.807000     17.857000      0.638000
N          -1.397000     22.021000      1.705000
S           0.708000     20.470000      2.018000
C          -0.301000     22.896000      1.914000
C           0.937000     22.218000      2.075000
C         -12.191000     12.333000      3.470000
H         -10.012000     11.849000      1.772000
H          -8.038000     13.338000      1.428000
H         -10.126000     16.152000      4.025000
H          -7.482000     15.478000      0.278000
H          -0.585000     15.813000     -0.222000
H           0.168000     18.312000      0.500000
H          -0.391000     23.967000      1.794000
H           1.928000     22.647000      2.146000
H         -13.031000     13.005000      3.685000
C         -11.896000     11.531000      4.767000
H         -12.476000     11.605000      2.700000
H         -11.640000     12.237000      5.568000
H         -11.047000     10.892000      4.495000
C         -13.003000     10.604000      5.268000
H         -13.014000      9.758000      4.570000
C         -14.465000     11.158000      5.320000
H         -12.684000     10.287000      6.268000
H         -14.706000     11.633000      4.361000
H         -14.458000     11.994000      6.029000
C         -15.519000     10.097000      5.758000
H         -15.437000      9.248000      5.068000
C         -16.965000     10.759000      5.609000
H         -15.280000      9.789000      6.783000
H         -16.912000     11.552000      6.365000
H         -17.758000     10.035000      5.834000
H         -17.155000     11.319000      4.685000
$end

--------------------------------------------------------------

             Standard Nuclear Orientation (Angstroms)
    I     Atom           X                Y                Z
 ----------------------------------------------------------------
    1      C      -0.7240439226     3.5988041241    -0.0006204040
    2      C      -0.3779330947     2.4377927688     0.6955440362
    3      N       0.0056069828     3.9914467085    -1.0651082419
    4      C       0.8164508573     1.8629229461     0.4388581153
    5      C       1.1453451383     3.3827178140    -1.3258438741
    6      C       1.6718028677     2.3480373117    -0.5715630794
    7      C       3.0423254089     1.7537862144    -0.8694868905
    8      C       3.1788639975     0.3585162625    -0.9086784094
    9      C       4.1899908715     2.5778184029    -0.9559272656
   10      N       4.3552056346    -0.1839271899    -1.1377055996
   11      N       4.1768102197     3.8989925271    -0.9654248394
   12      C       5.4400462711     1.9634828676    -1.1367900537
   13      C       5.4974694838     0.5546882203    -1.2025868337
   14      S       5.7084050851     4.3683803222    -1.2378532998
   15      N       6.3787853220     2.8962202706    -1.2863725772
   16      C       6.8091777677    -0.1166859903    -1.3377165770
   17      S       8.4700234496     0.5908626728    -1.6271634807
   18      C       6.9348922619    -1.5085825972    -1.1874444858
   19      C       9.2314992649    -0.9812564139    -1.5076387552
   20      S       5.7679530802    -2.6797572419    -0.7611899867
   21      C       8.2310587719    -1.9118770025    -1.2372942710
   22      C      10.5401403486    -1.3416343576    -1.8984497732
   23      C       7.1482452399    -3.8044924422    -0.5529466605
   24      C       8.3406346113    -3.3573682592    -0.9313136144
   25      N      11.4447767083    -0.4874861272    -1.4755161411
   26      S      11.1518227982    -2.7940084035    -2.5705563209
   27      C      12.7448491222    -0.9843990823    -1.7218253649
   28      C      12.7754882487    -2.2002116752    -2.3011292427
   29      C      -1.9511003371     4.4157334248     0.3636049018
   30      H      -1.0389231879     1.9899817689     1.4303606154
   31      H       1.2591910132     1.0524721210     1.0098183719
   32      H       1.8072228938     3.8334972820    -2.0633807938
   33      H       2.3097703662    -0.2926257299    -0.8246286278
   34      H       7.0537644630    -4.7453002512    -0.0267717376
   35      H       9.3050560249    -3.8394027084    -0.8143515401
   36      H      13.5622180919    -0.3765407584    -1.3571813941
   37      H      13.6236303986    -2.7880785087    -2.6265297338
   38      H      -2.4143193420     4.8013460080    -0.5533771532
   39      C      -1.4087498321     5.5862434133     1.2605682770
   40      H      -2.6636130213     3.7932511420     0.9178408465
   41      H      -0.3812668514     5.4085376589     1.6011668517
   42      H      -1.9983076901     5.7172096203     2.1760568814
   43      C      -1.4592061471     6.9549459521     0.5467465060
   44      H      -0.8548263927     7.0491050853    -0.3641712566
   45      C      -1.0477072172     8.1236071580     1.4908951258
   46      H      -2.5258379512     7.0082962041     0.2962483122
   47      H      -0.7685446292     9.0442770449     0.9636748598
   48      H      -0.1552942179     7.7749842478     2.0265947666
   49      C      -2.0155748300     8.5392194146     2.6674361307
   50      H      -2.9349359307     8.9616950006     2.2436006134
   51      C      -1.3501133456     9.4171963760     3.7091997642
   52      H      -2.3289944924     7.6132433426     3.1651895128
   53      H      -1.0048558516    10.3560868002     3.2590864072
   54      H      -0.4340514568     8.9191326624     4.0487408561
   55      H      -1.9735938023     9.7062743174     4.5644892262
   56      C     -10.0631027127    -1.9102888847    -1.4399616196
   57      C      -9.6366700560    -2.9570051332    -0.5961759331
   58      N      -9.1907964063    -1.0377991913    -1.9603849498
   59      C      -8.2600590577    -3.0090998979    -0.2354401647
   60      C      -7.9554878854    -1.0557549674    -1.5283670704
   61      C      -7.3749357330    -2.0476799899    -0.7384525508
   62      C      -5.9013635464    -2.0702218529    -0.3663962711
   63      C      -5.1892559175    -3.2937771258    -0.1461935941
   64      C      -5.1720866826    -0.8850850617    -0.0210746211
   65      N      -3.9485047308    -3.4393985909     0.3853925999
   66      N      -5.6349699696     0.3859127476     0.0675291674
   67      C      -3.8659897128    -1.0280451893     0.5053302682
   68      C      -3.3551786558    -2.2992028263     0.7817797680
   69      S      -4.3808689898     1.3154427245     0.6882229361
   70      N      -3.2647574165     0.1378062438     0.8686980733
   71      C      -1.9229175382    -2.4019078565     1.2293295058
   72      S      -0.5461755760    -1.2606480244     0.9524801513
   73      C      -1.5422907904    -3.2647949331     2.2429582207
   74      C       0.4586701037    -2.0514078609     2.2065945963
   75      S      -2.6078660975    -4.3974523933     3.0178139124
   76      C      -0.3490212285    -2.9768600722     2.8693305290
   77      C       1.7764900649    -1.6886917530     2.6217964446
   78      C      -1.2911493530    -4.5373562677     4.1954237462
   79      C      -0.1732191794    -3.7184374942     4.0146665349
   80      N       2.6279906980    -1.4073011243     1.6403546553
   81      S       2.4929424167    -1.7525361150     4.2474928877
   82      C       3.9011687104    -1.0393470880     2.1444871537
   83      C       4.0147390826    -1.1941822062     3.5521010413
   84      C     -11.5504657835    -1.7183203378    -1.8749894032
   85      H     -10.3766457724    -3.6613402364    -0.2280767597
   86      H      -8.0067124040    -3.7093105757     0.5550245593
   87      H      -7.4393573394    -0.2217600152    -2.0018970896
   88      H      -5.7412274927    -4.2082632827    -0.3559421321
   89      H      -1.5175436993    -5.1667289608     5.0452311439
   90      H       0.7653446894    -3.7958074849     4.5530026277
   91      H       4.7364848455    -0.8249830170     1.4919260457
   92      H       4.8987651317    -1.0820748795     4.1661799385
   93      H     -11.5231324868    -1.2416382264    -2.8626310668
   94      C     -12.2947162061    -0.7509230493    -0.9144313391
   95      H     -12.1381784478    -2.6440082464    -1.9174714014
   96      H     -11.7472055906     0.2000896451    -0.8772832411
   97      H     -12.2788785668    -1.2726513247     0.0502731627
   98      C     -13.7604636173    -0.4587875145    -1.2338375944
   99      H     -14.3046709762    -1.3745817904    -0.9726859245
  100      C     -14.1422419185    -0.1197174963    -2.7124656246
  101      H     -14.0408467148     0.3695989674    -0.5724669304
  102      H     -13.6995998774    -0.8684166174    -3.3809748987
  103      H     -13.6105499331     0.8038736766    -2.9691930634
  104      C     -15.6732967171     0.0679264140    -2.9341454988
  105      H     -16.1695983404    -0.8490336752    -2.5928334810
  106      C     -15.9183595474     0.2469745997    -4.5023441331
  107      H     -15.9962212431     0.9295366161    -2.3375236670
  108      H     -15.4051206994     1.1984591954    -4.6879699637
  109      H     -16.9892748635     0.3110506708    -4.7318754880
  110      H     -15.3860141879    -0.4473194048    -5.1641902281
 ----------------------------------------------------------------

   10   -5663.4964923609      4.00E-06 Convergence criterion met
 Total energy in the final basis set = -5663.4964923609

                    Orbital Energies (a.u.)
 --------------------------------------------------------------

 Alpha MOs
 -- Occupied --
-88.995 -88.985 -88.930 -88.930 -88.926 -88.925 -88.915 -88.910
-14.394 -14.387 -14.375 -14.370 -14.362 -14.346 -14.343 -14.340
-14.327 -14.315 -10.271 -10.269 -10.264 -10.263 -10.260 -10.259
-10.248 -10.245 -10.243 -10.242 -10.241 -10.241 -10.239 -10.236
-10.235 -10.234 -10.233 -10.233 -10.232 -10.230 -10.228 -10.228
-10.224 -10.223 -10.221 -10.221 -10.219 -10.217 -10.212 -10.206
-10.206 -10.206 -10.204 -10.203 -10.197 -10.195 -10.192 -10.188
-10.187 -10.185 -10.183 -10.181 -10.180 -10.178 -10.177 -10.176
-10.175 -10.174 -10.174 -10.170  -8.050  -8.040  -7.992  -7.990
 -7.984  -7.982  -7.976  -7.969  -6.015  -6.010  -6.008  -6.006
 -6.000  -5.998  -5.956  -5.954  -5.952  -5.951  -5.949  -5.948
 -5.947  -5.947  -5.945  -5.943  -5.940  -5.940  -5.939  -5.937
 -5.934  -5.932  -5.930  -5.925  -1.040  -1.032  -0.971  -0.964
 -0.956  -0.954  -0.951  -0.935  -0.917  -0.912  -0.902  -0.900
 -0.843  -0.842  -0.834  -0.822  -0.813  -0.809  -0.806  -0.804
 -0.800  -0.800  -0.798  -0.794  -0.781  -0.779  -0.766  -0.766
 -0.749  -0.749  -0.746  -0.739  -0.722  -0.720  -0.710  -0.707
 -0.693  -0.692  -0.677  -0.676  -0.656  -0.648  -0.647  -0.638
 -0.637  -0.633  -0.629  -0.617  -0.614  -0.606  -0.599  -0.598
 -0.593  -0.589  -0.588  -0.582  -0.580  -0.570  -0.559  -0.556
 -0.546  -0.543  -0.542  -0.541  -0.526  -0.521  -0.519  -0.516
 -0.510  -0.501  -0.499  -0.497  -0.489  -0.484  -0.480  -0.477
 -0.472  -0.470  -0.468  -0.465  -0.463  -0.453  -0.450  -0.447
 -0.446  -0.441  -0.439  -0.438  -0.434  -0.431  -0.430  -0.429
 -0.427  -0.427  -0.423  -0.421  -0.416  -0.414  -0.412  -0.411
 -0.410  -0.409  -0.407  -0.404  -0.402  -0.399  -0.398  -0.397
 -0.396  -0.394  -0.394  -0.390  -0.389  -0.387  -0.383  -0.381
 -0.381  -0.377  -0.374  -0.368  -0.367  -0.363  -0.358  -0.355
 -0.355  -0.352  -0.350  -0.347  -0.344  -0.343  -0.339  -0.338
 -0.338  -0.332  -0.330  -0.330  -0.327  -0.324  -0.322  -0.314
 -0.313  -0.310  -0.306  -0.302  -0.301  -0.301  -0.300  -0.299
 -0.298  -0.295  -0.293  -0.290  -0.286  -0.285  -0.282  -0.280
 -0.277  -0.272  -0.265  -0.262  -0.258  -0.255  -0.251  -0.245
 -0.243  -0.236  -0.235  -0.231  -0.197  -0.193

          Ground-State Mulliken Net Atomic Charges

     Atom                 Charge (a.u.)
  ----------------------------------------
      1 C                     0.252528
      2 C                    -0.121891
      3 N                    -0.477540
      4 C                    -0.069047
      5 C                     0.083142
      6 C                     0.031324
      7 C                    -0.026628
      8 C                     0.089606
      9 C                     0.246705
     10 N                    -0.538050
     11 N                    -0.558868
     12 C                     0.236353
     13 C                     0.298002
     14 S                     0.601787
     15 N                    -0.579420
     16 C                    -0.228237
     17 S                     0.349986
     18 C                    -0.101876
     19 C                    -0.178671
     20 S                     0.298670
     21 C                     0.091801
     22 C                     0.028960
     23 C                    -0.319595
     24 C                    -0.050345
     25 N                    -0.418151
     26 S                     0.277688
     27 C                     0.120064
     28 C                    -0.308233
     29 C                    -0.228566
     30 H                     0.101506
     31 H                     0.105988
     32 H                     0.101360
     33 H                     0.143322
     34 H                     0.119451
     35 H                     0.114887
     36 H                     0.118645
     37 H                     0.139854
     38 H                     0.123291
     39 C                    -0.184496
     40 H                     0.089753
     41 H                     0.108610
     42 H                     0.095045
     43 C                    -0.174170
     44 H                     0.115242
     45 C                    -0.182442
     46 H                     0.088034
     47 H                     0.088236
     48 H                     0.088841
     49 C                    -0.179888
     50 H                     0.091407
     51 C                    -0.314718
     52 H                     0.090262
     53 H                     0.100546
     54 H                     0.102756
     55 H                     0.100907
     56 C                     0.260310
     57 C                    -0.119024
     58 N                    -0.461896
     59 C                    -0.094131
     60 C                     0.083531
     61 C                     0.047537
     62 C                     0.031309
     63 C                     0.049803
     64 C                     0.249183
     65 N                    -0.470027
     66 N                    -0.570497
     67 C                     0.194147
     68 C                     0.242069
     69 S                     0.621885
     70 N                    -0.550996
     71 C                    -0.197341
     72 S                     0.352255
     73 C                    -0.127676
     74 C                    -0.217196
     75 S                     0.280845
     76 C                     0.159005
     77 C                     0.034472
     78 C                    -0.307693
     79 C                    -0.083392
     80 N                    -0.433328
     81 S                     0.262475
     82 C                     0.118399
     83 C                    -0.313146
     84 C                    -0.225414
     85 H                     0.092628
     86 H                     0.108125
     87 H                     0.111714
     88 H                     0.112014
     89 H                     0.122704
     90 H                     0.119162
     91 H                     0.135406
     92 H                     0.140120
     93 H                     0.122589
     94 C                    -0.179569
     95 H                     0.093153
     96 H                     0.107350
     97 H                     0.090422
     98 C                    -0.179109
     99 H                     0.085398
    100 C                    -0.178832
    101 H                     0.092837
    102 H                     0.094863
    103 H                     0.091464
    104 C                    -0.177919
    105 H                     0.094717
    106 C                    -0.322911
    107 H                     0.099964
    108 H                     0.105747
    109 H                     0.101063
    110 H                     0.107706
  ----------------------------------------
  Sum of atomic charges =     0.000000

                    Cartesian Multipole Moments
 -----------------------------------------------------------------
    Charge (ESU x 10^10)
                 0.0000
    Dipole Moment (Debye)
         X       0.8338      Y      -3.3949      Z       4.1254
       Tot       5.4074
    Quadrupole Moments (Debye-Ang)
        XX    -369.6412     XY      -7.6367     YY    -434.3913
        XZ     -10.4185     YZ      -4.6547     ZZ    -438.7908

 Total job time:  98.71s(wall), 1069.74s(cpu)
        *  Thank you very much for using Q-Chem.  Have a nice day.  *
