 Q-Chem 4.4, Q-Chem, Inc., Pleasanton, CA (2016)
 Q-Chem 4.4.2 for Intel X86 Linux

User input:
--------------------------------------------------------------
$comment
SP
$end

$rem
MEM_STATIC 5000
MEM_TOTAL 20000
JOBTYPE SP
EXCHANGE B3LYP
BASIS 6-31g(d,p)
$end

$molecule
0 1
C          11.328000     11.840000      1.095000
C          10.312000     11.926000      0.187000
N          11.141000     12.005000      2.438000
C           9.016000     12.333000      0.537000
C           9.938000     12.457000      2.786000
C           8.830000     12.589000      1.905000
C           7.421000     12.860000      2.384000
C           6.559000     13.745000      1.718000
C           6.961000     12.158000      3.493000
N           5.321000     14.039000      2.204000
N           7.626000     11.126000      4.131000
C           5.775000     12.457000      4.058000
C           4.976000     13.496000      3.428000
S           6.606000     10.576000      5.303000
N           5.439000     11.655000      5.083000
C           3.683000     13.955000      3.967000
S           2.165000     14.399000      3.044000
C           3.533000     14.158000      5.313000
C           1.413000     14.827000      4.561000
S           4.670000     14.044000      6.619000
C           2.362000     14.832000      5.582000
C           0.025000     15.255000      4.656000
C           3.463000     14.908000      7.697000
C           2.265000     15.130000      7.013000
N          -0.770000     14.951000      3.645000
S          -0.431000     16.602000      5.639000
C          -1.911000     15.722000      3.661000
C          -1.971000     16.612000      4.694000
C          12.628000     11.248000      0.740000
H          10.419000     11.521000     -0.816000
H           8.193000     12.298000     -0.171000
H           9.868000     12.548000      3.869000
H           6.918000     14.228000      0.810000
H           3.710000     14.854000      8.749000
H           1.330000     15.371000      7.506000
H          -2.746000     15.524000      3.001000
H          -2.675000     17.370000      5.014000
H          12.766000     11.483000     -0.323000
C          12.493000      9.684000      0.920000
H          13.425000     11.743000      1.310000
H          11.653000      9.319000      0.318000
H          12.290000      9.493000      1.981000
C          13.868000      8.960000      0.683000
H          14.326000      9.353000     -0.233000
C          13.629000      7.454000      0.608000
H          14.487000      9.197000      1.557000
H          12.904000      7.246000     -0.189000
H          13.278000      6.954000      1.519000
C          15.043000      6.823000      0.174000
H          15.420000      7.360000     -0.706000
C          15.018000      5.354000     -0.330000
H          15.768000      6.942000      0.989000
H          14.483000      5.182000     -1.272000
H          14.547000      4.676000      0.392000
H          16.041000      4.976000     -0.453000
C         -10.985000     13.248000      3.087000
C          -9.962000     12.844000      2.204000
N         -11.001000     14.478000      3.616000
C          -8.891000     13.750000      1.959000
C          -9.953000     15.244000      3.449000
C          -8.893000     15.008000      2.574000
C          -7.761000     15.995000      2.340000
C          -7.078000     16.088000      1.084000
C          -7.169000     16.759000      3.399000
N          -5.934000     16.769000      0.818000
N          -7.462000     16.722000      4.722000
C          -5.993000     17.496000      3.121000
C          -5.372000     17.384000      1.874000
S          -6.328000     17.690000      5.496000
N          -5.456000     18.142000      4.192000
C          -4.194000     18.275000      1.590000
S          -3.750000     19.866000      2.329000
C          -3.072000     17.802000      0.931000
C          -2.087000     19.793000      1.668000
S          -2.932000     16.208000      0.254000
C          -1.913000     18.526000      1.109000
C          -1.039000     20.748000      1.842000
C          -1.213000     16.620000      0.130000
C          -0.807000     17.857000      0.638000
N          -1.397000     22.021000      1.705000
S           0.708000     20.470000      2.018000
C          -0.301000     22.896000      1.914000
C           0.937000     22.218000      2.075000
C         -12.191000     12.333000      3.470000
H         -10.012000     11.849000      1.772000
H          -8.038000     13.338000      1.428000
H         -10.126000     16.152000      4.025000
H          -7.482000     15.478000      0.278000
H          -0.585000     15.813000     -0.222000
H           0.168000     18.312000      0.500000
H          -0.391000     23.967000      1.794000
H           1.928000     22.647000      2.146000
H         -13.031000     13.005000      3.685000
C         -11.896000     11.531000      4.767000
H         -12.476000     11.605000      2.700000
H         -11.640000     12.237000      5.568000
H         -11.047000     10.892000      4.495000
C         -13.003000     10.604000      5.268000
H         -13.014000      9.758000      4.570000
C         -14.465000     11.158000      5.320000
H         -12.684000     10.287000      6.268000
H         -14.706000     11.633000      4.361000
H         -14.458000     11.994000      6.029000
C         -15.519000     10.097000      5.758000
H         -15.437000      9.248000      5.068000
C         -16.965000     10.759000      5.609000
H         -15.280000      9.789000      6.783000
H         -16.912000     11.552000      6.365000
H         -17.758000     10.035000      5.834000
H         -17.155000     11.319000      4.685000
$end

--------------------------------------------------------------

             Standard Nuclear Orientation (Angstroms)
    I     Atom           X                Y                Z
 ----------------------------------------------------------------
    1      C     -11.8175247835     0.3272199194    -1.1049359508
    2      C     -10.8794508659     0.3025557126    -2.0966642412
    3      N     -11.4961071072     0.3863108891     0.2213528317
    4      C      -9.5055338872     0.1902507459    -1.8368475172
    5      C     -10.2045652696     0.2130169807     0.4943105266
    6      C      -9.1654735981     0.1640225666    -0.4747803079
    7      C      -7.6971820190     0.2225012734    -0.1158052678
    8      C      -6.7356360459    -0.5745645455    -0.7560711672
    9      C      -7.2954191674     1.1429299688     0.8463187511
   10      N      -5.4295393587    -0.5685869523    -0.3696106748
   11      N      -8.0950453826     2.1150405940     1.4206808739
   12      C      -6.0329305237     1.1455155607     1.3167842010
   13      C      -5.1002842794     0.1920491943     0.7372198205
   14      S      -7.1112424143     2.9979725665     2.4050826473
   15      N      -5.7784650965     2.1291483012     2.1968063474
   16      C      -3.7042229790     0.0547131690     1.1902128245
   17      S      -2.2070892081    -0.2293323054     0.1746845677
   18      C      -3.4113820939     0.0704990295     2.5279048752
   19      C      -1.2684203913    -0.2995438773     1.6457210008
   20      S      -4.4416122462     0.1554789768     3.9217503623
   21      C      -2.1143755571    -0.3356697126     2.7530248351
   22      C       0.1792884008    -0.4508421494     1.6467631311
   23      C      -3.0083750340    -0.3172360653     4.9647271514
   24      C      -1.8482018345    -0.4102492516     4.1916225697
   25      N       0.8175043292    -0.1502227199     0.5292344346
   26      S       0.9642480236    -1.5434164742     2.7324673889
   27      C       2.0838960667    -0.6912716070     0.5194329597
   28      C       2.3970362130    -1.4039761257     1.6404969712
   29      C     -13.2316039478     0.6182172639    -1.3916233458
   30      H     -11.1421720315     0.5386852414    -3.1246250550
   31      H      -8.7637576745     0.2759747354    -2.6256678058
   32      H     -10.0325294537     0.2869293542     1.5671621655
   33      H      -7.0651298222    -1.2356258622    -1.5567370070
   34      H      -3.1768716951    -0.1640539787     6.0224478724
   35      H      -0.8481021007    -0.4067706221     4.6101239693
   36      H       2.8096253311    -0.4380357908    -0.2429433621
   37      H       3.2577260195    -1.9697426789     1.9747143622
   38      H     -13.4053638566     0.2173283329    -2.3982680493
   39      C     -13.3884242424     2.1903139070    -1.4169322384
   40      H     -13.8697583814     0.0702889465    -0.6861678349
   41      H     -12.6855682749     2.6150667408    -2.1427473108
   42      H     -13.1427370218     2.5599019797    -0.4137107045
   43      C     -14.8920575843     2.6125126324    -1.5952718281
   44      H     -15.3364334128     2.0199743600    -2.4044056358
   45      C     -14.9561813593     4.1117746472    -1.8761339875
   46      H     -15.3820343404     2.3901603495    -0.6394014181
   47      H     -14.3508237790     4.3358070941    -2.7635175927
   48      H     -14.6375667827     4.7883477114    -1.0737278308
   49      C     -16.4955607299     4.4090970379    -2.2336581816
   50      H     -16.8299676280     3.6960641274    -2.9982849500
   51      C     -16.7958155000     5.7741116311    -2.9112895219
   52      H     -17.1167384612     4.2742020331    -1.3392575086
   53      H     -16.3807754089     5.9085109427    -3.9176947822
   54      H     -16.4093593133     6.6196491299    -2.3294588302
   55      H     -17.8791502970     5.9391928687    -2.9719187441
   56      C      10.4316441854     3.2870434521    -1.2904672135
   57      C       9.2829533984     3.3723247069    -2.1045130252
   58      N      10.7276542937     2.1656215116    -0.6212976930
   59      C       8.3918471508     2.2617424469    -2.1254581755
   60      C       9.8380956346     1.2063072207    -0.5845487667
   61      C       8.6864196277     1.1224105107    -1.3665492251
   62      C       7.7522373666    -0.0765957103    -1.3605006692
   63      C       7.0027253766    -0.4649774108    -2.5181126213
   64      C       7.4054799421    -0.7815269564    -0.1611374103
   65      N       5.9949649955    -1.3726771882    -2.5793754029
   66      N       7.7898109534    -0.5092763619     1.1099708807
   67      C       6.3763299276    -1.7512220516    -0.2241506631
   68      C       5.6484271520    -1.9275089713    -1.4040974717
   69      S       6.9299901769    -1.5507353393     2.1090341574
   70      N       6.0614361411    -2.3296165421     0.9670788348
   71      C       4.6466913884    -3.0483275006    -1.4542201642
   72      S       4.5795326920    -4.5757638764    -0.4862502126
   73      C       3.4056010403    -2.8828811342    -2.0451653798
   74      C       2.8868029061    -4.8983429479    -0.9745407146
   75      S       2.9060494576    -1.4500836937    -2.8915132461
   76      C       2.4267447903    -3.7737625385    -1.6613532311
   77      C       2.0609368390    -5.9944999063    -0.5783208742
   78      C       1.2951760477    -2.1807520494    -2.7852512526
   79      C       1.1782342353    -3.3885866175    -2.0920490680
   80      N       2.6468397724    -7.1877433163    -0.5970269430
   81      S       0.3127677299    -6.0170001638    -0.2563464893
   82      C       1.7613114308    -8.2098971695    -0.1709247761
   83      C       0.4321421812    -7.7525387952     0.0349427133
   84      C      11.4639647828     4.4500086951    -1.1484248688
   85      H       9.1047224143     4.2903675668    -2.6564007164
   86      H       7.4357723829     2.4343914906    -2.6106667346
   87      H      10.2289488557     0.4334087071     0.0757774007
   88      H       7.2155771218     0.0908485990    -3.4295420378
   89      H       0.4967647504    -1.5578942192    -3.1648886105
   90      H       0.3020847394    -4.0278422335    -2.0718421798
   91      H       2.0473578529    -9.2528334101    -0.1693619661
   92      H      -0.4481042691    -8.3404832956     0.2599992644
   93      H      12.4326381400     3.9781634687    -0.9424078565
   94      C      11.1230101511     5.3565844682     0.0657861124
   95      H      11.5404434653     5.1040685043    -2.0261866685
   96      H      11.0730849505     4.7335011309     0.9684752223
   97      H      10.1474081861     5.7867827102    -0.1915779844
   98      C      12.0655654758     6.5295607286     0.3331718867
   99      H      11.8569654332     7.2586640686    -0.4592518269
  100      C      13.6066401261     6.2630937511     0.2992857213
  101      H      11.7715675865     6.9185152811     1.3152765640
  102      H      13.8582429659     5.7118098331    -0.6151370762
  103      H      13.8180864186     5.5459744533     1.1009442384
  104      C      14.4664008196     7.5481833024     0.4938040882
  105      H      14.1669166047     8.2644122309    -0.2814057718
  106      C      15.9968090312     7.1458631419     0.2762030902
  107      H      14.2543572490     7.9463723578     1.4933504855
  108      H      16.1586718854     6.4687479289     1.1238524308
  109      H      16.6497654470     8.0259661307     0.3283245648
  110      H      16.2177940734     6.5073977016    -0.5880905478
 ----------------------------------------------------------------

    9   -5663.4756296655      7.38E-06 Convergence criterion met
 Total energy in the final basis set = -5663.4756296655

                    Orbital Energies (a.u.)
 --------------------------------------------------------------

 Alpha MOs
 -- Occupied --
-88.997 -88.993 -88.928 -88.926 -88.925 -88.922 -88.914 -88.908
-14.396 -14.389 -14.379 -14.376 -14.363 -14.351 -14.342 -14.340
-14.328 -14.326 -10.270 -10.268 -10.265 -10.265 -10.265 -10.261
-10.251 -10.249 -10.246 -10.241 -10.240 -10.239 -10.239 -10.238
-10.236 -10.236 -10.235 -10.235 -10.234 -10.229 -10.229 -10.227
-10.226 -10.225 -10.225 -10.224 -10.221 -10.220 -10.218 -10.217
-10.213 -10.212 -10.210 -10.210 -10.206 -10.204 -10.201 -10.192
-10.189 -10.186 -10.182 -10.181 -10.181 -10.181 -10.180 -10.179
-10.179 -10.178 -10.176 -10.170  -8.052  -8.048  -7.988  -7.984
 -7.984  -7.982  -7.974  -7.968  -6.017  -6.013  -6.012  -6.010
 -6.008  -6.006  -5.952  -5.948  -5.948  -5.948  -5.947  -5.945
 -5.945  -5.944  -5.943  -5.941  -5.941  -5.939  -5.938  -5.935
 -5.933  -5.930  -5.929  -5.924  -1.038  -1.035  -0.966  -0.965
 -0.952  -0.952  -0.946  -0.938  -0.916  -0.911  -0.904  -0.891
 -0.841  -0.837  -0.835  -0.831  -0.814  -0.811  -0.804  -0.804
 -0.799  -0.799  -0.796  -0.792  -0.782  -0.782  -0.766  -0.762
 -0.749  -0.746  -0.745  -0.736  -0.726  -0.718  -0.709  -0.708
 -0.693  -0.690  -0.678  -0.671  -0.657  -0.651  -0.649  -0.645
 -0.638  -0.630  -0.628  -0.625  -0.614  -0.604  -0.598  -0.596
 -0.593  -0.591  -0.588  -0.581  -0.579  -0.575  -0.575  -0.557
 -0.545  -0.543  -0.543  -0.539  -0.526  -0.518  -0.516  -0.514
 -0.511  -0.502  -0.500  -0.499  -0.489  -0.488  -0.480  -0.475
 -0.472  -0.472  -0.471  -0.468  -0.463  -0.461  -0.450  -0.448
 -0.446  -0.443  -0.437  -0.437  -0.435  -0.433  -0.430  -0.428
 -0.425  -0.423  -0.422  -0.418  -0.416  -0.415  -0.415  -0.414
 -0.411  -0.409  -0.405  -0.405  -0.403  -0.401  -0.398  -0.396
 -0.394  -0.394  -0.391  -0.391  -0.390  -0.386  -0.385  -0.382
 -0.377  -0.373  -0.372  -0.370  -0.366  -0.362  -0.359  -0.356
 -0.355  -0.353  -0.352  -0.349  -0.348  -0.344  -0.344  -0.338
 -0.337  -0.335  -0.331  -0.330  -0.330  -0.327  -0.324  -0.322
 -0.321  -0.313  -0.312  -0.304  -0.302  -0.301  -0.301  -0.298
 -0.294  -0.292  -0.291  -0.288  -0.286  -0.285  -0.284  -0.280
 -0.277  -0.276  -0.272  -0.261  -0.254  -0.254  -0.252  -0.252
 -0.247  -0.245  -0.235  -0.228  -0.196  -0.194

          Ground-State Mulliken Net Atomic Charges

     Atom                 Charge (a.u.)
  ----------------------------------------
      1 C                     0.247888
      2 C                    -0.110942
      3 N                    -0.457605
      4 C                    -0.074877
      5 C                     0.093205
      6 C                     0.021891
      7 C                     0.005046
      8 C                     0.071224
      9 C                     0.246487
     10 N                    -0.510951
     11 N                    -0.565692
     12 C                     0.221807
     13 C                     0.233671
     14 S                     0.620545
     15 N                    -0.544680
     16 C                    -0.200146
     17 S                     0.342944
     18 C                    -0.099697
     19 C                    -0.197784
     20 S                     0.253344
     21 C                     0.102884
     22 C                     0.058070
     23 C                    -0.304148
     24 C                    -0.070124
     25 N                    -0.437828
     26 S                     0.253959
     27 C                     0.136237
     28 C                    -0.315003
     29 C                    -0.225502
     30 H                     0.084677
     31 H                     0.106153
     32 H                     0.105212
     33 H                     0.114401
     34 H                     0.138635
     35 H                     0.116784
     36 H                     0.124836
     37 H                     0.150314
     38 H                     0.089253
     39 C                    -0.182229
     40 H                     0.112869
     41 H                     0.093355
     42 H                     0.119178
     43 C                    -0.172529
     44 H                     0.094623
     45 C                    -0.175445
     46 H                     0.101237
     47 H                     0.092474
     48 H                     0.098141
     49 C                    -0.178600
     50 H                     0.094778
     51 C                    -0.327297
     52 H                     0.095738
     53 H                     0.101243
     54 H                     0.096867
     55 H                     0.098817
     56 C                     0.260505
     57 C                    -0.118952
     58 N                    -0.462104
     59 C                    -0.094683
     60 C                     0.083426
     61 C                     0.048311
     62 C                     0.030665
     63 C                     0.049630
     64 C                     0.251671
     65 N                    -0.467334
     66 N                    -0.566242
     67 C                     0.192238
     68 C                     0.231144
     69 S                     0.612570
     70 N                    -0.548942
     71 C                    -0.190331
     72 S                     0.338744
     73 C                    -0.128732
     74 C                    -0.204871
     75 S                     0.270278
     76 C                     0.163626
     77 C                     0.028656
     78 C                    -0.301029
     79 C                    -0.078833
     80 N                    -0.419213
     81 S                     0.271262
     82 C                     0.107879
     83 C                    -0.308174
     84 C                    -0.225286
     85 H                     0.093425
     86 H                     0.109217
     87 H                     0.110304
     88 H                     0.112912
     89 H                     0.130874
     90 H                     0.121235
     91 H                     0.120765
     92 H                     0.138515
     93 H                     0.122268
     94 C                    -0.179648
     95 H                     0.093418
     96 H                     0.107065
     97 H                     0.091004
     98 C                    -0.179232
     99 H                     0.085713
    100 C                    -0.178932
    101 H                     0.092982
    102 H                     0.094798
    103 H                     0.091192
    104 C                    -0.177973
    105 H                     0.094968
    106 C                    -0.322761
    107 H                     0.099990
    108 H                     0.105483
    109 H                     0.101187
    110 H                     0.107646
  ----------------------------------------
  Sum of atomic charges =     0.000000

                    Cartesian Multipole Moments
 -----------------------------------------------------------------
    Charge (ESU x 10^10)
                 0.0000
    Dipole Moment (Debye)
         X      -0.7280      Y       1.6653      Z       0.8178
       Tot       1.9930
    Quadrupole Moments (Debye-Ang)
        XX    -457.5111     XY      17.5206     YY    -430.2187
        XZ      15.6251     YZ     -12.5821     ZZ    -425.2814

 Total job time:  87.29s(wall), 940.84s(cpu)
        *  Thank you very much for using Q-Chem.  Have a nice day.  *
