 Q-Chem 4.4, Q-Chem, Inc., Pleasanton, CA (2016)
 Q-Chem 4.4.2 for Intel X86 Linux

User input:
--------------------------------------------------------------
$comment
SP
$end

$rem
MEM_STATIC 5000
MEM_TOTAL 20000
JOBTYPE SP
EXCHANGE B3LYP
BASIS 6-31g(d,p)
$end

$molecule
0 1
C           1.660000     19.364000     10.275000
C           2.955000     19.706000     10.345000
N           1.173000     18.657000      9.271000
C           3.882000     19.380000      9.378000
C           2.051000     18.337000      8.292000
C           3.432000     18.658000      8.255000
C           4.375000     18.176000      7.140000
C           5.651000     17.692000      7.391000
C           3.960000     18.113000      5.781000
N           6.467000     17.141000      6.471000
N           2.748000     18.528000      5.360000
C           4.885000     17.685000      4.809000
C           6.156000     17.148000      5.145000
S           2.842000     18.124000      3.727000
N           4.347000     17.690000      3.592000
C           7.163000     16.507000      4.237000
S           8.390000     15.417000      4.873000
C           7.484000     16.860000      2.960000
C           9.404000     15.772000      3.430000
S           6.761000     18.063000      1.924000
C           8.671000     16.406000      2.506000
C          10.763000     15.306000      3.380000
C           7.988000     17.745000      0.658000
C           9.066000     16.951000      1.226000
N          11.425000     15.278000      2.245000
S          11.665000     14.717000      4.801000
C          12.717000     14.700000      2.391000
C          12.991000     14.298000      3.686000
C           0.655000     19.571000     11.391000
H           3.318000     20.161000     11.262000
H           4.925000     19.631000      9.552000
H           1.688000     17.706000      7.482000
H           6.012000     17.683000      8.418000
H           7.943000     18.337000     -0.246000
H           9.941000     16.695000      0.641000
H          13.384000     14.538000      1.554000
H          13.977000     13.989000      4.007000
H           0.360000     20.616000     11.547000
C           1.039000     19.002000     12.785000
H          -0.354000     19.252000     11.100000
H           0.273000     19.385000     13.470000
H           2.058000     19.280000     13.082000
C           0.848000     17.468000     12.710000
H          -0.163000     17.234000     12.354000
C           0.949000     16.914000     14.164000
H           1.606000     17.066000     12.027000
H           0.127000     17.360000     14.738000
H           1.874000     17.171000     14.695000
C           0.736000     15.443000     14.309000
H          -0.196000     15.067000     13.870000
C           0.715000     15.030000     15.805000
H           1.559000     14.903000     13.825000
H           0.835000     13.943000     15.890000
H          -0.240000     15.336000     16.250000
H           1.589000     15.541000     16.228000
C         -10.985000     13.248000      3.087000
C          -9.962000     12.844000      2.204000
N         -11.001000     14.478000      3.616000
C          -8.891000     13.750000      1.959000
C          -9.953000     15.244000      3.449000
C          -8.893000     15.008000      2.574000
C          -7.761000     15.995000      2.340000
C          -7.078000     16.088000      1.084000
C          -7.169000     16.759000      3.399000
N          -5.934000     16.769000      0.818000
N          -7.462000     16.722000      4.722000
C          -5.993000     17.496000      3.121000
C          -5.372000     17.384000      1.874000
S          -6.328000     17.690000      5.496000
N          -5.456000     18.142000      4.192000
C          -4.194000     18.275000      1.590000
S          -3.750000     19.866000      2.329000
C          -3.072000     17.802000      0.931000
C          -2.087000     19.793000      1.668000
S          -2.932000     16.208000      0.254000
C          -1.913000     18.526000      1.109000
C          -1.039000     20.748000      1.842000
C          -1.213000     16.620000      0.130000
C          -0.807000     17.857000      0.638000
N          -1.397000     22.021000      1.705000
S           0.708000     20.470000      2.018000
C          -0.301000     22.896000      1.914000
C           0.937000     22.218000      2.075000
C         -12.191000     12.333000      3.470000
H         -10.012000     11.849000      1.772000
H          -8.038000     13.338000      1.428000
H         -10.126000     16.152000      4.025000
H          -7.482000     15.478000      0.278000
H          -0.585000     15.813000     -0.222000
H           0.168000     18.312000      0.500000
H          -0.391000     23.967000      1.794000
H           1.928000     22.647000      2.146000
H         -13.031000     13.005000      3.685000
C         -11.896000     11.531000      4.767000
H         -12.476000     11.605000      2.700000
H         -11.640000     12.237000      5.568000
H         -11.047000     10.892000      4.495000
C         -13.003000     10.604000      5.268000
H         -13.014000      9.758000      4.570000
C         -14.465000     11.158000      5.320000
H         -12.684000     10.287000      6.268000
H         -14.706000     11.633000      4.361000
H         -14.458000     11.994000      6.029000
C         -15.519000     10.097000      5.758000
H         -15.437000      9.248000      5.068000
C         -16.965000     10.759000      5.609000
H         -15.280000      9.789000      6.783000
H         -16.912000     11.552000      6.365000
H         -17.758000     10.035000      5.834000
H         -17.155000     11.319000      4.685000
$end

--------------------------------------------------------------

             Standard Nuclear Orientation (Angstroms)
    I     Atom           X                Y                Z
 ----------------------------------------------------------------
    1      C      -2.6712627055    -5.3383451571    -2.6284977357
    2      C      -4.0052856284    -5.3344185166    -2.7672652492
    3      N      -2.0344996707    -4.4153663191    -1.9301590629
    4      C      -4.8244327732    -4.3672426569    -2.2248052861
    5      C      -2.8056399269    -3.4374188722    -1.4003605197
    6      C      -4.2162612716    -3.3257637942    -1.4965455775
    7      C      -5.0202299595    -2.2239046401    -0.7863774612
    8      C      -6.2170839983    -2.4710024247    -0.1291742245
    9      C      -4.5367511424    -0.8902608362    -0.6828524016
   10      N      -6.8943106601    -1.5735548850     0.6136642252
   11      N      -3.3844276929    -0.4775326339    -1.2487288005
   12      C      -5.3380094998     0.0731648190    -0.0398990196
   13      C      -6.5257970607    -0.2632475803     0.6620222065
   14      S      -3.3379658270     1.1175340635    -0.7080398641
   15      N      -4.7502915607     1.2669437980    -0.0337856440
   16      C      -7.3782708019     0.6211862829     1.5225216326
   17      S      -8.4517994827    -0.0624318651     2.7383865097
   18      C      -7.6890313141     1.9338403954     1.3256813801
   19      C      -9.4390072389     1.4395580345     2.6614632524
   20      S      -7.1114179919     3.0427261081     0.1091414810
   21      C      -8.7693525106     2.3882595829     1.9947182360
   22      C     -10.7063294314     1.4965806699     3.3376140341
   23      C      -8.2137665916     4.3186543808     0.7143221213
   24      C      -9.1825209804     3.7227510906     1.6207206004
   25      N     -11.3017955878     2.6472259927     3.5582685101
   26      S     -11.5731788739     0.0626100171     3.9475863374
   27      C     -12.4950325297     2.4972564734     4.3187675197
   28      C     -12.7648470313     1.1830072003     4.6558935833
   29      C      -1.7638773171    -6.4666839938    -3.0777562653
   30      H      -4.4768173096    -6.1964294060    -3.2301670749
   31      H      -5.9006601490    -4.4832828126    -2.3217347340
   32      H      -2.3121093423    -2.6969011855    -0.7725937494
   33      H      -6.6205154498    -3.4820153860    -0.1442359656
   34      H      -8.2176470279     5.2675660710     0.1954227606
   35      H      -9.9791494344     4.3136863828     2.0561107549
   36      H     -13.0889129854     3.3399501626     4.6487301698
   37      H     -13.7056813841     0.8710757454     5.0897685516
   38      H      -1.6407146017    -6.5434608359    -4.1651026968
   39      C      -2.1212668756    -7.8899080059    -2.5667189724
   40      H      -0.7052282537    -6.2387386699    -2.8993575825
   41      H      -1.4564650694    -8.5658862219    -3.1178650600
   42      H      -3.1837670298    -8.1269648335    -2.7036550262
   43      C      -1.6934154821    -7.9520449018    -1.0806691108
   44      H      -0.6427875310    -7.6522249346    -0.9811608420
   45      C      -1.7766279547    -9.4434883800    -0.6335617011
   46      H      -2.3474953472    -7.2799469555    -0.5122318842
   47      H      -1.0609954293   -10.0055128940    -1.2468108628
   48      H      -2.7541770598    -9.9185809540    -0.7829598046
   49      C      -1.3471389848    -9.7201084982     0.7697399539
   50      H      -0.3487350981    -9.3469736922     1.0279667835
   51      C      -1.3335965474   -11.2456049253     1.0555777630
   52      H      -2.0535609418    -9.2556520530     1.4686199359
   53      H      -1.2889650632   -11.4184067122     2.1378631103
   54      H      -0.4590815673   -11.6956387249     0.5693893955
   55      H      -2.2947505750   -11.5933421595     0.6565943658
   56      C      11.0888205379     0.8646980294     1.9705444864
   57      C      10.1829443306     1.7449104896     2.5982771700
   58      N      10.8905578546     0.4418051724     0.7156139944
   59      C       8.9981924872     2.1026848700     1.8938181136
   60      C       9.7463418459     0.7092289176     0.1392432232
   61      C       8.7777456366     1.5970131881     0.6067701983
   62      C       7.5198173636     1.9528117357    -0.1687121377
   63      C       6.8907410867     3.2349447620    -0.0543795488
   64      C       6.7680611560     0.9835196069    -0.9109899654
   65      N       5.6695164670     3.5970410404    -0.5242196423
   66      N       7.0004401320    -0.3471468573    -1.0244526133
   67      C       5.5072119628     1.3634220410    -1.4299913647
   68      C       4.9704146436     2.6170523782    -1.1242895236
   69      S       5.6958429896    -0.9966527912    -1.8600508051
   70      N       4.8273111516     0.3702676220    -2.0656840474
   71      C       3.6842032498     3.0160738043    -1.7941127480
   72      S       2.9665171126     2.4305555193    -3.3486650780
   73      C       2.6806403603     3.6707791840    -1.1004872060
   74      C       1.3676044950     3.1398443732    -2.9636887632
   75      S       2.8194591241     4.2144142099     0.5438835884
   76      C       1.4170278726     3.5949104635    -1.6451599683
   77      C       0.1782289147     3.0837494582    -3.7528934829
   78      C       1.0653584044     4.4320690923     0.4180344034
   79      C       0.4505036625     4.0452142664    -0.7758525217
   80      N       0.3423659941     3.3159290499    -5.0515903899
   81      S      -1.5116173625     2.9450460165    -3.2186183527
   82      C      -0.8837412612     3.2198418903    -5.7572462950
   83      C      -2.0090183220     3.0445854239    -4.9079608851
   84      C      12.4016801115     0.3640910879     2.6518244802
   85      H      10.4056437163     2.0888912206     3.6038771105
   86      H       8.2447059751     2.6258445358     2.4750891692
   87      H       9.7503110661     0.2067879040    -0.8270415553
   88      H       7.4213211915     3.9718503973     0.5459593864
   89      H       0.5862044644     4.7356961063     1.3387727692
   90      H      -0.5752278177     4.2548407285    -1.0597991308
   91      H      -0.9538696173     3.4271710643    -6.8163202430
   92      H      -3.0564177071     3.0444344293    -5.1802061888
   93      H      13.1172977348     0.1781252129     1.8414436373
   94      C      12.1725292456    -0.9853885812     3.3858765923
   95      H      12.8312463603     1.0592272598     3.3841956569
   96      H      11.7735028904    -1.7142609157     2.6681746432
   97      H      11.4456487907    -0.7395506722     4.1696587858
   98      C      13.3839477287    -1.6011088791     4.0852568707
   99      H      13.5578167513    -0.9782531550     4.9711808573
  100      C      14.7393083375    -1.6561983861     3.3061376459
  101      H      13.0705884072    -2.6128324369     4.3689316463
  102      H      14.9494595158    -0.6692013835     2.8759511757
  103      H      14.5704047661    -2.2909946355     2.4285663923
  104      C      15.9219899435    -2.2187358202     4.1507066804
  105      H      16.0041525105    -1.6008986058     5.0535640828
  106      C      17.2544526200    -2.0639500633     3.2835587201
  107      H      15.6850251499    -3.2573449655     4.4109925422
  108      H      17.0445371498    -2.7476154734     2.4518549853
  109      H      18.1377915345    -2.3767826421     3.8540831627
  110      H      17.3995486793    -1.1028326861     2.7749562025
 ----------------------------------------------------------------

   10   -5663.4855811604      3.48E-06 Convergence criterion met
 Total energy in the final basis set = -5663.4855811604

                    Orbital Energies (a.u.)
 --------------------------------------------------------------

 Alpha MOs
 -- Occupied --
-88.991 -88.987 -88.928 -88.927 -88.924 -88.922 -88.912 -88.908
-14.389 -14.388 -14.385 -14.383 -14.359 -14.349 -14.346 -14.341
-14.326 -14.325 -10.272 -10.270 -10.267 -10.266 -10.260 -10.259
-10.257 -10.255 -10.245 -10.243 -10.241 -10.239 -10.238 -10.237
-10.237 -10.237 -10.236 -10.235 -10.235 -10.234 -10.232 -10.230
-10.230 -10.228 -10.224 -10.223 -10.222 -10.221 -10.220 -10.219
-10.218 -10.212 -10.210 -10.208 -10.204 -10.202 -10.202 -10.190
-10.187 -10.185 -10.183 -10.180 -10.178 -10.177 -10.177 -10.176
-10.175 -10.172 -10.170 -10.169  -8.046  -8.043  -7.988  -7.987
 -7.983  -7.980  -7.973  -7.969  -6.012  -6.008  -6.006  -6.004
 -6.002  -6.001  -5.952  -5.951  -5.949  -5.948  -5.947  -5.945
 -5.944  -5.944  -5.944  -5.941  -5.940  -5.937  -5.936  -5.934
 -5.933  -5.929  -5.929  -5.924  -1.049  -1.029  -0.961  -0.960
 -0.955  -0.952  -0.950  -0.947  -0.923  -0.914  -0.913  -0.898
 -0.841  -0.839  -0.831  -0.828  -0.810  -0.810  -0.806  -0.803
 -0.801  -0.797  -0.796  -0.795  -0.785  -0.780  -0.771  -0.764
 -0.752  -0.747  -0.744  -0.744  -0.727  -0.717  -0.706  -0.705
 -0.693  -0.691  -0.675  -0.674  -0.655  -0.651  -0.648  -0.645
 -0.636  -0.635  -0.628  -0.627  -0.613  -0.612  -0.599  -0.596
 -0.592  -0.591  -0.587  -0.587  -0.579  -0.573  -0.568  -0.556
 -0.555  -0.545  -0.543  -0.539  -0.523  -0.523  -0.513  -0.512
 -0.508  -0.507  -0.501  -0.498  -0.487  -0.486  -0.479  -0.477
 -0.477  -0.475  -0.470  -0.467  -0.463  -0.461  -0.448  -0.447
 -0.446  -0.444  -0.441  -0.437  -0.436  -0.435  -0.431  -0.430
 -0.428  -0.424  -0.424  -0.420  -0.416  -0.413  -0.413  -0.412
 -0.410  -0.409  -0.406  -0.405  -0.403  -0.402  -0.397  -0.397
 -0.394  -0.394  -0.392  -0.391  -0.390  -0.388  -0.387  -0.383
 -0.378  -0.375  -0.372  -0.370  -0.365  -0.364  -0.360  -0.357
 -0.355  -0.353  -0.351  -0.349  -0.346  -0.345  -0.343  -0.342
 -0.339  -0.335  -0.333  -0.330  -0.328  -0.327  -0.322  -0.321
 -0.316  -0.313  -0.311  -0.307  -0.304  -0.300  -0.298  -0.298
 -0.296  -0.294  -0.291  -0.287  -0.286  -0.284  -0.283  -0.279
 -0.275  -0.274  -0.270  -0.270  -0.255  -0.253  -0.253  -0.250
 -0.248  -0.242  -0.237  -0.233  -0.196  -0.194

          Ground-State Mulliken Net Atomic Charges

     Atom                 Charge (a.u.)
  ----------------------------------------
      1 C                     0.295435
      2 C                    -0.109949
      3 N                    -0.483725
      4 C                    -0.079183
      5 C                     0.092039
      6 C                     0.030938
      7 C                     0.035955
      8 C                     0.061646
      9 C                     0.223962
     10 N                    -0.518299
     11 N                    -0.559640
     12 C                     0.191857
     13 C                     0.287940
     14 S                     0.603980
     15 N                    -0.516708
     16 C                    -0.217096
     17 S                     0.303481
     18 C                    -0.102566
     19 C                    -0.227251
     20 S                     0.266479
     21 C                     0.180575
     22 C                     0.076005
     23 C                    -0.300779
     24 C                    -0.080451
     25 N                    -0.451708
     26 S                     0.254737
     27 C                     0.115244
     28 C                    -0.299825
     29 C                    -0.248730
     30 H                     0.083018
     31 H                     0.100044
     32 H                     0.107988
     33 H                     0.109598
     34 H                     0.136586
     35 H                     0.133322
     36 H                     0.122109
     37 H                     0.133258
     38 H                     0.095934
     39 C                    -0.180207
     40 H                     0.117620
     41 H                     0.095734
     42 H                     0.094414
     43 C                    -0.165093
     44 H                     0.100418
     45 C                    -0.164359
     46 H                     0.099916
     47 H                     0.086247
     48 H                     0.084687
     49 C                    -0.179852
     50 H                     0.088485
     51 C                    -0.315174
     52 H                     0.088336
     53 H                     0.098479
     54 H                     0.103090
     55 H                     0.098444
     56 C                     0.260277
     57 C                    -0.119473
     58 N                    -0.462609
     59 C                    -0.094091
     60 C                     0.083632
     61 C                     0.047918
     62 C                     0.031010
     63 C                     0.049355
     64 C                     0.250473
     65 N                    -0.470878
     66 N                    -0.569672
     67 C                     0.189799
     68 C                     0.240982
     69 S                     0.615932
     70 N                    -0.537642
     71 C                    -0.190924
     72 S                     0.349336
     73 C                    -0.125152
     74 C                    -0.205501
     75 S                     0.279945
     76 C                     0.158364
     77 C                     0.025842
     78 C                    -0.307470
     79 C                    -0.087428
     80 N                    -0.417448
     81 S                     0.267870
     82 C                     0.110940
     83 C                    -0.313087
     84 C                    -0.225538
     85 H                     0.092157
     86 H                     0.108220
     87 H                     0.110675
     88 H                     0.110850
     89 H                     0.122124
     90 H                     0.117252
     91 H                     0.121223
     92 H                     0.137675
     93 H                     0.122015
     94 C                    -0.178932
     95 H                     0.092819
     96 H                     0.107242
     97 H                     0.090547
     98 C                    -0.179329
     99 H                     0.085382
    100 C                    -0.179065
    101 H                     0.092699
    102 H                     0.094823
    103 H                     0.091354
    104 C                    -0.177607
    105 H                     0.094694
    106 C                    -0.322842
    107 H                     0.099818
    108 H                     0.105533
    109 H                     0.100906
    110 H                     0.107602
  ----------------------------------------
  Sum of atomic charges =     0.000000

                    Cartesian Multipole Moments
 -----------------------------------------------------------------
    Charge (ESU x 10^10)
                 0.0000
    Dipole Moment (Debye)
         X      -4.0243      Y      -0.4140      Z       2.0879
       Tot       4.5525
    Quadrupole Moments (Debye-Ang)
        XX    -400.5641     XY      -8.7547     YY    -435.9776
        XZ      18.0666     YZ      16.0440     ZZ    -432.4166

 Total job time:  91.46s(wall), 963.25s(cpu)
        *  Thank you very much for using Q-Chem.  Have a nice day.  *
