 Q-Chem 4.4, Q-Chem, Inc., Pleasanton, CA (2016)
 Q-Chem 4.4.2 for Intel X86 Linux

User input:
--------------------------------------------------------------
$comment
SP
$end

$rem
MEM_STATIC 5000
MEM_TOTAL 20000
JOBTYPE SP
EXCHANGE B3LYP
BASIS 6-31g(d,p)
$end

$molecule
0 1
C          19.761000    -27.020000     13.724000
C          20.941000    -26.226000     13.557000
N          18.823000    -27.095000     12.738000
C          21.022000    -25.467000     12.434000
C          18.897000    -26.391000     11.650000
C          20.001000    -25.515000     11.449000
C          20.060000    -24.646000     10.275000
C          18.843000    -24.107000      9.824000
C          21.252000    -24.482000      9.509000
N          18.817000    -23.235000      8.779000
N          22.428000    -25.149000      9.681000
C          21.165000    -23.663000      8.371000
C          19.947000    -22.986000      8.064000
S          23.463000    -24.517000      8.562000
N          22.347000    -23.572000      7.738000
C          19.879000    -21.974000      6.991000
S          20.814000    -22.011000      5.486000
C          19.357000    -20.694000      7.193000
C          20.441000    -20.288000      5.224000
S          18.638000    -19.945000      8.680000
C          19.802000    -19.783000      6.308000
C          20.688000    -19.555000      3.969000
C          18.915000    -18.345000      7.893000
C          19.448000    -18.439000      6.671000
N          21.459000    -20.060000      3.074000
S          20.114000    -17.923000      3.574000
C          21.652000    -19.289000      2.009000
C          21.205000    -17.960000      2.142000
C          19.280000    -27.624000     15.043000
H          21.636000    -26.125000     14.384000
H          21.800000    -24.723000     12.289000
H          18.021000    -26.520000     11.017000
H          17.939000    -24.352000     10.380000
H          18.521000    -17.453000      8.361000
H          19.722000    -17.610000      6.028000
H          22.174000    -19.773000      1.194000
H          21.396000    -17.060000      1.574000
H          18.431000    -28.317000     14.986000
C          18.992000    -26.425000     16.068000
H          20.039000    -28.338000     15.385000
H          19.883000    -25.847000     16.347000
H          18.759000    -26.886000     17.036000
C          17.782000    -25.564000     15.628000
H          17.492000    -24.851000     16.410000
C          16.521000    -26.234000     15.193000
H          18.154000    -24.880000     14.856000
H          16.096000    -26.833000     16.008000
H          16.761000    -26.954000     14.400000
C          15.424000    -25.275000     14.653000
H          14.461000    -25.787000     14.766000
C          15.670000    -24.996000     13.175000
H          15.294000    -24.351000     15.229000
H          15.465000    -25.904000     12.595000
H          16.676000    -24.606000     12.974000
H          14.945000    -24.301000     12.733000
C           5.474000    -21.715000     -4.396000
C           6.478000    -22.584000     -4.493000
N           5.679000    -20.484000     -3.906000
C           7.760000    -22.259000     -4.036000
C           6.910000    -20.085000     -3.587000
C           8.036000    -20.907000     -3.694000
C           9.502000    -20.417000     -3.419000
C          10.524000    -21.222000     -2.795000
C           9.971000    -19.125000     -3.669000
N          11.799000    -20.900000     -2.602000
N           9.130000    -18.068000     -3.886000
C          11.312000    -18.724000     -3.560000
C          12.208000    -19.703000     -3.062000
S          10.107000    -16.786000     -4.047000
N          11.579000    -17.467000     -3.750000
C          13.633000    -19.528000     -2.671000
S          14.462000    -20.393000     -1.335000
C          14.556000    -18.856000     -3.437000
C          16.031000    -19.810000     -1.872000
S          14.251000    -18.224000     -4.941000
C          15.895000    -19.003000     -2.943000
C          17.276000    -20.011000     -1.119000
C          15.977000    -17.846000     -4.932000
C          16.719000    -18.335000     -3.867000
N          18.329000    -19.259000     -1.286000
S          17.442000    -21.242000      0.069000
C          19.314000    -19.495000     -0.385000
C          18.935000    -20.439000      0.524000
C           4.073000    -22.137000     -4.784000
H           6.299000    -23.543000     -4.971000
H           8.494000    -23.057000     -4.095000
H           7.085000    -19.067000     -3.241000
H          10.194000    -22.219000     -2.508000
H          16.401000    -17.290000     -5.758000
H          17.802000    -18.351000     -3.813000
H          20.111000    -18.763000     -0.401000
H          19.428000    -20.686000      1.455000
H           4.106000    -22.968000     -5.499000
C           3.163000    -21.018000     -5.480000
H           3.598000    -22.657000     -3.943000
H           3.832000    -20.521000     -6.194000
H           2.818000    -20.337000     -4.692000
C           1.893000    -21.654000     -5.979000
H           2.141000    -22.416000     -6.729000
C           0.925000    -20.679000     -6.713000
H           1.323000    -22.089000     -5.148000
H           1.539000    -20.031000     -7.350000
H           0.544000    -20.015000     -5.927000
C          -0.190000    -21.429000     -7.607000
H          -0.931000    -20.687000     -7.929000
C          -0.996000    -22.491000     -6.792000
H           0.309000    -21.865000     -8.481000
H          -1.891000    -22.894000     -7.281000
H          -1.335000    -22.021000     -5.860000
H          -0.367000    -23.328000     -6.465000
$end

--------------------------------------------------------------

             Standard Nuclear Orientation (Angstroms)
    I     Atom           X                Y                Z
 ----------------------------------------------------------------
    1      C      12.1458942813    -4.6280529952    -1.1553381093
    2      C      12.6011162331    -3.2976508201    -0.8841775903
    3      N      10.8277832674    -4.8818200801    -1.3916654706
    4      C      11.6534464595    -2.3335629778    -0.7567898653
    5      C       9.9128188500    -3.9663543616    -1.2936928566
    6      C      10.2794182192    -2.6353546356    -0.9463635723
    7      C       9.2584248551    -1.6094028682    -0.7416356518
    8      C       8.0572833905    -2.0221491368    -0.1400455091
    9      C       9.3852115069    -0.2927348673    -1.2753270609
   10      N       7.0810153582    -1.1183037277     0.1481370816
   11      N      10.3730357780     0.1602824715    -2.0977791874
   12      C       8.3103996257     0.5848580035    -1.0562741605
   13      C       7.1919383513     0.1702259449    -0.2731862768
   14      S      10.0450589003     1.7584841208    -2.3447460997
   15      N       8.5459626477     1.7952934280    -1.5905495069
   16      C       6.1417188759     1.1250023233     0.1336774852
   17      S       5.5851063600     2.5071391476    -0.8257490655
   18      C       5.7281336767     1.2717673038     1.4599863948
   19      C       4.8271618575     3.1999389836     0.6309768930
   20      S       6.2700738372     0.4037842967     2.9573298296
   21      C       5.1586704391     2.4631355407     1.7198408638
   22      C       3.8871617246     4.3355985630     0.6312413878
   23      C       5.5399998617     1.7619258398     3.8946352970
   24      C       4.9597068011     2.6874559191     3.1246592999
   25      N       3.7813532996     5.0790544255    -0.4111447967
   26      S       2.9205145388     4.9001958735     2.0081030712
   27      C       2.9450731574     6.1033496610    -0.2793502808
   28      C       2.5163043084     6.3617387303     1.0371341904
   29      C      12.9647319656    -5.9024052359    -0.9516981981
   30      H      13.6424595812    -3.1333339217    -0.6277424361
   31      H      11.8851986764    -1.3321649832    -0.4055948109
   32      H       8.9118828693    -4.3690771116    -1.4373854074
   33      H       7.9650722533    -3.0677163672     0.1509240305
   34      H       5.4818273025     1.6863845536     4.9720551165
   35      H       4.4836104610     3.5985371476     3.4696654884
   36      H       2.7414514609     6.6368067925    -1.1985492221
   37      H       2.0322074811     7.2110634317     1.4990896139
   38      H      12.5256022495    -6.8347438242    -1.3288040841
   39      C      13.3376597607    -6.0155581759     0.6037089099
   40      H      13.8317373057    -5.8583221265    -1.6219216084
   41      H      13.9935103067    -5.2142538513     0.9691913866
   42      H      14.0164959767    -6.8716461301     0.7043508815
   43      C      12.0881106814    -6.2712384359     1.4825010941
   44      H      12.3672716097    -6.5074653156     2.5170343403
   45      C      11.1012897178    -7.3139414658     1.0735991777
   46      H      11.6023169171    -5.2978538064     1.6194345881
   47      H      11.5707267914    -8.3050729699     1.0429695271
   48      H      10.7840374165    -7.1124809431     0.0422827204
   49      C       9.8272866604    -7.3915258718     1.9599325629
   50      H       9.4122590373    -8.3998098920     1.8441853968
   51      C       8.8032744746    -6.3721045113     1.4751438118
   52      H      10.0091364431    -7.3096742124     3.0382103390
   53      H       8.4072721183    -6.6893510682     0.5028137464
   54      H       9.2012533627    -5.3500398130     1.4359831551
   55      H       7.8849550294    -6.3530047490     2.0754259085
   56      C     -11.5131306673    -3.8702101740    -0.6337954559
   57      C     -10.7983398677    -3.5136498295    -1.6989362136
   58      N     -11.2468724454    -3.3524746272     0.5739058577
   59      C      -9.7162616296    -2.6344548000    -1.5801052978
   60      C     -10.3154504226    -2.4088115014     0.7090943204
   61      C      -9.5414084527    -1.9352876300    -0.3546928632
   62      C      -8.5147539416    -0.7543274707    -0.2274347905
   63      C      -7.2526934218    -0.6964136414    -0.9243811534
   64      C      -8.6587844783     0.3384412240     0.6309571855
   65      N      -6.3751352183     0.3018083982    -0.9228452772
   66      N      -9.5467789705     0.3423145659     1.6716635701
   67      C      -7.8191001279     1.4634833952     0.6441217107
   68      C      -6.6980814095     1.4042241415    -0.2213644959
   69      S      -9.3057099224     1.7595416202     2.4182070655
   70      N      -8.0363296541     2.3628224754     1.5559542346
   71      C      -5.5488970303     2.3462310560    -0.2996539316
   72      S      -3.8539290740     1.8948707766    -0.6787575130
   73      C      -5.6856155348     3.7140514226    -0.3250408374
   74      C      -3.3983848086     3.5829441085    -0.8601599617
   75      S      -7.1386367876     4.5150059007    -0.3658594975
   76      C      -4.4504078480     4.3869486811    -0.6079493915
   77      C      -2.0143724604     4.0374716179    -1.0481747572
   78      C      -6.1314953962     5.9580933044    -0.5246233573
   79      C      -4.7679984767     5.7555590736    -0.6787857256
   80      N      -1.6300601752     5.2544506606    -0.7771248042
   81      S      -0.7742703191     2.9927800110    -1.6182862600
   82      C      -0.2883576886     5.4312408852    -0.8565077617
   83      C       0.3466122970     4.2606349297    -1.1524010102
   84      C     -12.5982433760    -4.9166529052    -0.7713346124
   85      H     -11.0909534742    -3.8853000706    -2.6769236243
   86      H      -9.1537543522    -2.4588677263    -2.4921336650
   87      H     -10.1368910556    -1.9484816555     1.6801133652
   88      H      -7.0501881678    -1.5610868950    -1.5541507832
   89      H      -6.6017558791     6.9327373816    -0.5352064080
   90      H      -4.0512314992     6.5144500395    -0.9727085077
   91      H       0.0555631668     6.3793038541    -0.4638449901
   92      H       1.4076249507     4.0578016605    -1.0897127859
   93      H     -12.9636875586    -4.9579428214    -1.8045919339
   94      C     -13.9050877362    -4.7050888220     0.1298176817
   95      H     -12.1550873140    -5.9181763514    -0.7091293775
   96      H     -14.1268126014    -3.6332766202     0.0496760052
   97      H     -13.6494519015    -5.0000323888     1.1551901078
   98      C     -14.9526170217    -5.7073287379    -0.2758848531
   99      H     -15.2242317028    -5.5409760959    -1.3262182590
  100      C     -16.2970477536    -5.5904115154     0.5020877494
  101      H     -14.5922049522    -6.7321112701    -0.1190094190
  102      H     -16.5230460838    -4.5217703074     0.6000659268
  103      H     -16.0620660688    -5.9190416855     1.5222048109
  104      C     -17.5270174407    -6.3469463022    -0.2188773575
  105      H     -18.3729497358    -6.3737078875     0.4789846414
  106      C     -17.2063425115    -7.8428473923    -0.5369221947
  107      H     -17.7988985418    -5.7788145851    -1.1168083230
  108      H     -18.0575755968    -8.4617359496    -0.8450361153
  109      H     -16.7974340641    -8.3049128472     0.3706759526
  110      H     -16.4081411407    -7.9467839292    -1.2820468607
 ----------------------------------------------------------------

   10   -5663.4720749241      3.93E-06 Convergence criterion met
 Total energy in the final basis set = -5663.4720749241

                    Orbital Energies (a.u.)
 --------------------------------------------------------------

 Alpha MOs
 -- Occupied --
-88.991 -88.988 -88.930 -88.930 -88.918 -88.917 -88.912 -88.909
-14.387 -14.387 -14.387 -14.384 -14.354 -14.349 -14.342 -14.328
-14.324 -14.323 -10.275 -10.268 -10.260 -10.259 -10.259 -10.257
-10.257 -10.256 -10.246 -10.243 -10.242 -10.241 -10.239 -10.237
-10.236 -10.232 -10.232 -10.231 -10.231 -10.231 -10.226 -10.223
-10.223 -10.222 -10.221 -10.220 -10.220 -10.220 -10.219 -10.214
-10.212 -10.210 -10.206 -10.203 -10.203 -10.200 -10.194 -10.192
-10.191 -10.189 -10.186 -10.185 -10.179 -10.178 -10.175 -10.174
-10.174 -10.172 -10.167 -10.167  -8.046  -8.044  -7.990  -7.988
 -7.979  -7.976  -7.971  -7.971  -6.011  -6.009  -6.005  -6.003
 -6.003  -6.001  -5.954  -5.953  -5.950  -5.949  -5.947  -5.945
 -5.943  -5.941  -5.940  -5.937  -5.937  -5.936  -5.935  -5.933
 -5.932  -5.932  -5.927  -5.927  -1.047  -1.028  -0.987  -0.970
 -0.963  -0.953  -0.945  -0.943  -0.920  -0.918  -0.912  -0.898
 -0.846  -0.846  -0.835  -0.828  -0.807  -0.806  -0.806  -0.802
 -0.802  -0.799  -0.797  -0.797  -0.786  -0.783  -0.768  -0.761
 -0.751  -0.749  -0.744  -0.738  -0.735  -0.716  -0.712  -0.706
 -0.692  -0.692  -0.677  -0.674  -0.659  -0.656  -0.647  -0.642
 -0.636  -0.635  -0.626  -0.625  -0.617  -0.610  -0.608  -0.599
 -0.596  -0.591  -0.587  -0.584  -0.580  -0.578  -0.559  -0.556
 -0.551  -0.546  -0.541  -0.538  -0.528  -0.523  -0.519  -0.510
 -0.508  -0.507  -0.504  -0.501  -0.489  -0.484  -0.479  -0.478
 -0.473  -0.472  -0.469  -0.466  -0.462  -0.459  -0.458  -0.449
 -0.445  -0.444  -0.441  -0.439  -0.438  -0.435  -0.435  -0.431
 -0.430  -0.428  -0.424  -0.423  -0.421  -0.417  -0.413  -0.411
 -0.410  -0.407  -0.405  -0.404  -0.402  -0.400  -0.398  -0.396
 -0.395  -0.393  -0.388  -0.387  -0.387  -0.382  -0.382  -0.378
 -0.378  -0.376  -0.375  -0.374  -0.367  -0.363  -0.356  -0.354
 -0.354  -0.351  -0.349  -0.349  -0.347  -0.346  -0.344  -0.340
 -0.338  -0.338  -0.338  -0.333  -0.333  -0.330  -0.319  -0.318
 -0.314  -0.313  -0.310  -0.309  -0.304  -0.301  -0.299  -0.298
 -0.297  -0.296  -0.294  -0.290  -0.284  -0.283  -0.282  -0.279
 -0.273  -0.268  -0.267  -0.267  -0.256  -0.254  -0.251  -0.247
 -0.244  -0.240  -0.230  -0.230  -0.199  -0.190

          Ground-State Mulliken Net Atomic Charges

     Atom                 Charge (a.u.)
  ----------------------------------------
      1 C                     0.253810
      2 C                    -0.119987
      3 N                    -0.456575
      4 C                    -0.039612
      5 C                     0.083656
      6 C                     0.004257
      7 C                     0.006714
      8 C                     0.071260
      9 C                     0.237062
     10 N                    -0.515405
     11 N                    -0.553707
     12 C                     0.245169
     13 C                     0.262269
     14 S                     0.601795
     15 N                    -0.575299
     16 C                    -0.208548
     17 S                     0.357988
     18 C                    -0.122882
     19 C                    -0.227554
     20 S                     0.248787
     21 C                     0.153501
     22 C                     0.055779
     23 C                    -0.315141
     24 C                    -0.033631
     25 N                    -0.407199
     26 S                     0.248356
     27 C                     0.113154
     28 C                    -0.315454
     29 C                    -0.228310
     30 H                     0.095619
     31 H                     0.105151
     32 H                     0.108347
     33 H                     0.127542
     34 H                     0.134862
     35 H                     0.113438
     36 H                     0.119565
     37 H                     0.145202
     38 H                     0.125862
     39 C                    -0.193239
     40 H                     0.097206
     41 H                     0.094972
     42 H                     0.093411
     43 C                    -0.167096
     44 H                     0.086572
     45 C                    -0.178885
     46 H                     0.094764
     47 H                     0.078414
     48 H                     0.122189
     49 C                    -0.181245
     50 H                     0.091107
     51 C                    -0.317568
     52 H                     0.089365
     53 H                     0.107220
     54 H                     0.106242
     55 H                     0.092459
     56 C                     0.300593
     57 C                    -0.116759
     58 N                    -0.502720
     59 C                    -0.083707
     60 C                     0.092761
     61 C                     0.027449
     62 C                     0.029167
     63 C                     0.062637
     64 C                     0.192717
     65 N                    -0.488529
     66 N                    -0.531517
     67 C                     0.255710
     68 C                     0.228929
     69 S                     0.599300
     70 N                    -0.549617
     71 C                    -0.204343
     72 S                     0.308887
     73 C                    -0.111723
     74 C                    -0.248097
     75 S                     0.279841
     76 C                     0.189756
     77 C                     0.080149
     78 C                    -0.297716
     79 C                    -0.071062
     80 N                    -0.442033
     81 S                     0.254480
     82 C                     0.135331
     83 C                    -0.324120
     84 C                    -0.246203
     85 H                     0.085958
     86 H                     0.100622
     87 H                     0.124684
     88 H                     0.102661
     89 H                     0.116243
     90 H                     0.121169
     91 H                     0.106768
     92 H                     0.142203
     93 H                     0.095990
     94 C                    -0.163940
     95 H                     0.117572
     96 H                     0.101058
     97 H                     0.113084
     98 C                    -0.174878
     99 H                     0.084344
    100 C                    -0.188872
    101 H                     0.097400
    102 H                     0.090203
    103 H                     0.090080
    104 C                    -0.178862
    105 H                     0.097033
    106 C                    -0.322167
    107 H                     0.097454
    108 H                     0.099996
    109 H                     0.103246
    110 H                     0.105660
  ----------------------------------------
  Sum of atomic charges =     0.000000

                    Cartesian Multipole Moments
 -----------------------------------------------------------------
    Charge (ESU x 10^10)
                 0.0000
    Dipole Moment (Debye)
         X       2.3134      Y       2.2037      Z       0.6967
       Tot       3.2701
    Quadrupole Moments (Debye-Ang)
        XX    -391.1779     XY       3.1861     YY    -421.5422
        XZ      24.3217     YZ      10.9828     ZZ    -437.7488

 Total job time:  92.99s(wall), 1003.05s(cpu)
        *  Thank you very much for using Q-Chem.  Have a nice day.  *
