 Q-Chem 4.4, Q-Chem, Inc., Pleasanton, CA (2016)
 Q-Chem 4.4.2 for Intel X86 Linux

User input:
--------------------------------------------------------------
$comment
SP
$end

$rem
MEM_STATIC 5000
MEM_TOTAL 20000
JOBTYPE SP
EXCHANGE B3LYP
BASIS 6-31g(d,p)
$end

$molecule
0 1
C         -13.680000      0.609000     -0.515000
C         -12.562000      1.134000     -1.087000
N         -13.640000     -0.483000      0.291000
C         -11.302000      0.546000     -0.824000
C         -12.415000     -1.031000      0.607000
C         -11.194000     -0.486000      0.118000
C          -9.883000     -1.090000      0.492000
C          -9.803000     -1.771000      1.743000
C          -8.731000     -1.202000     -0.361000
N          -8.795000     -2.533000      2.171000
N          -8.712000     -0.809000     -1.616000
C          -7.671000     -1.974000      0.098000
C          -7.703000     -2.661000      1.370000
S          -7.278000     -1.403000     -2.121000
N          -6.705000     -2.213000     -0.791000
C          -6.666000     -3.700000      1.800000
S          -5.278000     -4.369000      0.802000
C          -6.852000     -4.530000      2.868000
C          -5.100000     -5.734000      1.823000
S          -7.920000     -4.461000      4.214000
C          -5.943000     -5.587000      2.915000
C          -4.317000     -6.945000      1.495000
C          -7.405000     -6.120000      4.621000
C          -6.283000     -6.526000      3.936000
N          -3.391000     -7.368000      2.375000
S          -4.631000     -7.925000      0.115000
C          -2.762000     -8.435000      1.867000
C          -3.324000     -8.986000      0.676000
C         -15.072000      1.205000     -0.768000
H         -12.630000      1.994000     -1.747000
H         -10.491000      0.932000     -1.436000
H         -12.461000     -1.881000      1.286000
H         -10.656000     -1.730000      2.420000
H          -7.988000     -6.607000      5.392000
H          -5.889000     -7.523000      4.092000
H          -1.903000     -8.829000      2.395000
H          -2.951000     -9.878000      0.190000
H         -15.476000      0.862000     -1.728000
C         -15.211000      2.681000     -0.662000
H         -15.750000      0.846000      0.016000
H         -14.736000      3.044000     -1.581000
H         -14.612000      3.055000      0.177000
C         -16.675000      3.143000     -0.546000
H         -16.624000      4.204000     -0.818000
C         -17.321000      2.966000      0.855000
H         -17.319000      2.564000     -1.220000
H         -16.747000      3.577000      1.563000
H         -17.187000      1.933000      1.198000
C         -18.915000      3.287000      0.997000
H         -19.458000      3.204000      0.047000
C         -18.984000      4.739000      1.559000
H         -19.397000      2.671000      1.766000
H         -20.002000      5.107000      1.736000
H         -18.509000      5.405000      0.829000
H         -18.383000      4.672000      2.475000
C           0.505000      8.613000     12.309000
C           0.126000      9.022000     10.979000
N           0.059000      7.430000     12.802000
C          -0.517000      8.107000     10.171000
C          -0.599000      6.581000     12.013000
C          -0.931000      6.896000     10.678000
C          -1.715000      5.915000      9.907000
C          -2.765000      5.169000     10.484000
C          -1.253000      5.503000      8.610000
N          -3.376000      4.124000      9.884000
N          -0.353000      6.086000      7.873000
C          -1.910000      4.437000      7.962000
C          -2.997000      3.779000      8.678000
S          -0.248000      5.205000      6.482000
N          -1.530000      4.194000      6.736000
C          -3.792000      2.700000      8.010000
S          -3.103000      1.456000      6.954000
C          -5.003000      2.308000      8.529000
C          -4.621000      0.556000      7.080000
S          -6.139000      3.279000      9.503000
C          -5.429000      1.109000      8.045000
C          -4.749000     -0.802000      6.635000
C          -7.165000      1.784000      9.495000
C          -6.655000      0.765000      8.702000
N          -5.842000     -1.503000      6.932000
S          -3.500000     -1.600000      5.711000
C          -5.720000     -2.723000      6.329000
C          -4.466000     -2.954000      5.735000
C           1.311000      9.470000     13.264000
H           0.443000      9.970000     10.556000
H          -0.702000      8.306000      9.120000
H          -0.875000      5.579000     12.339000
H          -2.929000      5.227000     11.559000
H          -8.145000      1.783000      9.954000
H          -7.239000     -0.115000      8.460000
H          -6.414000     -3.519000      6.564000
H          -4.067000     -3.857000      5.290000
H           1.971000      8.926000     13.951000
C           0.369000     10.189000     14.252000
H           2.025000     10.132000     12.759000
H          -0.212000      9.475000     14.849000
H          -0.312000     10.884000     13.745000
C           1.121000     10.947000     15.313000
H           1.946000     11.535000     14.893000
C           1.704000     10.142000     16.542000
H           0.447000     11.680000     15.773000
H           2.410000      9.349000     16.268000
H           0.897000      9.569000     17.015000
C           2.145000     11.007000     17.699000
H           1.328000     11.670000     18.009000
C           3.499000     11.626000     17.383000
H           2.230000     10.286000     18.521000
H           3.775000     12.264000     18.232000
H           3.298000     12.279000     16.524000
H           4.308000     10.896000     17.262000
$end

--------------------------------------------------------------

             Standard Nuclear Orientation (Angstroms)
    I     Atom           X                Y                Z
 ----------------------------------------------------------------
    1      C      -8.2533915313     5.3588219233    -0.5754653449
    2      C      -7.7377168699     4.9495578811    -1.7668156659
    3      N      -8.3059719099     4.5466757034     0.5114356724
    4      C      -7.2126667104     3.6409783409    -1.8870442688
    5      C      -7.7437021467     3.2904897017     0.4299835858
    6      C      -7.1083686261     2.8217598500    -0.7547656044
    7      C      -6.4930463715     1.4645228447    -0.8067197615
    8      C      -6.0132936672     0.9101200927     0.4170600108
    9      C      -6.4871776372     0.5831217771    -1.9426575750
   10      N      -5.6114880736    -0.3461098461     0.6178848244
   11      N      -7.0731827636     0.8635920313    -3.0862350442
   12      C      -6.0429359224    -0.7172442339    -1.7378099819
   13      C      -5.6129185621    -1.1971746908    -0.4433105318
   14      S      -6.9538607988    -0.5626022505    -3.8710593172
   15      N      -6.2291009191    -1.5570743187    -2.7579207712
   16      C      -5.3450220252    -2.6702487869    -0.1301426009
   17      S      -5.6093813333    -4.1111762477    -1.2364658850
   18      C      -5.2070334257    -3.1404734574     1.1442073925
   19      C      -5.5977931567    -5.2167874837     0.0730529233
   20      S      -4.8730703602    -2.3547883294     2.6369460001
   21      C      -5.2647448359    -4.5313850719     1.2323735648
   22      C      -6.0488875172    -6.6234566862     0.0024155916
   23      C      -5.2371796147    -3.8990007932     3.4530264604
   24      C      -5.2989445749    -4.9697105596     2.5912198198
   25      N      -5.2147969423    -7.5870370374     0.4344003363
   26      S      -7.6412228815    -7.0799775820    -0.4660422607
   27      C      -5.7862448370    -8.7808339008     0.2331781890
   28      C      -7.1560400237    -8.7606423969    -0.1682934161
   29      C      -8.8383771304     6.7660361523    -0.3899149138
   30      H      -7.7321583910     5.6152053276    -2.6251317967
   31      H      -6.9629863155     3.3501548865    -2.9040705314
   32      H      -7.7926516424     2.7120918896     1.3512419198
   33      H      -6.0111568033     1.5324773855     1.3116469736
   34      H      -5.3170014917    -3.8424949343     4.5309571427
   35      H      -5.5296561089    -5.9562405682     2.9747712898
   36      H      -5.1994835160    -9.6723264172     0.4144328314
   37      H      -7.7552532964    -9.6501183094    -0.3123942663
   38      H      -9.8611995881     6.8194521392    -0.7816366929
   39      C      -8.0412206679     7.9091260397    -0.9066547746
   40      H      -8.8910649428     6.9801179470     0.6846147413
   41      H      -8.1822887931     7.8426754623    -1.9918455895
   42      H      -6.9751215909     7.7416462653    -0.7117669016
   43      C      -8.4995398531     9.2676309571    -0.3457591389
   44      H      -8.0703817671     9.9871331746    -1.0531811460
   45      C      -8.0377831107     9.5806641448     1.1034602835
   46      H      -9.5948146679     9.3195097623    -0.3017742586
   47      H      -6.9406638462     9.6004203028     1.1035778980
   48      H      -8.3067275303     8.7496878625     1.7666656193
   49      C      -8.6257235712    10.9305704823     1.8078180723
   50      H      -9.5750957652    11.2662039556     1.3716064161
   51      C      -7.5097808592    12.0017365159     1.6175966432
   52      H      -8.7229079893    10.8244265534     2.8952138858
   53      H      -7.7408533940    12.9783469781     2.0602189300
   54      H      -7.3639651457    12.1477881156     0.5408015337
   55      H      -6.6328994209    11.5192784339     2.0682174842
   56      C      11.9820349966     0.8738744520    -0.9575339422
   57      C      11.1430244426     1.4472650223    -1.9808161828
   58      N      11.4174375258     0.3437463200     0.1567585956
   59      C       9.7789437700     1.2618732773    -1.8888824048
   60      C      10.0934985121     0.2154896684     0.2405542947
   61      C       9.2252952885     0.6891591830    -0.7661901384
   62      C       7.7736127969     0.5559607344    -0.5509365277
   63      C       7.1773419457     0.7605409550     0.7118195871
   64      C       6.9598407827    -0.0461332964    -1.5710614646
   65      N       5.8939222510     0.4578942061     1.0060725949
   66      N       7.2837431060    -0.2585419820    -2.8132481797
   67      C       5.6093576467    -0.3306446788    -1.2826909169
   68      C       5.1308657734    -0.0392787187     0.0639123671
   69      S       5.9627404542    -0.9402209202    -3.5290224591
   70      N       4.8894357735    -0.7559702334    -2.2863520495
   71      C       3.6864395668    -0.2354465708     0.4069008616
   72      S       2.6971112514    -1.5903669796    -0.1612656372
   73      C       3.1590912269     0.3343304045     1.5412746654
   74      C       1.4751118841    -1.1594451102     1.0434019057
   75      S       3.7073624813     1.8119342487     2.3767975624
   76      C       1.9658874813    -0.2093602265     1.9073324741
   77      C       0.3802632598    -2.0264740015     1.3722489696
   78      C       2.3387555265     1.4757286680     3.5176944950
   79      C       1.5456954431     0.4033439012     3.1325236033
   80      N      -0.3952938629    -1.7562636457     2.4209417335
   81      S       0.0189718420    -3.4617302191     0.4448390811
   82      C      -1.3830425870    -2.6998378297     2.4511612207
   83      C      -1.2200925178    -3.7406794515     1.5190619806
   84      C      13.4967931473     0.9014152073    -0.9868469358
   85      H      11.5557825957     1.9009162133    -2.8763346382
   86      H       9.1097082057     1.5461913634    -2.6949307814
   87      H       9.6107172426    -0.3041757995     1.0671896722
   88      H       7.8148849790     0.9042331072     1.5828973368
   89      H       2.1092611729     2.1605222948     4.3235927705
   90      H       0.5976142396     0.1942733402     3.6136177023
   91      H      -2.0364782933    -2.7775908052     3.3099122047
   92      H      -1.7848935825    -4.6567870615     1.3991386535
   93      H      13.9979024553     0.0419841824    -0.5244912557
   94      C      14.0209353428     2.0633955327    -0.1176256278
   95      H      13.9137502368     0.8733540371    -2.0009595313
   96      H      13.7063423099     1.9596838873     0.9283385772
   97      H      13.7069283194     3.0424921722    -0.5005151153
   98      C      15.5212966974     2.0575446258     0.0034965113
   99      H      16.0123366917     1.8977138337    -0.9640275670
  100      C      16.1889451033     1.0607937683     1.0326166861
  101      H      15.8558839036     3.0468814063     0.3388010538
  102      H      15.9589123604     0.0040936049     0.8514242419
  103      H      15.7499244688     1.2179201932     2.0255311683
  104      C      17.6428235735     1.3489429294     1.3234129291
  105      H      17.7658586232     2.3913223366     1.6419495016
  106      C      18.5013723274     0.8367782391     0.1758440347
  107      H      17.8265842826     0.7678758695     2.2351930965
  108      H      19.5444861053     1.0841064705     0.4098598297
  109      H      18.1945555226     1.4518911425    -0.6798373104
  110      H      18.4595812970    -0.2497558655     0.0354191464
 ----------------------------------------------------------------

    9   -5663.4928681200      9.95E-06 Convergence criterion met
 Total energy in the final basis set = -5663.4928681200

                    Orbital Energies (a.u.)
 --------------------------------------------------------------

 Alpha MOs
 -- Occupied --
-88.987 -88.981 -88.943 -88.928 -88.921 -88.920 -88.908 -88.904
-14.397 -14.392 -14.386 -14.378 -14.351 -14.351 -14.344 -14.337
-14.329 -14.325 -10.277 -10.271 -10.260 -10.259 -10.258 -10.257
-10.250 -10.250 -10.246 -10.244 -10.241 -10.237 -10.237 -10.235
-10.234 -10.232 -10.231 -10.231 -10.228 -10.225 -10.225 -10.224
-10.222 -10.221 -10.220 -10.219 -10.218 -10.218 -10.217 -10.211
-10.209 -10.203 -10.202 -10.200 -10.199 -10.198 -10.193 -10.190
-10.185 -10.185 -10.182 -10.182 -10.179 -10.177 -10.176 -10.174
-10.174 -10.171 -10.171 -10.169  -8.043  -8.037  -8.003  -7.987
 -7.983  -7.980  -7.968  -7.963  -6.008  -6.003  -6.002  -6.001
 -5.997  -5.994  -5.967  -5.963  -5.960  -5.951  -5.947  -5.946
 -5.945  -5.944  -5.943  -5.941  -5.940  -5.937  -5.932  -5.929
 -5.927  -5.924  -5.924  -5.918  -1.053  -1.043  -0.975  -0.965
 -0.961  -0.956  -0.935  -0.929  -0.924  -0.916  -0.915  -0.907
 -0.847  -0.834  -0.832  -0.831  -0.815  -0.815  -0.809  -0.807
 -0.802  -0.799  -0.793  -0.792  -0.783  -0.780  -0.765  -0.764
 -0.749  -0.743  -0.741  -0.732  -0.727  -0.720  -0.708  -0.704
 -0.692  -0.685  -0.674  -0.669  -0.658  -0.653  -0.646  -0.645
 -0.634  -0.630  -0.625  -0.621  -0.614  -0.606  -0.599  -0.596
 -0.591  -0.586  -0.584  -0.583  -0.580  -0.573  -0.563  -0.556
 -0.554  -0.546  -0.538  -0.536  -0.525  -0.521  -0.516  -0.508
 -0.507  -0.505  -0.503  -0.491  -0.487  -0.486  -0.480  -0.476
 -0.471  -0.469  -0.468  -0.464  -0.460  -0.454  -0.451  -0.448
 -0.448  -0.444  -0.443  -0.442  -0.436  -0.434  -0.429  -0.428
 -0.427  -0.425  -0.422  -0.420  -0.419  -0.417  -0.416  -0.413
 -0.411  -0.408  -0.404  -0.403  -0.401  -0.397  -0.397  -0.394
 -0.393  -0.393  -0.391  -0.386  -0.384  -0.383  -0.381  -0.381
 -0.380  -0.376  -0.372  -0.368  -0.364  -0.364  -0.355  -0.352
 -0.352  -0.351  -0.350  -0.349  -0.347  -0.346  -0.345  -0.343
 -0.338  -0.337  -0.335  -0.334  -0.334  -0.330  -0.327  -0.322
 -0.318  -0.312  -0.308  -0.305  -0.303  -0.301  -0.300  -0.299
 -0.296  -0.295  -0.293  -0.290  -0.289  -0.283  -0.282  -0.281
 -0.276  -0.269  -0.268  -0.262  -0.252  -0.251  -0.247  -0.244
 -0.241  -0.237  -0.232  -0.230  -0.199  -0.185

          Ground-State Mulliken Net Atomic Charges

     Atom                 Charge (a.u.)
  ----------------------------------------
      1 C                     0.275666
      2 C                    -0.107601
      3 N                    -0.494505
      4 C                    -0.084447
      5 C                     0.064475
      6 C                     0.037558
      7 C                     0.030820
      8 C                     0.054696
      9 C                     0.248034
     10 N                    -0.515331
     11 N                    -0.540975
     12 C                     0.195095
     13 C                     0.298407
     14 S                     0.582214
     15 N                    -0.539903
     16 C                    -0.244029
     17 S                     0.315829
     18 C                    -0.072167
     19 C                    -0.223431
     20 S                     0.284217
     21 C                     0.135347
     22 C                     0.000972
     23 C                    -0.314140
     24 C                    -0.060976
     25 N                    -0.381507
     26 S                     0.308581
     27 C                     0.118953
     28 C                    -0.315002
     29 C                    -0.232421
     30 H                     0.089393
     31 H                     0.120170
     32 H                     0.110006
     33 H                     0.113743
     34 H                     0.128801
     35 H                     0.114933
     36 H                     0.115672
     37 H                     0.134912
     38 H                     0.111028
     39 C                    -0.178881
     40 H                     0.117971
     41 H                     0.086498
     42 H                     0.097532
     43 C                    -0.178487
     44 H                     0.093755
     45 C                    -0.185852
     46 H                     0.094575
     47 H                     0.092462
     48 H                     0.098270
     49 C                    -0.188003
     50 H                     0.096014
     51 C                    -0.313250
     52 H                     0.099988
     53 H                     0.094928
     54 H                     0.103815
     55 H                     0.106599
     56 C                     0.261539
     57 C                    -0.127298
     58 N                    -0.483439
     59 C                    -0.055645
     60 C                     0.082678
     61 C                     0.046125
     62 C                    -0.005396
     63 C                     0.037528
     64 C                     0.274181
     65 N                    -0.503111
     66 N                    -0.560851
     67 C                     0.226825
     68 C                     0.288553
     69 S                     0.571079
     70 N                    -0.560416
     71 C                    -0.225153
     72 S                     0.308843
     73 C                    -0.096153
     74 C                    -0.231493
     75 S                     0.266087
     76 C                     0.166488
     77 C                     0.062336
     78 C                    -0.294287
     79 C                    -0.063443
     80 N                    -0.439431
     81 S                     0.285615
     82 C                     0.125987
     83 C                    -0.312684
     84 C                    -0.220301
     85 H                     0.090619
     86 H                     0.110780
     87 H                     0.102374
     88 H                     0.114100
     89 H                     0.124860
     90 H                     0.127207
     91 H                     0.111735
     92 H                     0.145465
     93 H                     0.120701
     94 C                    -0.170419
     95 H                     0.096377
     96 H                     0.117437
     97 H                     0.091329
     98 C                    -0.183115
     99 H                     0.087003
    100 C                    -0.177718
    101 H                     0.085162
    102 H                     0.091711
    103 H                     0.084415
    104 C                    -0.180248
    105 H                     0.094398
    106 C                    -0.307521
    107 H                     0.089200
    108 H                     0.094614
    109 H                     0.106580
    110 H                     0.107166
  ----------------------------------------
  Sum of atomic charges =     0.000000

                    Cartesian Multipole Moments
 -----------------------------------------------------------------
    Charge (ESU x 10^10)
                 0.0000
    Dipole Moment (Debye)
         X      -2.9588      Y      -2.3337      Z      -2.6875
       Tot       4.6285
    Quadrupole Moments (Debye-Ang)
        XX    -426.6032     XY      34.7512     YY    -400.4790
        XZ      -4.1259     YZ      -7.6209     ZZ    -428.4465

 Total job time:  84.90s(wall), 918.58s(cpu)
        *  Thank you very much for using Q-Chem.  Have a nice day.  *
