 Q-Chem 4.4, Q-Chem, Inc., Pleasanton, CA (2016)
 Q-Chem 4.4.2 for Intel X86 Linux

User input:
--------------------------------------------------------------
$comment
SP
$end

$rem
MEM_STATIC 5000
MEM_TOTAL 20000
JOBTYPE SP
EXCHANGE B3LYP
BASIS 6-31g(d,p)
$end

$molecule
0 1
C           1.253000      7.360000      3.278000
C           0.117000      6.548000      3.290000
N           2.451000      6.788000      2.989000
C           0.293000      5.180000      3.167000
C           2.587000      5.548000      2.779000
C           1.538000      4.623000      2.944000
C           1.711000      3.161000      2.834000
C           2.007000      2.500000      1.663000
C           1.524000      2.305000      3.984000
N           2.444000      1.246000      1.613000
N           1.033000      2.651000      5.212000
C           1.941000      0.959000      3.938000
C           2.461000      0.487000      2.737000
S           0.816000      1.258000      5.975000
N           1.558000      0.188000      4.972000
C           3.279000     -0.710000      2.605000
S           3.436000     -1.770000      1.242000
C           4.271000     -0.931000      3.507000
C           4.886000     -2.556000      1.891000
S           4.693000     -0.135000      5.033000
C           5.162000     -1.916000      3.079000
C           5.712000     -3.615000      1.347000
C           6.107000     -1.214000      5.146000
C           6.188000     -2.102000      4.033000
N           7.053000     -3.510000      1.541000
S           5.195000     -4.639000      0.117000
C           7.649000     -4.365000      0.753000
C           6.866000     -5.133000     -0.049000
C           1.190000      8.870000      3.563000
H          -0.824000      6.985000      3.611000
H          -0.534000      4.482000      3.269000
H           3.619000      5.252000      2.597000
H           2.232000      3.081000      0.770000
H           6.659000     -1.166000      6.075000
H           6.936000     -2.885000      3.990000
H           8.717000     -4.492000      0.879000
H           6.994000     -5.987000     -0.701000
H           1.873000      9.382000      2.874000
C           1.563000      9.263000      4.994000
H           0.156000      9.164000      3.344000
H           2.500000      8.785000      5.307000
H           0.771000      8.999000      5.706000
C           1.784000     10.770000      5.192000
H           2.722000     11.093000      4.722000
C           1.640000     11.214000      6.653000
H           1.035000     11.359000      4.648000
H           0.653000     10.846000      6.959000
H           1.623000     12.309000      6.720000
C           2.798000     10.723000      7.503000
H           2.588000      9.675000      7.750000
C           2.836000     11.338000      8.918000
H           3.759000     10.922000      7.013000
H           2.829000     12.434000      8.940000
H           3.655000     11.064000      9.595000
H           1.887000     11.129000      9.427000
C           0.505000      8.613000     12.309000
C           0.126000      9.022000     10.979000
N           0.059000      7.430000     12.802000
C          -0.517000      8.107000     10.171000
C          -0.599000      6.581000     12.013000
C          -0.931000      6.896000     10.678000
C          -1.715000      5.915000      9.907000
C          -2.765000      5.169000     10.484000
C          -1.253000      5.503000      8.610000
N          -3.376000      4.124000      9.884000
N          -0.353000      6.086000      7.873000
C          -1.910000      4.437000      7.962000
C          -2.997000      3.779000      8.678000
S          -0.248000      5.205000      6.482000
N          -1.530000      4.194000      6.736000
C          -3.792000      2.700000      8.010000
S          -3.103000      1.456000      6.954000
C          -5.003000      2.308000      8.529000
C          -4.621000      0.556000      7.080000
S          -6.139000      3.279000      9.503000
C          -5.429000      1.109000      8.045000
C          -4.749000     -0.802000      6.635000
C          -7.165000      1.784000      9.495000
C          -6.655000      0.765000      8.702000
N          -5.842000     -1.503000      6.932000
S          -3.500000     -1.600000      5.711000
C          -5.720000     -2.723000      6.329000
C          -4.466000     -2.954000      5.735000
C           1.311000      9.470000     13.264000
H           0.443000      9.970000     10.556000
H          -0.702000      8.306000      9.120000
H          -0.875000      5.579000     12.339000
H          -2.929000      5.227000     11.559000
H          -8.145000      1.783000      9.954000
H          -7.239000     -0.115000      8.460000
H          -6.414000     -3.519000      6.564000
H          -4.067000     -3.857000      5.290000
H           1.971000      8.926000     13.951000
C           0.369000     10.189000     14.252000
H           2.025000     10.132000     12.759000
H          -0.212000      9.475000     14.849000
H          -0.312000     10.884000     13.745000
C           1.121000     10.947000     15.313000
H           1.946000     11.535000     14.893000
C           1.704000     10.142000     16.542000
H           0.447000     11.680000     15.773000
H           2.410000      9.349000     16.268000
H           0.897000      9.569000     17.015000
C           2.145000     11.007000     17.699000
H           1.328000     11.670000     18.009000
C           3.499000     11.626000     17.383000
H           2.230000     10.286000     18.521000
H           3.775000     12.264000     18.232000
H           3.298000     12.279000     16.524000
H           4.308000     10.896000     17.262000
$end

--------------------------------------------------------------

             Standard Nuclear Orientation (Angstroms)
    I     Atom           X                Y                Z
 ----------------------------------------------------------------
    1      C      -0.5724196469     3.1254732262    -4.2566397636
    2      C      -0.2507504232     1.7678437646    -4.3145634686
    3      N       0.3058169275     3.9708292853    -3.6566542199
    4      C       0.8641200617     1.3324347115    -3.6181356127
    5      C       1.3746747303     3.5746871149    -3.1081923905
    6      C       1.6995642586     2.2127594783    -2.9570272261
    7      C       2.8736982715     1.7301056261    -2.2034175269
    8      C       4.1797884911     1.9190028735    -2.5961313772
    9      C       2.7094697658     0.9608275857    -0.9903860787
   10      N       5.2245266577     1.7483456109    -1.7927738840
   11      N       1.5507784573     0.4495802297    -0.4757584533
   12      C       3.8139306065     0.7307251654    -0.1448447565
   13      C       5.0534573185     1.2056135411    -0.5615455617
   14      S       2.0204792388    -0.5115429929     0.7181135359
   15      N       3.6178627388    -0.1490992677     0.8540307904
   16      C       6.1973433150     1.4089149022     0.3156946468
   17      S       7.8858338925     1.3349056049    -0.0710096249
   18      C       6.0026849792     2.0011846576     1.5231024773
   19      C       8.3709611959     2.1227970220     1.4407362579
   20      S       4.5338390926     2.4307530961     2.4166005008
   21      C       7.2006131543     2.4204668483     2.1031546575
   22      C       9.6827899058     2.4746462315     1.9457120688
   23      C       5.5704360300     3.1597087439     3.6697950001
   24      C       6.9546843262     3.0480277160     3.3453601030
   25      N       9.7891657549     3.6546145415     2.6115205745
   26      S      11.1041731618     1.8027267876     1.3482516930
   27      C      11.0575836217     3.9443251530     2.7313908241
   28      C      11.9548451208     3.0720720008     2.2020391067
   29      C      -1.8693619737     3.6917707934    -4.8587540934
   30      H      -0.9924380826     1.0801368899    -4.7101006607
   31      H       1.1156941316     0.2781630034    -3.5359245867
   32      H       1.9448368430     4.3780837466    -2.6442602648
   33      H       4.3865261878     2.5485112954    -3.4601994715
   34      H       5.0615599824     3.4832090401     4.5678160057
   35      H       7.7238419560     3.3584675309     4.0428310069
   36      H      11.3139147005     4.7952382194     3.3501559908
   37      H      13.0270146702     2.9274177650     2.2202492496
   38      H      -1.6391189099     4.6506449385    -5.3392772514
   39      C      -2.9949488520     3.9164217947    -3.8468622478
   40      H      -2.1791799813     2.9633473681    -5.6183362914
   41      H      -2.6344070662     4.4595573895    -2.9640058913
   42      H      -3.4454755103     2.9690552015    -3.5252627012
   43      C      -4.1681688524     4.7461013980    -4.3893385943
   44      H      -3.8835088407     5.8004936911    -4.5002375118
   45      C      -5.4690718938     4.5365339668    -3.6044018014
   46      H      -4.4168251707     4.4614964457    -5.4194007558
   47      H      -5.6261997796     3.4509561127    -3.6121832008
   48      H      -6.3126430557     4.9992652841    -4.1317256324
   49      C      -5.3955908251     5.1628055994    -2.2234856654
   50      H      -4.8414538504     4.4622187015    -1.5866786209
   51      C      -6.7492719143     5.1976031932    -1.4830596826
   52      H      -5.0025313517     6.1855948276    -2.2747540285
   53      H      -7.5621679469     5.6782207958    -2.0397963890
   54      H      -6.7996274327     5.6586780144    -0.4885546142
   55      H      -7.1445893202     4.1771307493    -1.4074082464
   56      C      -7.4964274337     1.2859273471     1.4321791935
   57      C      -7.0207910005     1.3957700763     0.0751506167
   58      N      -7.0574554564     0.2712586294     2.2190749912
   59      C      -5.9805674811     0.5810229794    -0.3219138589
   60      C      -6.0809658658    -0.5306919392     1.7952479451
   61      C      -5.5229326012    -0.4209680010     0.5036467942
   62      C      -4.4910475784    -1.3955138030     0.1075006348
   63      C      -4.5630280241    -2.7578698623     0.4690940295
   64      C      -3.2463972117    -0.9257903175    -0.4361925800
   65      N      -3.5554335218    -3.6431824706     0.3068568433
   66      N      -2.9868701795     0.2635874322    -0.8956316815
   67      C      -2.2030586528    -1.8513706283    -0.6427228192
   68      C      -2.4374394803    -3.2335034980    -0.2402761044
   69      S      -1.4223983165     0.2297982452    -1.4184634714
   70      N      -1.1460784582    -1.3912538290    -1.2572229407
   71      C      -1.4034286962    -4.2814885368    -0.5142086817
   72      S       0.3425920164    -4.0329955164    -0.3497219352
   73      C      -1.7323446113    -5.6145611244    -0.4488038129
   74      C       0.5667319135    -5.7855375143    -0.4422305949
   75      S      -3.3295296136    -6.3596411410    -0.7242467966
   76      C      -0.6452591373    -6.4298391846    -0.3657384359
   77      C       1.8127160306    -6.4194862926    -0.1194217869
   78      C      -2.4729364348    -7.9233571068    -0.3943900031
   79      C      -1.1017826061    -7.7812117122    -0.2299458946
   80      N       1.8792185585    -7.7450205259    -0.0063049890
   81      S       3.2777213599    -5.5079524312     0.1515881850
   82      C       3.1844890597    -8.0683564563     0.2358020014
   83      C       4.0248670713    -6.9623265147     0.4575576463
   84      C      -8.5520811189     2.1885123831     2.0380220359
   85      H      -7.3637823255     2.1790183687    -0.5934307646
   86      H      -5.4880672334     0.7121197897    -1.2803939746
   87      H      -5.6265448586    -1.2835699862     2.4380015484
   88      H      -5.3381639212    -3.0831026967     1.1613894466
   89      H      -2.9943074594    -8.8680301994    -0.4771366211
   90      H      -0.4395164853    -8.6383330351    -0.2022579367
   91      H       3.4518822671    -9.0761848946     0.5243495912
   92      H       5.0610779359    -6.9324573612     0.7706229393
   93      H      -8.4490921069     2.3879154566     3.1118640530
   94      C      -9.9304676658     1.4971629112     1.9874707250
   95      H      -8.5428028527     3.2060277463     1.6285816869
   96      H      -9.9308629730     0.5546335628     2.5490793709
   97      H     -10.2645130506     1.3122355165     0.9588548882
   98      C     -10.9950914685     2.2877479082     2.6997491265
   99      H     -10.9614599417     3.3525461054     2.4392827763
  100      C     -11.0705311089     2.1981136908     4.2760199052
  101      H     -11.9805766249     1.9387876468     2.3677690931
  102      H     -10.1543533551     2.5121251851     4.7901950747
  103      H     -11.1452123609     1.1454880043     4.5755343034
  104      C     -12.3465368510     2.7465978459     4.8695933866
  105      H     -13.2169677660     2.2704957341     4.4017955657
  106      C     -12.2811304463     4.2668867625     4.8974611511
  107      H     -12.3342923243     2.3386952666     5.8875401226
  108      H     -13.2307736073     4.6292751765     5.3108296358
  109      H     -12.2466531704     4.5502386419     3.8376432280
  110      H     -11.4860498520     4.6694099504     5.5360877491
 ----------------------------------------------------------------

   10   -5663.4889787741      6.99E-06 Convergence criterion met
 Total energy in the final basis set = -5663.4889787741

                    Orbital Energies (a.u.)
 --------------------------------------------------------------

 Alpha MOs
 -- Occupied --
-88.994 -88.979 -88.930 -88.927 -88.926 -88.926 -88.910 -88.907
-14.392 -14.390 -14.384 -14.376 -14.349 -14.345 -14.343 -14.341
-14.326 -14.324 -10.269 -10.264 -10.263 -10.262 -10.261 -10.256
-10.249 -10.248 -10.240 -10.236 -10.235 -10.235 -10.235 -10.235
-10.235 -10.235 -10.230 -10.229 -10.228 -10.226 -10.226 -10.226
-10.225 -10.225 -10.224 -10.223 -10.222 -10.219 -10.212 -10.210
-10.204 -10.203 -10.202 -10.201 -10.201 -10.200 -10.199 -10.194
-10.193 -10.186 -10.184 -10.181 -10.180 -10.178 -10.178 -10.174
-10.174 -10.173 -10.171 -10.170  -8.049  -8.034  -7.993  -7.989
 -7.987  -7.985  -7.970  -7.965  -6.014  -6.008  -6.007  -5.999
 -5.993  -5.991  -5.956  -5.953  -5.952  -5.951  -5.950  -5.949
 -5.949  -5.947  -5.946  -5.946  -5.944  -5.942  -5.935  -5.931
 -5.930  -5.927  -5.926  -5.921  -1.047  -1.041  -0.984  -0.971
 -0.965  -0.962  -0.958  -0.936  -0.918  -0.915  -0.911  -0.910
 -0.843  -0.837  -0.837  -0.833  -0.821  -0.820  -0.815  -0.814
 -0.808  -0.804  -0.799  -0.794  -0.793  -0.784  -0.774  -0.767
 -0.754  -0.745  -0.742  -0.735  -0.726  -0.724  -0.714  -0.705
 -0.696  -0.687  -0.677  -0.671  -0.658  -0.657  -0.647  -0.645
 -0.641  -0.632  -0.631  -0.622  -0.616  -0.608  -0.602  -0.597
 -0.593  -0.593  -0.592  -0.584  -0.583  -0.577  -0.564  -0.557
 -0.556  -0.550  -0.546  -0.537  -0.528  -0.523  -0.519  -0.516
 -0.512  -0.509  -0.509  -0.501  -0.494  -0.487  -0.482  -0.477
 -0.476  -0.473  -0.470  -0.469  -0.466  -0.455  -0.453  -0.448
 -0.447  -0.446  -0.443  -0.438  -0.436  -0.435  -0.434  -0.432
 -0.431  -0.429  -0.427  -0.424  -0.420  -0.419  -0.416  -0.413
 -0.412  -0.410  -0.409  -0.404  -0.402  -0.401  -0.399  -0.397
 -0.396  -0.393  -0.392  -0.392  -0.386  -0.383  -0.382  -0.381
 -0.378  -0.378  -0.376  -0.373  -0.367  -0.364  -0.361  -0.360
 -0.354  -0.352  -0.352  -0.351  -0.349  -0.346  -0.345  -0.342
 -0.341  -0.340  -0.337  -0.334  -0.331  -0.331  -0.327  -0.325
 -0.318  -0.316  -0.312  -0.305  -0.305  -0.303  -0.300  -0.299
 -0.297  -0.297  -0.296  -0.293  -0.290  -0.290  -0.288  -0.282
 -0.278  -0.271  -0.265  -0.262  -0.254  -0.250  -0.247  -0.245
 -0.242  -0.241  -0.237  -0.231  -0.195  -0.189

          Ground-State Mulliken Net Atomic Charges

     Atom                 Charge (a.u.)
  ----------------------------------------
      1 C                     0.257365
      2 C                    -0.123195
      3 N                    -0.453599
      4 C                    -0.064388
      5 C                     0.087643
      6 C                     0.014647
      7 C                    -0.004703
      8 C                     0.054743
      9 C                     0.237366
     10 N                    -0.458128
     11 N                    -0.547173
     12 C                     0.162909
     13 C                     0.238029
     14 S                     0.628478
     15 N                    -0.505624
     16 C                    -0.200115
     17 S                     0.313916
     18 C                    -0.104240
     19 C                    -0.214312
     20 S                     0.250628
     21 C                     0.152011
     22 C                     0.014082
     23 C                    -0.312221
     24 C                    -0.054120
     25 N                    -0.408077
     26 S                     0.284020
     27 C                     0.146266
     28 C                    -0.321925
     29 C                    -0.218192
     30 H                     0.094587
     31 H                     0.109386
     32 H                     0.100465
     33 H                     0.113769
     34 H                     0.136147
     35 H                     0.116910
     36 H                     0.109835
     37 H                     0.138019
     38 H                     0.119743
     39 C                    -0.171558
     40 H                     0.097735
     41 H                     0.119150
     42 H                     0.093301
     43 C                    -0.186749
     44 H                     0.093948
     45 C                    -0.176981
     46 H                     0.084417
     47 H                     0.089411
     48 H                     0.089565
     49 C                    -0.165218
     50 H                     0.110087
     51 C                    -0.336186
     52 H                     0.099632
     53 H                     0.095415
     54 H                     0.102709
     55 H                     0.099366
     56 C                     0.262861
     57 C                    -0.128159
     58 N                    -0.485170
     59 C                    -0.057208
     60 C                     0.083877
     61 C                     0.045549
     62 C                    -0.003550
     63 C                     0.034617
     64 C                     0.266460
     65 N                    -0.502118
     66 N                    -0.564409
     67 C                     0.218186
     68 C                     0.285078
     69 S                     0.612533
     70 N                    -0.578386
     71 C                    -0.226207
     72 S                     0.305171
     73 C                    -0.095635
     74 C                    -0.239416
     75 S                     0.268850
     76 C                     0.168267
     77 C                     0.063221
     78 C                    -0.291097
     79 C                    -0.065130
     80 N                    -0.433984
     81 S                     0.284767
     82 C                     0.108493
     83 C                    -0.306920
     84 C                    -0.222083
     85 H                     0.091752
     86 H                     0.108723
     87 H                     0.102232
     88 H                     0.113345
     89 H                     0.125867
     90 H                     0.126599
     91 H                     0.110672
     92 H                     0.134204
     93 H                     0.120733
     94 C                    -0.170306
     95 H                     0.098351
     96 H                     0.117237
     97 H                     0.091228
     98 C                    -0.183235
     99 H                     0.087292
    100 C                    -0.177576
    101 H                     0.085128
    102 H                     0.091642
    103 H                     0.084242
    104 C                    -0.179804
    105 H                     0.094291
    106 C                    -0.307591
    107 H                     0.089073
    108 H                     0.094635
    109 H                     0.106632
    110 H                     0.107182
  ----------------------------------------
  Sum of atomic charges =     0.000000

                    Cartesian Multipole Moments
 -----------------------------------------------------------------
    Charge (ESU x 10^10)
                 0.0000
    Dipole Moment (Debye)
         X       2.2515      Y       0.0548      Z      -0.1381
       Tot       2.2564
    Quadrupole Moments (Debye-Ang)
        XX    -391.4443     XY     -12.7426     YY    -443.5854
        XZ      23.1842     YZ       3.5337     ZZ    -439.1816

 Total job time:  100.77s(wall), 1110.32s(cpu)
        *  Thank you very much for using Q-Chem.  Have a nice day.  *
