 Q-Chem 4.4, Q-Chem, Inc., Pleasanton, CA (2016)
 Q-Chem 4.4.2 for Intel X86 Linux

User input:
--------------------------------------------------------------
$comment
SP
$end

$rem
MEM_STATIC 5000
MEM_TOTAL 20000
JOBTYPE SP
EXCHANGE B3LYP
BASIS 6-31g(d,p)
$end

$molecule
0 1
C          20.910000     12.170000      3.386000
C          20.053000     12.418000      4.476000
N          22.246000     12.137000      3.569000
C          20.589000     12.482000      5.790000
C          22.743000     12.378000      4.829000
C          21.980000     12.540000      6.007000
C          22.633000     12.584000      7.330000
C          21.922000     13.195000      8.434000
C          23.888000     12.029000      7.635000
N          22.432000     13.295000      9.681000
N          24.600000     11.209000      6.832000
C          24.393000     12.122000      8.959000
C          23.625000     12.735000      9.999000
S          25.880000     10.686000      7.700000
N          25.521000     11.355000      9.168000
C          24.002000     12.761000     11.419000
S          25.640000     12.470000     12.034000
C          23.217000     13.151000     12.497000
C          25.233000     12.970000     13.757000
S          21.455000     13.528000     12.588000
C          23.860000     13.247000     13.740000
C          26.157000     13.116000     14.896000
C          21.662000     13.480000     14.357000
C          22.925000     13.398000     14.838000
N          27.303000     12.424000     14.827000
S          26.132000     14.538000     15.929000
C          28.204000     13.032000     15.634000
C          27.803000     14.226000     16.206000
C          20.417000     11.928000      1.986000
H          18.988000     12.521000      4.291000
H          19.827000     12.603000      6.554000
H          23.828000     12.338000      4.905000
H          20.945000     13.674000      8.385000
H          20.813000     13.703000     14.989000
H          23.174000     13.376000     15.893000
H          29.190000     12.590000     15.683000
H          28.380000     14.789000     16.928000
H          21.168000     11.356000      1.429000
C          20.274000     13.270000      1.227000
H          19.470000     11.379000      1.914000
H          20.322000     13.180000      0.135000
H          21.156000     13.854000      1.516000
C          19.004000     13.962000      1.637000
H          19.195000     14.251000      2.678000
C          17.682000     13.269000      1.544000
H          19.037000     14.948000      1.157000
H          16.903000     13.917000      1.964000
H          17.590000     12.414000      2.226000
C          17.207000     12.852000      0.093000
H          18.051000     12.292000     -0.328000
C          16.925000     14.104000     -0.783000
H          16.367000     12.150000      0.018000
H          16.405000     14.867000     -0.191000
H          16.449000     13.851000     -1.738000
H          17.899000     14.576000     -0.962000
C          19.915000      7.681000     -2.582000
C          20.700000      8.663000     -1.943000
N          18.892000      7.061000     -1.939000
C          20.336000      9.030000     -0.606000
C          18.583000      7.380000     -0.675000
C          19.333000      8.374000      0.057000
C          18.923000      8.662000      1.467000
C          17.666000      9.179000      1.679000
C          19.732000      8.558000      2.634000
N          17.202000      9.625000      2.865000
N          20.995000      8.155000      2.562000
C          19.255000      9.022000      3.836000
C          17.944000      9.515000      3.941000
S          21.568000      8.431000      4.043000
N          20.202000      8.971000      4.790000
C          17.390000     10.004000      5.254000
S          18.313000     10.222000      6.776000
C          16.152000     10.555000      5.451000
C          16.944000     10.949000      7.564000
S          14.821000     10.744000      4.395000
C          15.873000     11.050000      6.678000
C          16.966000     11.330000      8.957000
C          13.869000     11.633000      5.618000
C          14.548000     11.605000      6.820000
N          18.137000     11.271000      9.557000
S          15.533000     11.430000      9.987000
C          18.033000     11.485000     10.907000
C          16.724000     11.452000     11.369000
C          20.186000      7.203000     -4.003000
H          21.540000      9.142000     -2.438000
H          20.799000      9.915000     -0.179000
H          17.757000      6.790000     -0.282000
H          17.093000      9.456000      0.795000
H          12.850000     11.896000      5.364000
H          14.113000     12.040000      7.713000
H          18.960000     11.490000     11.465000
H          16.399000     11.516000     12.399000
H          21.154000      6.690000     -3.940000
C          20.088000      8.361000     -4.958000
H          19.464000      6.430000     -4.295000
H          20.619000      8.280000     -5.914000
H          20.399000      9.314000     -4.512000
C          18.636000      8.641000     -5.338000
H          18.257000      7.696000     -5.747000
C          18.393000      9.869000     -6.333000
H          18.162000      8.875000     -4.377000
H          17.320000      9.988000     -6.529000
H          18.953000      9.663000     -7.253000
C          18.825000     11.198000     -5.859000
H          18.283000     11.322000     -4.913000
C          18.369000     12.237000     -6.917000
H          19.905000     11.200000     -5.666000
H          18.863000     13.213000     -6.833000
H          17.318000     12.455000     -6.693000
H          18.448000     11.971000     -7.978000
$end

--------------------------------------------------------------

             Standard Nuclear Orientation (Angstroms)
    I     Atom           X                Y                Z
 ----------------------------------------------------------------
    1      C       1.9124202876    -1.1049212278     1.3223827590
    2      C       1.1668343661     0.0893811388     1.3647677894
    3      N       1.2818983168    -2.2937841081     1.2300729746
    4      C      -0.2379365955     0.0476647509     1.1577260343
    5      C      -0.0935965469    -2.3083282713     1.2078840808
    6      C      -0.9363666908    -1.1760230963     1.1468883820
    7      C      -2.3866379335    -1.3252072301     0.9163858509
    8      C      -3.2658657874    -0.2433811031     1.3091562825
    9      C      -3.0005262983    -2.4236498720     0.2897760538
   10      N      -4.6069976729    -0.2821242055     1.1511270521
   11      N      -2.3574794939    -3.4129392741    -0.3674531957
   12      C      -4.4091329650    -2.4313253441     0.1097251012
   13      C      -5.2100721637    -1.3182737201     0.5181433698
   14      S      -3.5022741882    -4.3374222347    -1.0746514447
   15      N      -4.8498258576    -3.4555323324    -0.7033824068
   16      C      -6.6488822897    -1.1763276581     0.2556900654
   17      S      -7.7319540154    -2.5115203105    -0.1803904522
   18      C      -7.4359567748    -0.0460344693     0.4383374365
   19      C      -9.2639845700    -1.5050776458    -0.0243983296
   20      S      -6.9728785197     1.6551781706     0.8210750534
   21      C      -8.8193578107    -0.2108893560     0.2748185075
   22      C     -10.6603174589    -1.9664715714    -0.1233079282
   23      C      -8.6576811402     2.0736162565     0.4199968833
   24      C      -9.5263034835     1.0540461435     0.2219413118
   25      N     -10.8669087293    -3.1001472140    -0.8081733050
   26      S     -11.8707277290    -1.5083203646     1.0661467577
   27      C     -12.0393939138    -3.6307785927    -0.3881461248
   28      C     -12.6515821953    -2.9929896477     0.6758424887
   29      C       3.4150140936    -1.1428290359     1.3712484143
   30      H       1.6906198335     1.0275798992     1.5212633810
   31      H      -0.6937663325     1.0329726359     1.1385264870
   32      H      -0.5365744970    -3.2997748059     1.1343633028
   33      H      -2.9696614111     0.6797294613     1.8056448054
   34      H      -8.9815233453     3.0999292840     0.5284486960
   35      H     -10.5764443200     1.1864149244    -0.0129900173
   36      H     -12.3458470914    -4.5603435661    -0.8485333641
   37      H     -13.6237733578    -3.2522439929     1.0743566390
   38      H       3.7713916702    -2.0699253812     0.9076522653
   39      C       3.9037573973    -1.2012454025     2.8393122791
   40      H       3.9187107639    -0.3105576841     0.8642887893
   41      H       4.9049780748    -1.6304769599     2.9665342309
   42      H       3.2172959311    -1.8953884205     3.3387490879
   43      C       3.8413587781     0.1670208783     3.4588425828
   44      H       2.7648331041     0.3653881503     3.5325032813
   45      C       4.5235673542     1.3353813101     2.8215770493
   46      H       4.0807975519     0.0218378383     4.5196328347
   47      H       4.2880237969     2.2451270030     3.3872863446
   48      H       4.0946127478     1.6129767225     1.8502111386
   49      C       6.1001097621     1.2535765061     2.7087186865
   50      H       6.2968865277     0.2873209682     2.2282958103
   51      C       6.7621359508     1.2798304592     4.1142207518
   52      H       6.5982961623     1.9764864211     2.0505085639
   53      H       6.2559749735     2.0130131063     4.7539685700
   54      H       7.8530191993     1.3800725269     4.0638693282
   55      H       6.4937552965     0.3309513311     4.5949506393
   56      C       8.5915708666    -2.4866295441    -1.8773046744
   57      C       7.5421403480    -2.9471289438    -1.0554130212
   58      N       8.4802491833    -1.3385092380    -2.5941067708
   59      C       6.3742655403    -2.1221720796    -0.9540788912
   60      C       7.3691631637    -0.5929674688    -2.5263326803
   61      C       6.2444877608    -0.9877420006    -1.7104783384
   62      C       5.0409948698    -0.0985607047    -1.7002077824
   63      C       5.1890280625     1.1794025679    -1.2131984931
   64      C       3.7072762120    -0.4558834726    -2.0476282502
   65      N       4.1795257526     2.0497063265    -1.0027597752
   66      N       3.4069838776    -1.6847368297    -2.4507485060
   67      C       2.6842260123     0.4331096221    -1.8224870360
   68      C       2.9538856721     1.7231611576    -1.3368475570
   69      S       1.7955475136    -1.6917603691    -2.4837563053
   70      N       1.4871136754    -0.1246029172    -2.0782306114
   71      C       1.8513506240     2.7241456546    -1.1078224394
   72      S       0.0905501998     2.4006269802    -1.2120075315
   73      C       1.9999460742     3.9809202232    -0.5848586971
   74      C      -0.2902331820     3.9948030525    -0.6312832712
   75      S       3.3989419566     4.8700194694    -0.1668502624
   76      C       0.8785183863     4.6948942618    -0.3378040212
   77      C      -1.6476547018     4.4786115749    -0.5341744072
   78      C       2.4420136639     6.2336238890     0.4790794779
   79      C       1.1073048845     6.0142132736     0.2015178524
   80      N      -2.5974437480     3.5877488797    -0.7316242134
   81      S      -2.1076393430     6.1834034196    -0.6147218849
   82      C      -3.8392173667     4.1656730892    -0.7874264360
   83      C      -3.7966830565     5.5499002877    -0.8880241275
   84      C       9.8903544262    -3.2596294138    -2.0691339390
   85      H       7.6090896188    -3.8800096540    -0.5028577066
   86      H       5.6507862867    -2.3600729903    -0.1795442398
   87      H       7.4120479800     0.2854461475    -3.1677182204
   88      H       6.1473607089     1.4233592378    -0.7564735408
   89      H       2.9822329891     7.1133031915     0.8052288386
   90      H       0.3582654517     6.7549565313     0.4586916347
   91      H      -4.6770961050     3.4920452103    -0.9095030532
   92      H      -4.6388331415     6.2155149007    -1.0235284490
   93      H       9.5909929124    -4.1712603514    -2.6015564382
   94      C      10.5781842961    -3.4380901125    -0.7433757223
   95      H      10.5595922011    -2.7263817514    -2.7560434899
   96      H      11.2834345601    -4.2717410437    -0.6428461738
   97      H       9.8776368646    -3.5234700904     0.0967371008
   98      C      11.3826707889    -2.1959388687    -0.3679216366
   99      H      12.0716520312    -2.0336156268    -1.2063147501
  100      C      12.1446656487    -2.2488293989     1.0369358030
  101      H      10.6235109129    -1.4057608294    -0.3205090971
  102      H      12.6782765639    -1.3061119034     1.2114325503
  103      H      12.8306861725    -3.1037764999     1.0073166280
  104      C      11.3039330064    -2.4177238304     2.2378455811
  105      H      10.6034723712    -1.5749598847     2.1816332123
  106      C      12.2346699772    -2.3031757256     3.4737373332
  107      H      10.7474321920    -3.3615913460     2.1824023090
  108      H      11.7972356066    -2.6844523808     4.4048373727
  109      H      12.3566534216    -1.2298176746     3.6616828936
  110      H      13.2303119044    -2.7600301702     3.4217838021
 ----------------------------------------------------------------

    9   -5663.5260389516      8.10E-06 Convergence criterion met
 Total energy in the final basis set = -5663.5260389516

                    Orbital Energies (a.u.)
 --------------------------------------------------------------

 Alpha MOs
 -- Occupied --
-88.990 -88.983 -88.936 -88.932 -88.925 -88.922 -88.914 -88.904
-14.390 -14.382 -14.381 -14.377 -14.350 -14.349 -14.347 -14.343
-14.328 -14.324 -10.274 -10.271 -10.266 -10.263 -10.259 -10.259
-10.249 -10.247 -10.246 -10.244 -10.244 -10.239 -10.239 -10.238
-10.235 -10.234 -10.233 -10.232 -10.231 -10.230 -10.229 -10.228
-10.227 -10.227 -10.225 -10.223 -10.222 -10.216 -10.214 -10.213
-10.213 -10.210 -10.209 -10.209 -10.208 -10.205 -10.202 -10.196
-10.183 -10.181 -10.179 -10.178 -10.176 -10.176 -10.175 -10.173
-10.173 -10.173 -10.171 -10.170  -8.045  -8.039  -7.997  -7.992
 -7.983  -7.980  -7.973  -7.965  -6.010  -6.005  -6.004  -6.003
 -5.998  -5.997  -5.961  -5.958  -5.956  -5.954  -5.953  -5.949
 -5.947  -5.944  -5.943  -5.940  -5.940  -5.937  -5.936  -5.934
 -5.929  -5.929  -5.925  -5.921  -1.043  -1.030  -0.974  -0.969
 -0.966  -0.952  -0.932  -0.929  -0.920  -0.906  -0.905  -0.898
 -0.847  -0.837  -0.834  -0.832  -0.817  -0.812  -0.811  -0.804
 -0.803  -0.798  -0.793  -0.792  -0.788  -0.775  -0.771  -0.763
 -0.748  -0.746  -0.740  -0.739  -0.730  -0.720  -0.710  -0.706
 -0.694  -0.690  -0.675  -0.672  -0.658  -0.654  -0.644  -0.642
 -0.635  -0.635  -0.629  -0.621  -0.615  -0.613  -0.603  -0.602
 -0.599  -0.594  -0.587  -0.585  -0.580  -0.574  -0.554  -0.547
 -0.544  -0.543  -0.540  -0.538  -0.525  -0.524  -0.520  -0.516
 -0.507  -0.504  -0.499  -0.499  -0.488  -0.484  -0.478  -0.476
 -0.474  -0.473  -0.469  -0.468  -0.466  -0.459  -0.453  -0.452
 -0.450  -0.448  -0.446  -0.443  -0.437  -0.436  -0.433  -0.432
 -0.429  -0.423  -0.422  -0.422  -0.418  -0.415  -0.413  -0.411
 -0.408  -0.407  -0.403  -0.400  -0.399  -0.398  -0.397  -0.395
 -0.394  -0.391  -0.390  -0.390  -0.388  -0.387  -0.385  -0.385
 -0.381  -0.380  -0.376  -0.374  -0.367  -0.365  -0.358  -0.354
 -0.352  -0.350  -0.348  -0.347  -0.343  -0.342  -0.340  -0.339
 -0.338  -0.336  -0.334  -0.331  -0.329  -0.326  -0.319  -0.315
 -0.311  -0.309  -0.307  -0.306  -0.303  -0.301  -0.300  -0.299
 -0.297  -0.296  -0.294  -0.293  -0.292  -0.283  -0.282  -0.281
 -0.274  -0.272  -0.264  -0.261  -0.254  -0.253  -0.249  -0.247
 -0.246  -0.245  -0.238  -0.232  -0.197  -0.196

          Ground-State Mulliken Net Atomic Charges

     Atom                 Charge (a.u.)
  ----------------------------------------
      1 C                     0.270363
      2 C                    -0.120325
      3 N                    -0.495357
      4 C                    -0.081691
      5 C                     0.059162
      6 C                     0.051584
      7 C                     0.043106
      8 C                     0.062828
      9 C                     0.232291
     10 N                    -0.526441
     11 N                    -0.556916
     12 C                     0.180296
     13 C                     0.319810
     14 S                     0.613128
     15 N                    -0.548288
     16 C                    -0.235931
     17 S                     0.339926
     18 C                    -0.099453
     19 C                    -0.218318
     20 S                     0.267461
     21 C                     0.121745
     22 C                     0.014390
     23 C                    -0.304215
     24 C                    -0.055696
     25 N                    -0.392012
     26 S                     0.297414
     27 C                     0.117602
     28 C                    -0.306592
     29 C                    -0.246564
     30 H                     0.105226
     31 H                     0.115354
     32 H                     0.119283
     33 H                     0.125996
     34 H                     0.119236
     35 H                     0.112728
     36 H                     0.115696
     37 H                     0.136150
     38 H                     0.118095
     39 C                    -0.188815
     40 H                     0.108348
     41 H                     0.091385
     42 H                     0.109689
     43 C                    -0.175762
     44 H                     0.092918
     45 C                    -0.195859
     46 H                     0.089929
     47 H                     0.092844
     48 H                     0.108942
     49 C                    -0.187878
     50 H                     0.092652
     51 C                    -0.316223
     52 H                     0.096645
     53 H                     0.104144
     54 H                     0.101136
     55 H                     0.104850
     56 C                     0.259683
     57 C                    -0.117149
     58 N                    -0.471903
     59 C                    -0.058072
     60 C                     0.079883
     61 C                     0.016579
     62 C                     0.007252
     63 C                     0.047443
     64 C                     0.224816
     65 N                    -0.529819
     66 N                    -0.541046
     67 C                     0.240867
     68 C                     0.328529
     69 S                     0.618961
     70 N                    -0.578562
     71 C                    -0.243378
     72 S                     0.372639
     73 C                    -0.112152
     74 C                    -0.261253
     75 S                     0.264124
     76 C                     0.157484
     77 C                     0.076205
     78 C                    -0.312674
     79 C                    -0.076270
     80 N                    -0.430366
     81 S                     0.258716
     82 C                     0.127620
     83 C                    -0.317801
     84 C                    -0.218634
     85 H                     0.099322
     86 H                     0.105600
     87 H                     0.110436
     88 H                     0.114574
     89 H                     0.138165
     90 H                     0.113693
     91 H                     0.136860
     92 H                     0.131963
     93 H                     0.109661
     94 C                    -0.187042
     95 H                     0.120380
     96 H                     0.086437
     97 H                     0.096654
     98 C                    -0.184868
     99 H                     0.089531
    100 C                    -0.168583
    101 H                     0.096314
    102 H                     0.090903
    103 H                     0.086858
    104 C                    -0.172428
    105 H                     0.095729
    106 C                    -0.326488
    107 H                     0.094158
    108 H                     0.097397
    109 H                     0.106342
    110 H                     0.106697
  ----------------------------------------
  Sum of atomic charges =     0.000000

                    Cartesian Multipole Moments
 -----------------------------------------------------------------
    Charge (ESU x 10^10)
                 0.0000
    Dipole Moment (Debye)
         X      -4.6312      Y       2.0432      Z       2.3195
       Tot       5.5680
    Quadrupole Moments (Debye-Ang)
        XX    -391.5764     XY     -10.2154     YY    -411.8547
        XZ       3.4579     YZ       3.0324     ZZ    -456.7119

 Total job time:  98.10s(wall), 1086.65s(cpu)
        *  Thank you very much for using Q-Chem.  Have a nice day.  *
