 Q-Chem 4.4, Q-Chem, Inc., Pleasanton, CA (2016)
 Q-Chem 4.4.2 for Intel X86 Linux

User input:
--------------------------------------------------------------
$comment
SP
$end

$rem
MEM_STATIC 5000
MEM_TOTAL 20000
JOBTYPE SP
EXCHANGE B3LYP
BASIS 6-31g(d,p)
$end

$molecule
0 1
C           1.660000     19.364000     10.275000
C           2.955000     19.706000     10.345000
N           1.173000     18.657000      9.271000
C           3.882000     19.380000      9.378000
C           2.051000     18.337000      8.292000
C           3.432000     18.658000      8.255000
C           4.375000     18.176000      7.140000
C           5.651000     17.692000      7.391000
C           3.960000     18.113000      5.781000
N           6.467000     17.141000      6.471000
N           2.748000     18.528000      5.360000
C           4.885000     17.685000      4.809000
C           6.156000     17.148000      5.145000
S           2.842000     18.124000      3.727000
N           4.347000     17.690000      3.592000
C           7.163000     16.507000      4.237000
S           8.390000     15.417000      4.873000
C           7.484000     16.860000      2.960000
C           9.404000     15.772000      3.430000
S           6.761000     18.063000      1.924000
C           8.671000     16.406000      2.506000
C          10.763000     15.306000      3.380000
C           7.988000     17.745000      0.658000
C           9.066000     16.951000      1.226000
N          11.425000     15.278000      2.245000
S          11.665000     14.717000      4.801000
C          12.717000     14.700000      2.391000
C          12.991000     14.298000      3.686000
C           0.655000     19.571000     11.391000
H           3.318000     20.161000     11.262000
H           4.925000     19.631000      9.552000
H           1.688000     17.706000      7.482000
H           6.012000     17.683000      8.418000
H           7.943000     18.337000     -0.246000
H           9.941000     16.695000      0.641000
H          13.384000     14.538000      1.554000
H          13.977000     13.989000      4.007000
H           0.360000     20.616000     11.547000
C           1.039000     19.002000     12.785000
H          -0.354000     19.252000     11.100000
H           0.273000     19.385000     13.470000
H           2.058000     19.280000     13.082000
C           0.848000     17.468000     12.710000
H          -0.163000     17.234000     12.354000
C           0.949000     16.914000     14.164000
H           1.606000     17.066000     12.027000
H           0.127000     17.360000     14.738000
H           1.874000     17.171000     14.695000
C           0.736000     15.443000     14.309000
H          -0.196000     15.067000     13.870000
C           0.715000     15.030000     15.805000
H           1.559000     14.903000     13.825000
H           0.835000     13.943000     15.890000
H          -0.240000     15.336000     16.250000
H           1.589000     15.541000     16.228000
C          19.915000      7.681000     -2.582000
C          20.700000      8.663000     -1.943000
N          18.892000      7.061000     -1.939000
C          20.336000      9.030000     -0.606000
C          18.583000      7.380000     -0.675000
C          19.333000      8.374000      0.057000
C          18.923000      8.662000      1.467000
C          17.666000      9.179000      1.679000
C          19.732000      8.558000      2.634000
N          17.202000      9.625000      2.865000
N          20.995000      8.155000      2.562000
C          19.255000      9.022000      3.836000
C          17.944000      9.515000      3.941000
S          21.568000      8.431000      4.043000
N          20.202000      8.971000      4.790000
C          17.390000     10.004000      5.254000
S          18.313000     10.222000      6.776000
C          16.152000     10.555000      5.451000
C          16.944000     10.949000      7.564000
S          14.821000     10.744000      4.395000
C          15.873000     11.050000      6.678000
C          16.966000     11.330000      8.957000
C          13.869000     11.633000      5.618000
C          14.548000     11.605000      6.820000
N          18.137000     11.271000      9.557000
S          15.533000     11.430000      9.987000
C          18.033000     11.485000     10.907000
C          16.724000     11.452000     11.369000
C          20.186000      7.203000     -4.003000
H          21.540000      9.142000     -2.438000
H          20.799000      9.915000     -0.179000
H          17.757000      6.790000     -0.282000
H          17.093000      9.456000      0.795000
H          12.850000     11.896000      5.364000
H          14.113000     12.040000      7.713000
H          18.960000     11.490000     11.465000
H          16.399000     11.516000     12.399000
H          21.154000      6.690000     -3.940000
C          20.088000      8.361000     -4.958000
H          19.464000      6.430000     -4.295000
H          20.619000      8.280000     -5.914000
H          20.399000      9.314000     -4.512000
C          18.636000      8.641000     -5.338000
H          18.257000      7.696000     -5.747000
C          18.393000      9.869000     -6.333000
H          18.162000      8.875000     -4.377000
H          17.320000      9.988000     -6.529000
H          18.953000      9.663000     -7.253000
C          18.825000     11.198000     -5.859000
H          18.283000     11.322000     -4.913000
C          18.369000     12.237000     -6.917000
H          19.905000     11.200000     -5.666000
H          18.863000     13.213000     -6.833000
H          17.318000     12.455000     -6.693000
H          18.448000     11.971000     -7.978000
$end

--------------------------------------------------------------

             Standard Nuclear Orientation (Angstroms)
    I     Atom           X                Y                Z
 ----------------------------------------------------------------
    1      C     -13.0715519438     0.1217323060    -0.3734672317
    2      C     -12.2142640433     0.5030135146    -1.3318883790
    3      N     -12.7331838034    -0.7377274479     0.5709214240
    4      C     -10.9264723484     0.0221163547    -1.4368858660
    5      C     -11.4820372604    -1.2469285676     0.4868289293
    6      C     -10.5019691808    -0.9285161451    -0.4876715009
    7      C      -9.0719354303    -1.4930130072    -0.4538371205
    8      C      -7.9507670489    -0.7173152407    -0.7121149463
    9      C      -8.8035258890    -2.8345874877    -0.0649808083
   10      N      -6.6746122762    -1.1268750538    -0.5723052336
   11      N      -9.7722844154    -3.7232884109     0.2352317605
   12      C      -7.4713472177    -3.2913474584    -0.0812078475
   13      C      -6.3671880423    -2.4253400903    -0.2993127623
   14      S      -8.8353594494    -5.0505314377     0.6817052266
   15      N      -7.3902234548    -4.5638644996     0.2991568658
   16      C      -4.9048844462    -2.7368214061    -0.1808155781
   17      S      -3.7243820328    -1.4554577294     0.0694766109
   18      C      -4.2623692535    -3.8872520076    -0.5301902455
   19      C      -2.4595041234    -2.5334528760    -0.6193487211
   20      S      -4.9205512786    -5.3999604942    -1.0974145895
   21      C      -2.9280986094    -3.7849148900    -0.7046894219
   22      C      -1.1529821871    -2.0078374165    -0.9079068935
   23      C      -3.2706989636    -6.0564997432    -1.3348015166
   24      C      -2.3078311281    -4.9693994196    -1.2557925438
   25      N      -0.1341607256    -2.8110969688    -1.1177399735
   26      S      -0.7782380149    -0.2665150934    -0.9923425048
   27      C       1.0844607048    -2.0980041179    -1.2941610477
   28      C       0.9304742694    -0.7259723397    -1.2074317147
   29      C     -14.4332109533     0.7461718190    -0.1404650078
   30      H     -12.5065705283     1.3164746026    -1.9895516493
   31      H     -10.2750528030     0.4423551606    -2.1985799791
   32      H     -11.1591077530    -1.9132992380     1.2853880460
   33      H      -8.0914236364     0.3280063527    -0.9816506414
   34      H      -3.1803693813    -7.0566673761    -1.7363115073
   35      H      -1.2526284716    -5.1424317486    -1.4289778976
   36      H       2.0393492436    -2.5922847917    -1.4189668727
   37      H       1.7153382670    -0.0306007180    -1.4741990536
   38      H     -15.1839888763     0.4919959471    -0.8988271485
   39      C     -14.4692532933     2.2908550840     0.0241787301
   40      H     -14.9789345551     0.2508206460     0.6727606471
   41      H     -15.5342003230     2.5526905538     0.0240751651
   42      H     -13.9004373065     2.8066092112    -0.7595942303
   43      C     -13.9302669258     2.6023013446     1.4411321247
   44      H     -14.4867625914     2.0232468690     2.1885419778
   45      C     -14.2239848251     4.1058336011     1.7315689494
   46      H     -12.8643765072     2.3451548742     1.4613881908
   47      H     -15.3139698838     4.2314164842     1.7161575521
   48      H     -13.8197825478     4.8085399859     0.9923401244
   49      C     -13.8223637126     4.5906245301     3.0857894770
   50      H     -14.2197305759     4.0028544594     3.9220591224
   51      C     -14.2918345251     6.0523404377     3.3138459648
   52      H     -12.7290676232     4.5735659175     3.1729540610
   53      H     -13.7642550528     6.4797745499     4.1753295573
   54      H     -15.3734245312     6.0589704688     3.4977076014
   55      H     -13.9921041359     6.5682584023     2.3930222316
   56      C      11.9459749332    -2.2554435936     1.5006583522
   57      C      11.8810265525    -1.7084972236     0.2023897451
   58      N      11.1249982138    -1.8260933587     2.4936505989
   59      C      10.8691798080    -0.7245171621    -0.0480167331
   60      C      10.2084699500    -0.8765159122     2.2629633325
   61      C      10.0712293083    -0.2603524989     0.9637837243
   62      C       9.0258805373     0.7973947128     0.7977693178
   63      C       7.7105934910     0.4361007516     0.9760069660
   64      C       9.2247720541     2.1403506312     0.3687033956
   65      N       6.6485520447     1.2289951469     0.7226407406
   66      N      10.4368192598     2.5971599109     0.0771063224
   67      C       8.1378668503     2.9383335449     0.1050950736
   68      C       6.8348774868     2.4700233868     0.3411020959
   69      S      10.1515215917     4.0384446373    -0.5855923860
   70      N       8.5138867455     4.1182419317    -0.4202155366
   71      C       5.6289713843     3.3362290848     0.0852033648
   72      S       5.6307798121     4.9436871839    -0.7097885779
   73      C       4.3205483828     2.9577448249     0.2260327449
   74      C       3.8930328394     5.0058134006    -0.7066593637
   75      S       3.6215675803     1.5227171398     0.8380289710
   76      C       3.3678528430     3.8330387278    -0.1671933885
   77      C       3.1597413976     6.1603987655    -1.1706747690
   78      C       1.9637634602     2.0648908352     0.4506180997
   79      C       2.0114253687     3.3758085684     0.0195124987
   80      N       3.8672029184     7.0951990608    -1.7709818609
   81      S       1.5386415756     6.6003680089    -0.6203553782
   82      C       3.1232721906     8.2184348743    -2.0240043488
   83      C       1.8977191494     8.2239479729    -1.3713150285
   84      C      12.9667156020    -3.3132406504     1.9010579945
   85      H      12.5541912241    -2.0226462917    -0.5902171486
   86      H      10.6782091780    -0.4445263950    -1.0800333942
   87      H       9.6372102902    -0.6180258385     3.1527218856
   88      H       7.5064540999    -0.6253087175     1.1111034057
   89      H       1.1441090829     1.4325751267     0.7674611943
   90      H       1.1007289162     3.9168066416    -0.2125479595
   91      H       3.6260961106     9.0185146288    -2.5510323292
   92      H       1.1767086985     9.0304690368    -1.3543237608
   93      H      13.9336749836    -2.7978698506     1.8415223504
   94      C      12.7927469786    -4.5390059927     1.0467587239
   95      H      12.8458432431    -3.5868488099     2.9568067563
   96      H      13.6543551501    -5.2076463022     0.9326995494
   97      H      12.4431655923    -4.3102659029     0.0322061991
   98      C      11.6731739799    -5.4291016446     1.5809778090
   99      H      11.9494337643    -5.6486149257     2.6199395268
  100      C      11.3701835034    -6.7576781950     0.7442346460
  101      H      10.7891511986    -4.7815623198     1.5346146232
  102      H      10.5449213315    -7.3136671157     1.2065382991
  103      H      12.2935461976    -7.3486151027     0.7191168020
  104      C      10.9436653610    -6.5727501276    -0.6562741487
  105      H      10.0589915579    -5.9290178757    -0.5725063145
  106      C      10.5784676300    -7.9723745523    -1.2170798967
  107      H      11.7237302270    -6.0519657670    -1.2254274274
  108      H      10.5176301390    -8.0180446630    -2.3115574162
  109      H       9.5512097222    -8.1707482549    -0.8889182522
  110      H      11.2030327823    -8.8279453723    -0.9331169722
 ----------------------------------------------------------------

   10   -5663.5087106963      3.27E-06 Convergence criterion met
 Total energy in the final basis set = -5663.5087106963

                    Orbital Energies (a.u.)
 --------------------------------------------------------------

 Alpha MOs
 -- Occupied --
-88.989 -88.987 -88.934 -88.927 -88.925 -88.924 -88.907 -88.905
-14.388 -14.388 -14.385 -14.383 -14.349 -14.348 -14.346 -14.344
-14.327 -14.327 -10.272 -10.272 -10.270 -10.265 -10.259 -10.257
-10.253 -10.252 -10.243 -10.241 -10.241 -10.240 -10.240 -10.239
-10.237 -10.236 -10.236 -10.233 -10.233 -10.231 -10.231 -10.230
-10.229 -10.228 -10.224 -10.224 -10.220 -10.220 -10.219 -10.216
-10.213 -10.212 -10.211 -10.210 -10.209 -10.208 -10.205 -10.190
-10.185 -10.184 -10.179 -10.177 -10.177 -10.176 -10.175 -10.175
-10.174 -10.172 -10.170 -10.169  -8.045  -8.044  -7.993  -7.987
 -7.983  -7.983  -7.968  -7.966  -6.010  -6.009  -6.004  -6.003
 -6.003  -6.001  -5.957  -5.954  -5.951  -5.950  -5.948  -5.948
 -5.947  -5.944  -5.944  -5.944  -5.940  -5.940  -5.932  -5.930
 -5.929  -5.926  -5.924  -5.922  -1.049  -1.049  -0.971  -0.968
 -0.960  -0.955  -0.947  -0.935  -0.923  -0.922  -0.913  -0.911
 -0.848  -0.841  -0.837  -0.828  -0.814  -0.810  -0.807  -0.807
 -0.801  -0.800  -0.795  -0.795  -0.790  -0.785  -0.773  -0.771
 -0.752  -0.750  -0.744  -0.742  -0.731  -0.727  -0.708  -0.706
 -0.693  -0.692  -0.676  -0.674  -0.657  -0.652  -0.648  -0.645
 -0.638  -0.636  -0.633  -0.628  -0.615  -0.613  -0.605  -0.601
 -0.599  -0.591  -0.589  -0.586  -0.582  -0.574  -0.568  -0.556
 -0.556  -0.546  -0.545  -0.540  -0.527  -0.524  -0.519  -0.513
 -0.507  -0.507  -0.502  -0.501  -0.491  -0.486  -0.479  -0.479
 -0.477  -0.477  -0.475  -0.472  -0.471  -0.464  -0.454  -0.450
 -0.448  -0.448  -0.444  -0.444  -0.441  -0.437  -0.437  -0.435
 -0.434  -0.429  -0.425  -0.423  -0.417  -0.416  -0.414  -0.413
 -0.410  -0.410  -0.405  -0.405  -0.402  -0.400  -0.398  -0.397
 -0.396  -0.394  -0.393  -0.391  -0.391  -0.387  -0.387  -0.383
 -0.382  -0.378  -0.377  -0.371  -0.367  -0.364  -0.360  -0.356
 -0.355  -0.351  -0.351  -0.351  -0.346  -0.345  -0.344  -0.343
 -0.340  -0.340  -0.336  -0.333  -0.328  -0.327  -0.322  -0.317
 -0.316  -0.316  -0.313  -0.309  -0.306  -0.304  -0.304  -0.298
 -0.298  -0.294  -0.294  -0.287  -0.286  -0.285  -0.282  -0.279
 -0.274  -0.274  -0.270  -0.265  -0.255  -0.254  -0.253  -0.250
 -0.249  -0.248  -0.240  -0.237  -0.198  -0.195

          Ground-State Mulliken Net Atomic Charges

     Atom                 Charge (a.u.)
  ----------------------------------------
      1 C                     0.295404
      2 C                    -0.110393
      3 N                    -0.483898
      4 C                    -0.078766
      5 C                     0.091433
      6 C                     0.031084
      7 C                     0.036221
      8 C                     0.062086
      9 C                     0.228121
     10 N                    -0.519005
     11 N                    -0.560327
     12 C                     0.192095
     13 C                     0.289334
     14 S                     0.596891
     15 N                    -0.513534
     16 C                    -0.216449
     17 S                     0.301231
     18 C                    -0.102863
     19 C                    -0.227847
     20 S                     0.270367
     21 C                     0.181355
     22 C                     0.077748
     23 C                    -0.300200
     24 C                    -0.080933
     25 N                    -0.451248
     26 S                     0.241325
     27 C                     0.114991
     28 C                    -0.310890
     29 C                    -0.248410
     30 H                     0.083134
     31 H                     0.100308
     32 H                     0.107282
     33 H                     0.109321
     34 H                     0.137231
     35 H                     0.133682
     36 H                     0.125696
     37 H                     0.151309
     38 H                     0.095792
     39 C                    -0.181010
     40 H                     0.117800
     41 H                     0.095983
     42 H                     0.094489
     43 C                    -0.165508
     44 H                     0.100838
     45 C                    -0.164186
     46 H                     0.100038
     47 H                     0.086313
     48 H                     0.084519
     49 C                    -0.179637
     50 H                     0.088723
     51 C                    -0.315355
     52 H                     0.088190
     53 H                     0.098552
     54 H                     0.103197
     55 H                     0.098271
     56 C                     0.259240
     57 C                    -0.115181
     58 N                    -0.470657
     59 C                    -0.062424
     60 C                     0.079309
     61 C                     0.020136
     62 C                     0.006439
     63 C                     0.057421
     64 C                     0.222034
     65 N                    -0.528398
     66 N                    -0.535415
     67 C                     0.226001
     68 C                     0.338325
     69 S                     0.597472
     70 N                    -0.572813
     71 C                    -0.241068
     72 S                     0.371358
     73 C                    -0.107638
     74 C                    -0.251658
     75 S                     0.259845
     76 C                     0.156325
     77 C                     0.075579
     78 C                    -0.327418
     79 C                    -0.078253
     80 N                    -0.424128
     81 S                     0.261836
     82 C                     0.133281
     83 C                    -0.315617
     84 C                    -0.218875
     85 H                     0.098382
     86 H                     0.101112
     87 H                     0.111705
     88 H                     0.113034
     89 H                     0.150216
     90 H                     0.115830
     91 H                     0.122101
     92 H                     0.133357
     93 H                     0.109621
     94 C                    -0.187029
     95 H                     0.121224
     96 H                     0.086903
     97 H                     0.096074
     98 C                    -0.185092
     99 H                     0.090090
    100 C                    -0.168099
    101 H                     0.096154
    102 H                     0.091496
    103 H                     0.086880
    104 C                    -0.172095
    105 H                     0.095328
    106 C                    -0.326663
    107 H                     0.093532
    108 H                     0.097096
    109 H                     0.106780
    110 H                     0.107105
  ----------------------------------------
  Sum of atomic charges =     0.000000

                    Cartesian Multipole Moments
 -----------------------------------------------------------------
    Charge (ESU x 10^10)
                 0.0000
    Dipole Moment (Debye)
         X       0.6060      Y       1.5993      Z      -3.3956
       Tot       3.8020
    Quadrupole Moments (Debye-Ang)
        XX    -438.3065     XY     -17.8600     YY    -411.6968
        XZ      -9.8565     YZ      -1.0604     ZZ    -452.5452

 Total job time:  91.25s(wall), 984.85s(cpu)
        *  Thank you very much for using Q-Chem.  Have a nice day.  *
