 Q-Chem 4.4, Q-Chem, Inc., Pleasanton, CA (2016)
 Q-Chem 4.4.2 for Intel X86 Linux

User input:
--------------------------------------------------------------
$comment
SP
$end

$rem
MEM_STATIC 5000
MEM_TOTAL 20000
JOBTYPE SP
EXCHANGE B3LYP
BASIS 6-31g(d,p)
$end

$molecule
0 1
C          16.843000      7.190000     12.151000
C          17.307000      7.861000     11.064000
N          17.443000      6.092000     12.654000
C          18.516000      7.509000     10.475000
C          18.638000      5.724000     12.101000
C          19.313000      6.488000     11.179000
C          20.698000      6.083000     10.620000
C          21.049000      4.731000     10.680000
C          21.599000      7.037000     10.149000
N          22.248000      4.325000     10.221000
N          21.373000      8.367000     10.122000
C          22.816000      6.636000      9.631000
C          23.177000      5.286000      9.773000
S          22.576000      8.965000      9.345000
N          23.514000      7.653000      9.034000
C          24.479000      4.715000      9.245000
S          25.575000      5.634000      8.358000
C          24.943000      3.383000      9.392000
C          26.697000      4.244000      8.064000
S          24.293000      2.054000     10.392000
C          26.139000      3.172000      8.762000
C          27.998000      4.124000      7.418000
C          25.780000      1.149000      9.948000
C          26.531000      1.828000      9.010000
N          28.505000      5.269000      7.110000
S          28.890000      2.689000      6.980000
C          29.586000      5.081000      6.286000
C          30.006000      3.768000      6.224000
C          15.516000      7.576000     12.807000
H          16.704000      8.650000     10.627000
H          18.889000      7.984000      9.573000
H          19.179000      4.870000     12.506000
H          20.334000      4.001000     11.057000
H          25.908000      0.178000     10.409000
H          27.374000      1.346000      8.528000
H          30.032000      5.970000      5.860000
H          30.919000      3.390000      5.783000
H          14.862000      7.889000     11.984000
C          15.565000      8.574000     13.975000
H          15.269000      6.627000     13.298000
H          15.898000      9.569000     13.656000
H          16.257000      8.230000     14.753000
C          14.139000      8.723000     14.604000
H          13.775000      7.699000     14.754000
C          13.210000      9.530000     13.712000
H          14.270000      9.188000     15.589000
H          13.259000      9.057000     12.723000
H          13.638000     10.518000     13.499000
C          11.777000      9.671000     14.296000
H          11.239000     10.282000     13.560000
C          11.791000     10.238000     15.698000
H          11.195000      8.751000     14.427000
H          10.814000     10.654000     15.972000
H          12.622000     10.951000     15.765000
H          11.914000      9.532000     16.529000
C          19.915000      7.681000     -2.582000
C          20.700000      8.663000     -1.943000
N          18.892000      7.061000     -1.939000
C          20.336000      9.030000     -0.606000
C          18.583000      7.380000     -0.675000
C          19.333000      8.374000      0.057000
C          18.923000      8.662000      1.467000
C          17.666000      9.179000      1.679000
C          19.732000      8.558000      2.634000
N          17.202000      9.625000      2.865000
N          20.995000      8.155000      2.562000
C          19.255000      9.022000      3.836000
C          17.944000      9.515000      3.941000
S          21.568000      8.431000      4.043000
N          20.202000      8.971000      4.790000
C          17.390000     10.004000      5.254000
S          18.313000     10.222000      6.776000
C          16.152000     10.555000      5.451000
C          16.944000     10.949000      7.564000
S          14.821000     10.744000      4.395000
C          15.873000     11.050000      6.678000
C          16.966000     11.330000      8.957000
C          13.869000     11.633000      5.618000
C          14.548000     11.605000      6.820000
N          18.137000     11.271000      9.557000
S          15.533000     11.430000      9.987000
C          18.033000     11.485000     10.907000
C          16.724000     11.452000     11.369000
C          20.186000      7.203000     -4.003000
H          21.540000      9.142000     -2.438000
H          20.799000      9.915000     -0.179000
H          17.757000      6.790000     -0.282000
H          17.093000      9.456000      0.795000
H          12.850000     11.896000      5.364000
H          14.113000     12.040000      7.713000
H          18.960000     11.490000     11.465000
H          16.399000     11.516000     12.399000
H          21.154000      6.690000     -3.940000
C          20.088000      8.361000     -4.958000
H          19.464000      6.430000     -4.295000
H          20.619000      8.280000     -5.914000
H          20.399000      9.314000     -4.512000
C          18.636000      8.641000     -5.338000
H          18.257000      7.696000     -5.747000
C          18.393000      9.869000     -6.333000
H          18.162000      8.875000     -4.377000
H          17.320000      9.988000     -6.529000
H          18.953000      9.663000     -7.253000
C          18.825000     11.198000     -5.859000
H          18.283000     11.322000     -4.913000
C          18.369000     12.237000     -6.917000
H          19.905000     11.200000     -5.666000
H          18.863000     13.213000     -6.833000
H          17.318000     12.455000     -6.693000
H          18.448000     11.971000     -7.978000
$end

--------------------------------------------------------------

             Standard Nuclear Orientation (Angstroms)
    I     Atom           X                Y                Z
 ----------------------------------------------------------------
    1      C      -5.6436106600    -2.9396307550     1.3919067473
    2      C      -4.4694580441    -2.7718872908     0.7283302521
    3      N      -6.3163436863    -1.9253428590     1.9726505284
    4      C      -3.9526664492    -1.4999738431     0.5099987861
    5      C      -5.8374822623    -0.6608298423     1.7702732390
    6      C      -4.8136438027    -0.3689359386     0.9008149262
    7      C      -4.3362245653     1.0792445784     0.6370440752
    8      C      -4.6087545687     2.0382467294     1.6172212386
    9      C      -3.7302501690     1.4369568372    -0.5665318347
   10      N      -4.2286900277     3.3168414629     1.4331982724
   11      N      -3.4948010949     0.5945351370    -1.5939530787
   12      C      -3.2912810344     2.7337272193    -0.7560224013
   13      C      -3.6445840570     3.6935391308     0.2067460385
   14      S      -2.6444971183     1.4140099877    -2.6009218551
   15      N      -2.5493213175     2.8949180719    -1.8968183023
   16      C      -3.2228997051     5.1478874781     0.1225902770
   17      S      -2.2131032868     5.7271692810    -1.0928478277
   18      C      -3.5792171980     6.1880209075     1.0182963077
   19      C      -2.1484148053     7.4045777979    -0.4149569309
   20      S      -4.7681919992     6.1866825221     2.3506168888
   21      C      -2.9998854775     7.3833617648     0.6906196492
   22      C      -1.5400169793     8.6481646885    -0.8706550007
   23      C      -4.4830020536     7.9575393899     2.4509296436
   24      C      -3.4572248653     8.3582632750     1.6190116622
   25      N      -1.0619988606     8.5566277477    -2.0648315650
   26      S      -1.3381310246    10.1597447408    -0.0214784545
   27      C      -0.2864807715     9.6571515438    -2.3299731639
   28      C      -0.4330203298    10.6673864300    -1.4014449561
   29      C      -6.2202938251    -4.3363124751     1.6306067677
   30      H      -3.9099535614    -3.6437254783     0.4059145134
   31      H      -2.9909670400    -1.3313627410     0.0355912160
   32      H      -6.3749602058     0.1915027611     2.1833937944
   33      H      -5.0886172348     1.7409181471     2.5486618088
   34      H      -5.0904849525     8.5032502050     3.1615000017
   35      H      -3.0632369678     9.3664434146     1.6793717714
   36      H       0.2687989400     9.6473203179    -3.2585639182
   37      H      -0.0639513108    11.6822571247    -1.4704343192
   38      H      -5.3531010644    -4.9879477824     1.7929709945
   39      C      -7.2192320916    -4.8785541344     0.5958481858
   40      H      -6.8508028285    -4.1297608893     2.5038111189
   41      H      -6.7521998418    -5.0472720209    -0.3819504399
   42      H      -8.0471184760    -4.1749930226     0.4472214842
   43      C      -7.8052649664    -6.2434810508     1.0906794526
   44      H      -8.1096070690    -6.0733358336     2.1308710165
   45      C      -6.7907448349    -7.3690951188     0.9736500859
   46      H      -8.7070325123    -6.4392445381     0.4972968187
   47      H      -5.8877996548    -7.0126589405     1.4854061337
   48      H      -6.4303146201    -7.4607650057    -0.0590084695
   49      C      -7.3335117604    -8.7324161989     1.4847133865
   50      H      -6.5068938776    -9.4358183439     1.3222655542
   51      C      -8.6303311177    -9.1147021364     0.8069184201
   52      H      -7.6010582402    -8.8008252250     2.5458562074
   53      H      -8.8279845168   -10.1896517200     0.8967934801
   54      H      -8.5926786707    -8.7456677398    -0.2254647004
   55      H      -9.5620392176    -8.7336681082     1.2437926422
   56      C       8.9598281776     0.7317467582     1.3811702223
   57      C       8.4746914617     0.8815088678     0.0654636906
   58      N       8.2369376233     0.0907176067     2.3355752063
   59      C       7.2141836707     0.2736669570    -0.2450235396
   60      C       7.0406059577    -0.4397794081     2.0486928905
   61      C       6.4657681340    -0.3341173768     0.7278003848
   62      C       5.1212550965    -0.9495788245     0.4983752371
   63      C       5.0029326250    -2.3118824083     0.6480774023
   64      C       3.9454505904    -0.2940799105     0.0347040851
   65      N       3.9047184448    -3.0324226571     0.3389570953
   66      N       3.9431616289     1.0060800345    -0.2342585111
   67      C       2.8343417402    -1.0360396400    -0.2855487568
   68      C       2.8184392470    -2.4245639601    -0.0744982336
   69      S       2.5182972382     1.2448042651    -0.9488480506
   70      N       1.8760081855    -0.2685004337    -0.8350998143
   71      C       1.6022277509    -3.2549781838    -0.3926928499
   72      S       0.1248692981    -2.6872543723    -1.2359239426
   73      C       1.5038488813    -4.6160782962    -0.2796349803
   74      C      -0.5288092080    -4.2977687971    -1.2867343570
   75      S       2.5876634272    -5.7760229251     0.3546303334
   76      C       0.3711844820    -5.2031739156    -0.7277254757
   77      C      -1.8457354737    -4.5816821209    -1.8074957565
   78      C       1.5259479118    -7.1397270382    -0.0986082971
   79      C       0.3284955768    -6.6372023873    -0.5678692912
   80      N      -2.4575372473    -3.5857521583    -2.4145740870
   81      S      -2.8354354557    -5.9625820711    -1.3196450894
   82      C      -3.7568918320    -3.8941486261    -2.7238979976
   83      C      -4.2072640647    -5.0546144969    -2.1086762370
   84      C      10.2868366768     1.3199426202     1.8440309692
   85      H       9.0310131274     1.4197569263    -0.6966788366
   86      H       6.9261083641     0.2087177375    -1.2903546913
   87      H       6.5676562234    -0.9031647736     2.9126474910
   88      H       5.9240934774    -2.8704362859     0.8093047256
   89      H       1.8264101760    -8.1321319656     0.2126807773
   90      H      -0.4822521461    -7.3024999239    -0.8434891701
   91      H      -4.3151791293    -3.1379349620    -3.2597843549
   92      H      -5.2119767974    -5.4550142624    -2.1378884337
   93      H      10.1365932185     2.4059678771     1.7977919736
   94      C      11.4111196526     0.7507614078     1.0226823601
   95      H      10.4611798970     1.0938350849     2.9035387908
   96      H      12.3383413811     1.3322476954     0.9549212835
   97      H      11.1161438746     0.5189649296    -0.0083878039
   98      C      11.8423668125    -0.6156340793     1.5500278447
   99      H      12.1026161952    -0.4499514710     2.6030076793
  100      C      13.0182807684    -1.3415846133     0.7454905922
  101      H      10.9335183488    -1.2225800074     1.4574853659
  102      H      13.2395130395    -2.3156155444     1.1996117515
  103      H      13.8902539299    -0.6769980368     0.7660694152
  104      C      12.7530990435    -1.6538528128    -0.6721511906
  105      H      11.8425366205    -2.2650163366    -0.6345849678
  106      C      13.9636579965    -2.4674894908    -1.2006995587
  107      H      12.5535901434    -0.7324645404    -1.2333043340
  108      H      14.0282862041    -2.5209644686    -2.2946061459
  109      H      13.7852275309    -3.5060296168    -0.8975527700
  110      H      14.9696647547    -2.1798144236    -0.8722007637
 ----------------------------------------------------------------

    9   -5663.4975371784      9.21E-06 Convergence criterion met
 Total energy in the final basis set = -5663.4975371784

                    Orbital Energies (a.u.)
 --------------------------------------------------------------

 Alpha MOs
 -- Occupied --
-88.992 -88.990 -88.938 -88.928 -88.928 -88.923 -88.906 -88.905
-14.389 -14.387 -14.384 -14.383 -14.353 -14.349 -14.348 -14.333
-14.327 -14.326 -10.276 -10.267 -10.266 -10.263 -10.253 -10.253
-10.252 -10.252 -10.243 -10.242 -10.242 -10.239 -10.239 -10.238
-10.237 -10.234 -10.233 -10.231 -10.230 -10.226 -10.226 -10.225
-10.225 -10.224 -10.221 -10.221 -10.220 -10.219 -10.216 -10.213
-10.213 -10.212 -10.211 -10.210 -10.205 -10.201 -10.200 -10.187
-10.185 -10.183 -10.182 -10.182 -10.182 -10.178 -10.177 -10.177
-10.175 -10.175 -10.174 -10.173  -8.049  -8.046  -7.997  -7.989
 -7.986  -7.982  -7.966  -7.965  -6.014  -6.011  -6.008  -6.007
 -6.005  -6.003  -5.961  -5.958  -5.954  -5.953  -5.951  -5.950
 -5.947  -5.946  -5.946  -5.943  -5.942  -5.939  -5.931  -5.929
 -5.927  -5.926  -5.923  -5.921  -1.055  -1.050  -0.976  -0.974
 -0.969  -0.946  -0.935  -0.932  -0.923  -0.912  -0.912  -0.907
 -0.850  -0.841  -0.837  -0.829  -0.814  -0.811  -0.811  -0.809
 -0.803  -0.803  -0.797  -0.790  -0.789  -0.786  -0.774  -0.767
 -0.751  -0.748  -0.743  -0.736  -0.733  -0.721  -0.709  -0.707
 -0.693  -0.689  -0.677  -0.674  -0.658  -0.656  -0.650  -0.646
 -0.639  -0.633  -0.632  -0.623  -0.616  -0.607  -0.607  -0.601
 -0.600  -0.593  -0.589  -0.583  -0.583  -0.574  -0.563  -0.556
 -0.547  -0.542  -0.539  -0.537  -0.528  -0.525  -0.521  -0.518
 -0.507  -0.504  -0.503  -0.498  -0.491  -0.488  -0.480  -0.479
 -0.478  -0.472  -0.471  -0.471  -0.469  -0.457  -0.456  -0.454
 -0.450  -0.448  -0.447  -0.444  -0.441  -0.439  -0.436  -0.435
 -0.432  -0.431  -0.426  -0.420  -0.418  -0.417  -0.414  -0.413
 -0.411  -0.408  -0.405  -0.403  -0.402  -0.399  -0.397  -0.395
 -0.395  -0.395  -0.394  -0.391  -0.390  -0.387  -0.387  -0.384
 -0.382  -0.377  -0.374  -0.367  -0.367  -0.364  -0.357  -0.356
 -0.353  -0.352  -0.352  -0.349  -0.347  -0.345  -0.344  -0.343
 -0.341  -0.339  -0.337  -0.334  -0.330  -0.327  -0.319  -0.318
 -0.316  -0.315  -0.312  -0.309  -0.306  -0.305  -0.303  -0.301
 -0.299  -0.299  -0.298  -0.291  -0.287  -0.286  -0.278  -0.277
 -0.275  -0.271  -0.267  -0.265  -0.256  -0.252  -0.251  -0.249
 -0.247  -0.242  -0.241  -0.232  -0.199  -0.191

          Ground-State Mulliken Net Atomic Charges

     Atom                 Charge (a.u.)
  ----------------------------------------
      1 C                     0.265753
      2 C                    -0.096303
      3 N                    -0.500659
      4 C                    -0.076218
      5 C                     0.064428
      6 C                     0.036300
      7 C                     0.017348
      8 C                     0.080643
      9 C                     0.208592
     10 N                    -0.516797
     11 N                    -0.511815
     12 C                     0.217154
     13 C                     0.276498
     14 S                     0.626706
     15 N                    -0.569872
     16 C                    -0.234386
     17 S                     0.364067
     18 C                    -0.130742
     19 C                    -0.216354
     20 S                     0.272553
     21 C                     0.158956
     22 C                     0.052799
     23 C                    -0.302757
     24 C                    -0.094669
     25 N                    -0.415416
     26 S                     0.282955
     27 C                     0.112420
     28 C                    -0.320114
     29 C                    -0.227512
     30 H                     0.096812
     31 H                     0.128357
     32 H                     0.095492
     33 H                     0.122191
     34 H                     0.132355
     35 H                     0.103289
     36 H                     0.112587
     37 H                     0.132664
     38 H                     0.102284
     39 C                    -0.186554
     40 H                     0.124664
     41 H                     0.078619
     42 H                     0.104091
     43 C                    -0.167276
     44 H                     0.096471
     45 C                    -0.183091
     46 H                     0.091038
     47 H                     0.091916
     48 H                     0.082443
     49 C                    -0.167019
     50 H                     0.091664
     51 C                    -0.319923
     52 H                     0.097277
     53 H                     0.098096
     54 H                     0.100228
     55 H                     0.108164
     56 C                     0.259666
     57 C                    -0.114926
     58 N                    -0.470472
     59 C                    -0.061620
     60 C                     0.079633
     61 C                     0.019390
     62 C                     0.007599
     63 C                     0.057604
     64 C                     0.222280
     65 N                    -0.527632
     66 N                    -0.533703
     67 C                     0.226654
     68 C                     0.340006
     69 S                     0.601014
     70 N                    -0.576838
     71 C                    -0.238298
     72 S                     0.360892
     73 C                    -0.107761
     74 C                    -0.257163
     75 S                     0.268188
     76 C                     0.158118
     77 C                     0.076294
     78 C                    -0.310635
     79 C                    -0.077133
     80 N                    -0.428942
     81 S                     0.253754
     82 C                     0.139224
     83 C                    -0.321040
     84 C                    -0.219417
     85 H                     0.098608
     86 H                     0.101528
     87 H                     0.111692
     88 H                     0.114319
     89 H                     0.139273
     90 H                     0.114554
     91 H                     0.127899
     92 H                     0.137110
     93 H                     0.109920
     94 C                    -0.187085
     95 H                     0.121296
     96 H                     0.086943
     97 H                     0.096169
     98 C                    -0.184748
     99 H                     0.089960
    100 C                    -0.168581
    101 H                     0.096122
    102 H                     0.091427
    103 H                     0.086990
    104 C                    -0.172163
    105 H                     0.095717
    106 C                    -0.326919
    107 H                     0.093580
    108 H                     0.097311
    109 H                     0.106935
    110 H                     0.107007
  ----------------------------------------
  Sum of atomic charges =     0.000000

                    Cartesian Multipole Moments
 -----------------------------------------------------------------
    Charge (ESU x 10^10)
                 0.0000
    Dipole Moment (Debye)
         X       0.9243      Y      -0.6851      Z      -2.4716
       Tot       2.7263
    Quadrupole Moments (Debye-Ang)
        XX    -438.4831     XY      18.8662     YY    -385.9801
        XZ      -9.4786     YZ       4.9409     ZZ    -451.3549

 Total job time:  86.80s(wall), 956.21s(cpu)
        *  Thank you very much for using Q-Chem.  Have a nice day.  *
