 Q-Chem 4.4, Q-Chem, Inc., Pleasanton, CA (2016)
 Q-Chem 4.4.2 for Intel X86 Linux

User input:
--------------------------------------------------------------
$comment
SP
$end

$rem
MEM_STATIC 5000
MEM_TOTAL 20000
JOBTYPE SP
EXCHANGE B3LYP
BASIS 6-31g(d,p)
$end

$molecule
0 1
C           8.521000     18.961000     -7.674000
C           7.254000     18.640000     -8.247000
N           9.184000     18.096000     -6.950000
C           6.681000     17.372000     -7.963000
C           8.673000     16.896000     -6.624000
C           7.410000     16.445000     -7.178000
C           6.884000     15.109000     -6.892000
C           5.647000     14.812000     -6.315000
C           7.632000     13.931000     -7.198000
N           5.116000     13.621000     -5.953000
N           8.779000     13.924000     -7.880000
C           7.110000     12.667000     -6.901000
C           5.860000     12.529000     -6.225000
S           9.177000     12.421000     -8.026000
N           7.901000     11.651000     -7.251000
C           5.340000     11.184000     -5.970000
S           6.205000      9.632000     -5.891000
C           4.020000     10.989000     -5.522000
C           4.773000      8.758000     -5.394000
S           2.808000     12.102000     -5.060000
C           3.752000      9.691000     -5.218000
C           4.692000      7.279000     -5.275000
C           1.785000     10.720000     -4.526000
C           2.453000      9.525000     -4.673000
N           5.511000      6.595000     -5.978000
S           3.530000      6.291000     -4.374000
C           5.205000      5.246000     -6.042000
C           4.233000      4.872000     -5.165000
C           9.180000     20.335000     -7.923000
H           6.593000     19.457000     -8.522000
H           5.665000     17.122000     -8.255000
H           9.209000     16.346000     -5.852000
H           4.964000     15.640000     -6.131000
H           0.759000     10.893000     -4.230000
H           2.015000      8.577000     -4.382000
H           5.793000      4.644000     -6.723000
H           3.861000      3.880000     -4.946000
H          10.259000     20.137000     -7.930000
C           8.652000     21.403000     -6.930000
H           8.887000     20.609000     -8.945000
H           8.773000     21.159000     -5.867000
H           7.581000     21.543000     -7.125000
C           9.507000     22.702000     -7.307000
H          10.551000     22.459000     -7.075000
C           8.929000     24.044000     -6.761000
H           9.474000     22.934000     -8.379000
H           9.007000     23.883000     -5.679000
H           7.857000     24.035000     -6.993000
C           9.546000     25.386000     -7.103000
H          10.620000     25.281000     -6.907000
C           8.812000     26.458000     -6.259000
H           9.351000     25.417000     -8.182000
H           9.271000     27.442000     -6.414000
H           8.658000     26.176000     -5.210000
H           7.861000     26.505000     -6.804000
C           1.271000     13.768000    -15.587000
C           2.139000     14.897000    -15.840000
N           1.654000     12.738000    -14.726000
C           3.317000     15.063000    -15.097000
C           2.820000     12.922000    -14.098000
C           3.694000     14.044000    -14.213000
C           4.903000     14.115000    -13.427000
C           6.037000     13.687000    -14.042000
C           5.152000     14.582000    -12.089000
N           7.288000     13.841000    -13.570000
N           4.127000     14.922000    -11.266000
C           6.417000     14.707000    -11.547000
C           7.530000     14.362000    -12.337000
S           4.875000     15.348000     -9.861000
N           6.412000     15.234000    -10.293000
C           8.901000     14.617000    -11.936000
S           9.411000     15.749000    -10.618000
C          10.098000     14.095000    -12.434000
C          11.093000     15.528000    -10.806000
S          10.260000     12.954000    -13.696000
C          11.230000     14.632000    -11.865000
C          12.135000     16.251000    -10.132000
C          12.013000     12.957000    -13.334000
C          12.362000     13.889000    -12.427000
N          13.373000     16.171000    -10.546000
S          11.812000     17.313000     -8.783000
C          14.141000     17.118000     -9.828000
C          13.419000     17.865000     -8.911000
C          -0.028000     13.589000    -16.366000
H           1.837000     15.605000    -16.605000
H           3.946000     15.919000    -15.324000
H           3.114000     12.059000    -13.502000
H           5.959000     13.334000    -15.069000
H          12.665000     12.388000    -13.985000
H          13.383000     14.110000    -12.137000
H          15.180000     17.262000    -10.096000
H          13.747000     18.724000     -8.341000
H           0.283000     14.014000    -17.329000
C          -1.261000     14.285000    -15.805000
H          -0.221000     12.517000    -16.491000
H          -1.088000     14.439000    -14.732000
H          -2.172000     13.675000    -15.823000
C          -1.622000     15.578000    -16.488000
H          -0.846000     16.242000    -16.089000
C          -3.055000     16.051000    -16.056000
H          -1.608000     15.437000    -17.576000
H          -3.254000     16.014000    -14.978000
H          -3.754000     15.264000    -16.365000
C          -3.668000     17.310000    -16.722000
H          -4.718000     17.408000    -16.418000
C          -3.539000     17.321000    -18.201000
H          -3.180000     18.257000    -16.462000
H          -2.574000     16.998000    -18.611000
H          -3.675000     18.327000    -18.617000
H          -4.296000     16.715000    -18.714000
$end

--------------------------------------------------------------

             Standard Nuclear Orientation (Angstroms)
    I     Atom           X                Y                Z
 ----------------------------------------------------------------
    1      C       4.9661387122     0.1791749358     2.0611892454
    2      C       3.7576240622     0.8989963826     2.3020386290
    3      N       4.9540522716    -1.0811663794     1.7099575737
    4      C       2.5230402214     0.2021077119     2.2186244772
    5      C       3.8166315835    -1.7952607290     1.6487984519
    6      C       2.5246134356    -1.1621890562     1.8369350046
    7      C       1.2770703219    -1.9148802171     1.6938958636
    8      C       0.2816110965    -2.0599972488     2.6630754020
    9      C       0.9535861772    -2.6005411705     0.4830899068
   10      N      -0.8583650905    -2.7890132417     2.6412585474
   11      N       1.6603634669    -2.5093094819    -0.6451497140
   12      C      -0.2400097979    -3.3236856109     0.3792642526
   13      C      -1.1204742983    -3.4519033598     1.4958942148
   14      S       0.8893056915    -3.3651087004    -1.6995721173
   15      N      -0.4284158812    -3.9034553780    -0.8076675756
   16      C      -2.3746539140    -4.1883265968     1.3251186088
   17      S      -2.8130258107    -5.4111795139     0.1103631506
   18      C      -3.3787629852    -4.1501705087     2.3107341962
   19      C      -4.3554219995    -5.7396810964     0.8683932998
   20      S      -3.4060298494    -3.4480467986     3.8687572428
   21      C      -4.4140394552    -4.9899742588     2.0424502199
   22      C      -5.4101880198    -6.6071377107     0.2826026676
   23      C      -5.0007236829    -4.2312102953     4.1606742082
   24      C      -5.3685276069    -5.0167983354     3.0913614827
   25      N      -5.4045676036    -6.7497581317    -0.9872216614
   26      S      -6.7773081582    -7.4011445477     1.0818051889
   27      C      -6.5579526091    -7.3260498966    -1.4923195044
   28      C      -7.3721395477    -7.8362341553    -0.5276430555
   29      C       6.3399692854     0.8761080504     2.1662215733
   30      H       3.8066049220     1.7938686840     2.9159111235
   31      H       1.5845480986     0.6570916812     2.5223383608
   32      H       3.9378057675    -2.8734346454     1.5558585624
   33      H       0.3924489166    -1.4971571494     3.5887400282
   34      H      -5.5663370106    -3.9850108891     5.0493183529
   35      H      -6.2863852452    -5.5936227266     3.0850387149
   36      H      -6.6569281916    -7.3560800457    -2.5699145230
   37      H      -8.2842488515    -8.4069092118    -0.6407606843
   38      H       6.9701444130     0.3789936781     1.4183909712
   39      C       6.8490522842     0.9033431738     3.6309910939
   40      H       6.1639999714     1.9033158976     1.8208408569
   41      H       6.9295726845    -0.0755459964     4.1203155851
   42      H       6.1539660346     1.5181776499     4.2170795450
   43      C       8.2912458821     1.5842192975     3.5004524773
   44      H       8.9020658383     0.8951304453     2.9047474036
   45      C       8.8847567731     2.1163220659     4.8412639726
   46      H       8.2636838834     2.5311850808     2.9467439425
   47      H       8.9945779095     1.1841280295     5.4084346670
   48      H       8.0810349368     2.6780853764     5.3327333946
   49      C      10.1925856039     2.8812560992     4.8967317462
   50      H      10.9139841753     2.2836765836     4.3262934729
   51      C      10.5352428779     3.0982984523     6.3919757429
   52      H       9.9107920805     3.7829824093     4.3393189083
   53      H      11.5134700813     3.5845585455     6.4898770210
   54      H      10.3920192515     2.2097184548     7.0193142328
   55      H       9.8082963234     3.8824072686     6.6376525040
   56      C      -4.9593721654     5.9601850682    -1.1340374550
   57      C      -3.6057413749     6.4500200527    -1.2748187421
   58      N      -5.2629300105     4.6088044715    -1.3087747370
   59      C      -2.5410039640     5.5499373963    -1.4280325062
   60      C      -4.2118928411     3.8096402726    -1.5196146091
   61      C      -2.8377714688     4.1894124380    -1.5791843704
   62      C      -1.8096563097     3.1937228601    -1.7691830125
   63      C      -1.3909215290     3.0093796603    -3.0490438518
   64      C      -1.1081305984     2.3488227341    -0.8394844304
   65      N      -0.3238171696     2.2803977656    -3.4250421012
   66      N      -1.4780799308     2.2884690979     0.4655247382
   67      C      -0.0403129324     1.5461160491    -1.1930963787
   68      C       0.3938006207     1.5467002278    -2.5322898231
   69      S      -0.4397023794     1.1883167751     1.1185499501
   70      N       0.5090077337     0.8901241067    -0.1356506934
   71      C       1.6047397193     0.8825302413    -2.9772299636
   72      S       2.9452996614     0.3203295516    -1.8976571655
   73      C       2.0215675845     0.5356374119    -4.2653358970
   74      C       3.9608340006    -0.2732305120    -3.1344617001
   75      S       1.1611531373     0.8051260218    -5.7171733080
   76      C       3.2817686250    -0.0139267936    -4.3238723934
   77      C       5.3007324169    -0.7675419936    -2.9824834352
   78      C       2.4647558430    -0.1067952005    -6.5375888552
   79      C       3.4909156891    -0.4094473729    -5.7199877099
   80      N       6.0629379430    -0.9514799776    -4.0292162349
   81      S       6.0057021577    -1.0869140671    -1.4162800182
   82      C       7.3685008260    -1.2565619759    -3.5769027009
   83      C       7.5077073249    -1.2763514079    -2.1983484114
   84      C      -6.1245505815     6.9245331143    -0.9373775846
   85      H      -3.4510110661     7.5236494977    -1.2420873128
   86      H      -1.5407493997     5.9584883110    -1.5397596588
   87      H      -4.5044702599     2.7817478069    -1.7299869768
   88      H      -1.8452139200     3.6195304091    -3.8279896055
   89      H       2.4385097728    -0.1648194246    -7.6186116733
   90      H       4.4127499784    -0.8805806650    -6.0419146646
   91      H       8.1652394932    -1.3555844354    -4.3031829833
   92      H       8.4174670635    -1.3570864704    -1.6185345898
   93      H      -5.7584275803     7.7689552895    -1.5353910776
   94      C      -6.4379254752     7.3320615919     0.4961993111
   95      H      -7.0167327316     6.5041437348    -1.4162740042
   96      H      -6.0456886934     6.5438838245     1.1518669968
   97      H      -7.5071419627     7.3455726798     0.7389719485
   98      C      -5.9110547710     8.6847566040     0.8977991930
   99      H      -4.8426916806     8.4627907187     1.0055231593
  100      C      -6.5393734495     9.1409088038     2.2619776303
  101      H      -6.1636967018     9.4230027999     0.1264460903
  102      H      -6.5419840150     8.3806451062     3.0525763244
  103      H      -7.6237120970     9.1997362443     2.1064140423
  104      C      -6.2124237787    10.5543179474     2.8095034339
  105      H      -6.8453682026    10.7623162592     3.6816490975
  106      C      -6.3385404612    11.6283156754     1.7922392289
  107      H      -5.1757352164    10.6968819168     3.1373835022
  108      H      -5.9366431443    11.4084821020     0.7953411666
  109      H      -5.8080278961    12.5408108398     2.0913997098
  110      H      -7.3709511370    11.9609519492     1.6281194383
 ----------------------------------------------------------------

    9   -5663.5067968015      9.56E-06 Convergence criterion met
 Total energy in the final basis set = -5663.5067968015

                    Orbital Energies (a.u.)
 --------------------------------------------------------------

 Alpha MOs
 -- Occupied --
-88.985 -88.980 -88.928 -88.926 -88.919 -88.917 -88.908 -88.900
-14.383 -14.381 -14.377 -14.377 -14.351 -14.343 -14.341 -14.339
-14.332 -14.327 -10.274 -10.264 -10.261 -10.260 -10.252 -10.250
-10.249 -10.246 -10.245 -10.238 -10.238 -10.237 -10.235 -10.235
-10.235 -10.234 -10.232 -10.230 -10.229 -10.227 -10.226 -10.224
-10.224 -10.222 -10.221 -10.218 -10.218 -10.215 -10.213 -10.212
-10.211 -10.211 -10.204 -10.203 -10.202 -10.201 -10.200 -10.194
-10.189 -10.188 -10.185 -10.184 -10.182 -10.181 -10.180 -10.179
-10.178 -10.177 -10.173 -10.167  -8.041  -8.036  -7.988  -7.984
 -7.981  -7.976  -7.968  -7.961  -6.006  -6.001  -6.000  -5.999
 -5.996  -5.994  -5.952  -5.949  -5.948  -5.945  -5.945  -5.944
 -5.941  -5.941  -5.941  -5.938  -5.937  -5.933  -5.932  -5.928
 -5.925  -5.924  -5.922  -5.917  -1.045  -1.038  -0.977  -0.966
 -0.957  -0.951  -0.944  -0.927  -0.916  -0.911  -0.908  -0.900
 -0.843  -0.843  -0.836  -0.833  -0.811  -0.810  -0.807  -0.805
 -0.803  -0.799  -0.794  -0.793  -0.785  -0.784  -0.769  -0.766
 -0.751  -0.748  -0.741  -0.737  -0.724  -0.717  -0.712  -0.710
 -0.695  -0.691  -0.672  -0.670  -0.656  -0.654  -0.640  -0.636
 -0.635  -0.634  -0.628  -0.626  -0.613  -0.611  -0.603  -0.595
 -0.594  -0.589  -0.586  -0.579  -0.575  -0.573  -0.569  -0.565
 -0.547  -0.543  -0.541  -0.539  -0.522  -0.520  -0.519  -0.509
 -0.507  -0.503  -0.498  -0.497  -0.491  -0.490  -0.478  -0.477
 -0.477  -0.474  -0.471  -0.470  -0.467  -0.456  -0.449  -0.448
 -0.446  -0.442  -0.440  -0.440  -0.439  -0.434  -0.432  -0.431
 -0.429  -0.425  -0.424  -0.422  -0.420  -0.419  -0.416  -0.413
 -0.412  -0.408  -0.406  -0.401  -0.399  -0.398  -0.396  -0.393
 -0.392  -0.391  -0.390  -0.389  -0.387  -0.385  -0.382  -0.381
 -0.378  -0.375  -0.370  -0.368  -0.367  -0.366  -0.357  -0.353
 -0.351  -0.350  -0.349  -0.347  -0.347  -0.345  -0.341  -0.341
 -0.338  -0.337  -0.332  -0.332  -0.327  -0.326  -0.324  -0.319
 -0.314  -0.311  -0.310  -0.308  -0.303  -0.303  -0.298  -0.297
 -0.294  -0.293  -0.289  -0.288  -0.285  -0.283  -0.281  -0.276
 -0.275  -0.267  -0.261  -0.261  -0.256  -0.249  -0.245  -0.245
 -0.243  -0.242  -0.237  -0.234  -0.196  -0.193

          Ground-State Mulliken Net Atomic Charges

     Atom                 Charge (a.u.)
  ----------------------------------------
      1 C                     0.262738
      2 C                    -0.128060
      3 N                    -0.466483
      4 C                    -0.061647
      5 C                     0.092367
      6 C                     0.042972
      7 C                     0.017426
      8 C                     0.039211
      9 C                     0.217325
     10 N                    -0.531862
     11 N                    -0.504795
     12 C                     0.223465
     13 C                     0.317695
     14 S                     0.599156
     15 N                    -0.584222
     16 C                    -0.238184
     17 S                     0.374284
     18 C                    -0.111338
     19 C                    -0.225481
     20 S                     0.287468
     21 C                     0.144302
     22 C                     0.065662
     23 C                    -0.323312
     24 C                    -0.067184
     25 N                    -0.408424
     26 S                     0.252310
     27 C                     0.123638
     28 C                    -0.310875
     29 C                    -0.217769
     30 H                     0.091741
     31 H                     0.090697
     32 H                     0.110907
     33 H                     0.099776
     34 H                     0.129759
     35 H                     0.107792
     36 H                     0.122157
     37 H                     0.139503
     38 H                     0.115262
     39 C                    -0.178474
     40 H                     0.107237
     41 H                     0.113642
     42 H                     0.096105
     43 C                    -0.185229
     44 H                     0.094674
     45 C                    -0.180350
     46 H                     0.087555
     47 H                     0.082824
     48 H                     0.085017
     49 C                    -0.181435
     50 H                     0.094672
     51 C                    -0.309226
     52 H                     0.095111
     53 H                     0.101757
     54 H                     0.112255
     55 H                     0.106935
     56 C                     0.242487
     57 C                    -0.118633
     58 N                    -0.463681
     59 C                    -0.052291
     60 C                     0.098345
     61 C                     0.003714
     62 C                     0.019494
     63 C                     0.072115
     64 C                     0.205983
     65 N                    -0.529610
     66 N                    -0.543804
     67 C                     0.203664
     68 C                     0.312360
     69 S                     0.598658
     70 N                    -0.565319
     71 C                    -0.235991
     72 S                     0.346757
     73 C                    -0.109323
     74 C                    -0.224591
     75 S                     0.270295
     76 C                     0.131706
     77 C                     0.071138
     78 C                    -0.305503
     79 C                    -0.054658
     80 N                    -0.442200
     81 S                     0.315034
     82 C                     0.105526
     83 C                    -0.314240
     84 C                    -0.232336
     85 H                     0.092433
     86 H                     0.104075
     87 H                     0.102294
     88 H                     0.111131
     89 H                     0.121801
     90 H                     0.120735
     91 H                     0.113496
     92 H                     0.137031
     93 H                     0.100065
     94 C                    -0.178887
     95 H                     0.122411
     96 H                     0.109191
     97 H                     0.094464
     98 C                    -0.170848
     99 H                     0.097875
    100 C                    -0.187574
    101 H                     0.099100
    102 H                     0.091810
    103 H                     0.091431
    104 C                    -0.172457
    105 H                     0.094117
    106 C                    -0.319468
    107 H                     0.092489
    108 H                     0.103677
    109 H                     0.096140
    110 H                     0.097325
  ----------------------------------------
  Sum of atomic charges =     0.000000

                    Cartesian Multipole Moments
 -----------------------------------------------------------------
    Charge (ESU x 10^10)
                 0.0000
    Dipole Moment (Debye)
         X       0.4548      Y       0.5340      Z       2.1494
       Tot       2.2610
    Quadrupole Moments (Debye-Ang)
        XX    -402.6757     XY      20.0303     YY    -413.8122
        XZ      -0.4106     YZ       8.1043     ZZ    -439.2136

 Total job time:  92.12s(wall), 991.38s(cpu)
        *  Thank you very much for using Q-Chem.  Have a nice day.  *
