 Q-Chem 4.4, Q-Chem, Inc., Pleasanton, CA (2016)
 Q-Chem 4.4.2 for Intel X86 Linux

User input:
--------------------------------------------------------------
$comment
SP
$end

$rem
MEM_STATIC 5000
MEM_TOTAL 20000
JOBTYPE SP
EXCHANGE B3LYP
BASIS 6-31g(d,p)
$end

$molecule
0 1
C          -9.140000    -15.171000     -6.285000
C          -8.504000    -14.271000     -5.417000
N         -10.400000    -15.603000     -6.088000
C          -9.174000    -13.898000     -4.257000
C         -11.018000    -15.238000     -4.990000
C         -10.449000    -14.439000     -3.964000
C         -11.166000    -14.062000     -2.702000
C         -10.454000    -13.907000     -1.436000
C         -12.541000    -13.732000     -2.651000
N         -11.043000    -13.654000     -0.209000
N         -13.276000    -13.451000     -3.722000
C         -13.113000    -13.287000     -1.382000
C         -12.375000    -13.328000     -0.221000
S         -14.686000    -12.972000     -3.048000
N         -14.390000    -12.897000     -1.435000
C         -13.040000    -13.204000      1.073000
S         -14.621000    -13.804000      1.376000
C         -12.344000    -12.885000      2.189000
C         -14.250000    -13.761000      3.138000
S         -10.780000    -12.099000      2.394000
C         -13.054000    -13.219000      3.369000
C         -15.250000    -14.133000      4.178000
C         -10.988000    -12.374000      4.167000
C         -12.218000    -12.913000      4.486000
N         -14.938000    -13.951000      5.431000
S         -16.882000    -14.761000      3.781000
C         -16.040000    -14.197000      6.227000
C         -17.128000    -14.705000      5.533000
C          -8.514000    -15.646000     -7.584000
H          -7.573000    -13.748000     -5.617000
H          -8.764000    -13.106000     -3.638000
H         -12.014000    -15.565000     -4.694000
H          -9.391000    -14.142000     -1.446000
H         -10.311000    -11.870000      4.844000
H         -12.598000    -13.136000      5.477000
H         -15.902000    -14.050000      7.290000
H         -18.091000    -15.055000      5.883000
H          -7.471000    -15.830000     -7.298000
C          -8.735000    -14.732000     -8.801000
H          -8.834000    -16.675000     -7.790000
H          -9.818000    -14.574000     -8.874000
H          -8.341000    -15.189000     -9.717000
C          -8.002000    -13.344000     -8.725000
H          -7.093000    -13.311000     -8.111000
C          -8.936000    -12.191000     -8.311000
H          -7.558000    -13.080000     -9.693000
H          -9.326000    -12.327000     -7.294000
H          -9.777000    -12.117000     -9.012000
C          -8.179000    -10.835000     -8.265000
H          -7.804000    -10.631000     -9.275000
C          -6.947000    -10.672000     -7.359000
H          -8.918000    -10.037000     -8.120000
H          -6.576000     -9.641000     -7.313000
H          -6.090000    -11.276000     -7.680000
H          -7.142000    -10.903000     -6.305000
C         -14.422000     -6.323000     -9.688000
C         -13.412000     -6.803000     -8.898000
N         -14.968000     -7.154000    -10.632000
C         -13.014000     -8.168000     -9.015000
C         -14.680000     -8.449000    -10.680000
C         -13.644000     -9.030000     -9.950000
C         -13.358000    -10.460000    -10.003000
C         -13.216000    -11.162000    -11.201000
C         -13.203000    -11.253000     -8.841000
N         -12.935000    -12.439000    -11.338000
N         -13.317000    -10.754000     -7.585000
C         -12.911000    -12.596000     -8.946000
C         -12.809000    -13.241000    -10.280000
S         -12.936000    -12.059000     -6.595000
N         -12.632000    -13.167000     -7.726000
C         -12.445000    -14.633000    -10.433000
S         -12.739000    -15.889000     -9.144000
C         -11.988000    -15.240000    -11.600000
C         -11.845000    -17.020000    -10.201000
S         -11.341000    -14.452000    -13.027000
C         -11.705000    -16.572000    -11.474000
C         -11.415000    -18.243000     -9.801000
C         -10.850000    -16.103000    -13.621000
C         -11.062000    -17.094000    -12.698000
N         -11.147000    -19.253000    -10.642000
S         -11.316000    -18.659000     -8.069000
C         -10.609000    -20.353000     -9.951000
C         -10.524000    -20.147000     -8.574000
C         -14.858000     -4.829000     -9.735000
H         -12.743000     -6.231000     -8.263000
H         -12.202000     -8.531000     -8.391000
H         -15.243000     -8.960000    -11.459000
H         -13.323000    -10.612000    -12.135000
H         -10.229000    -16.235000    -14.497000
H         -10.801000    -18.127000    -12.896000
H         -10.326000    -21.201000    -10.561000
H         -10.145000    -20.808000     -7.806000
H         -13.988000     -4.244000    -10.058000
C         -15.489000     -4.266000     -8.396000
H         -15.626000     -4.678000    -10.503000
H         -15.418000     -5.045000     -7.627000
H         -16.581000     -4.210000     -8.485000
C         -14.780000     -3.080000     -7.821000
H         -13.705000     -3.297000     -7.842000
C         -15.152000     -2.780000     -6.321000
H         -14.950000     -2.194000     -8.446000
H         -15.381000     -3.608000     -5.639000
H         -16.070000     -2.182000     -6.374000
C         -14.043000     -1.983000     -5.624000
H         -13.111000     -2.561000     -5.661000
C         -14.506000     -1.639000     -4.171000
H         -13.843000     -1.070000     -6.199000
H         -14.816000     -2.518000     -3.592000
H         -15.379000     -0.977000     -4.114000
H         -13.687000     -1.160000     -3.621000
$end

--------------------------------------------------------------

             Standard Nuclear Orientation (Angstroms)
    I     Atom           X                Y                Z
 ----------------------------------------------------------------
    1      C      -1.4276490603     3.2262015775     2.3442543135
    2      C      -0.6894403163     2.5468130560     3.3247639193
    3      N      -1.0218009041     3.3192713161     1.0637628852
    4      C       0.5573967482     2.0426691515     2.9714011340
    5      C       0.1555704274     2.8347826163     0.7478191439
    6      C       1.0622217919     2.2395440325     1.6635223336
    7      C       2.4172465813     1.7219698307     1.2828823915
    8      C       3.5483157017     1.7918521031     2.2045787151
    9      C       2.6849022572     1.0458564587     0.0690631515
   10      N       4.8501411869     1.4264265593     1.9076383542
   11      N       1.7426397605     0.5544181841    -0.7289699365
   12      C       4.0221895488     0.5007130983    -0.1546585869
   13      C       5.0487361978     0.7637320937     0.7235606257
   14      S       2.6281413172    -0.2581082998    -1.8368980507
   15      N       4.1703438832    -0.2104625390    -1.2762278029
   16      C       6.4311492497     0.5047144032     0.3312839502
   17      S       6.9964300707     0.6788847913    -1.2816302661
   18      C       7.4140653200     0.4081946407     1.2565908907
   19      C       8.6740211193     0.7809392202    -0.6340137380
   20      S       7.3496291617     0.0635620407     2.9837253246
   21      C       8.6989802783     0.5763515305     0.6832037526
   22      C       9.8684510895     0.9063322837    -1.5158286993
   23      C       9.1372585713     0.3215747233     2.9988431711
   24      C       9.6604084710     0.5289585888     1.7384907938
   25      N      11.0510770359     0.8453708294    -0.9697915468
   26      S       9.7518249491     1.0756620159    -3.2971604441
   27      C      12.0191877157     0.8160839185    -1.9549006720
   28      C      11.5193411639     1.0037995174    -3.2348851557
   29      C      -2.8027848962     3.8135987917     2.6066813428
   30      H      -1.0464474656     2.2799471892     4.3155305439
   31      H       1.0883781222     1.4018869503     3.6685251912
   32      H       0.6145418629     2.8980898869    -0.2380299373
   33      H       3.3700902572     2.2959140321     3.1529727591
   34      H       9.6870185067     0.0299504530     3.8839382498
   35      H      10.7034976996     0.6711681044     1.4778160638
   36      H      13.0431442215     0.7384286627    -1.6141592223
   37      H      12.0266277050     1.0993476930    -4.1866729007
   38      H      -2.6865807225     4.2710669902     3.5969946454
   39      C      -3.9830302757     2.8416963568     2.4400905231
   40      H      -2.9368985755     4.7175130337     1.9995326262
   41      H      -3.8821617346     2.4045142627     1.4391512872
   42      H      -4.9429826343     3.3612912241     2.5480425645
   43      C      -4.0501452359     1.6957639256     3.5133768060
   44      H      -3.5922459524     1.9175382149     4.4857504023
   45      C      -3.5096312095     0.3502684707     2.9931388141
   46      H      -5.0816035394     1.5313122799     3.8493908301
   47      H      -2.4407282472     0.4066053994     2.7499154442
   48      H      -4.0661849023     0.0406964062     2.0995107461
   49      C      -3.6096984554    -0.7593136589     4.0760584991
   50      H      -4.6704044959    -0.8849980963     4.3239437909
   51      C      -2.9182384138    -0.5709073156     5.4367991285
   52      H      -3.3602403891    -1.7184620520     3.6051497678
   53      H      -2.9502862170    -1.4676728249     6.0672771691
   54      H      -3.3637253950     0.2271913705     6.0425101462
   55      H      -1.8428437395    -0.3710032263     5.3602050720
   56      C      -4.0774486687    -6.7809749696    -0.9118194864
   57      C      -3.4536662163    -6.0331496323     0.0506007529
   58      N      -4.9063872968    -6.1466804394    -1.8008325346
   59      C      -3.6107130314    -4.6151762532     0.0530078376
   60      C      -4.9787009173    -4.8231480396    -1.8736729559
   61      C      -4.4166362899    -3.9726636840    -0.9226121190
   62      C      -4.4912939476    -2.5195184809    -1.0335186237
   63      C      -5.6845197286    -1.8367830437    -1.2748825779
   64      C      -3.3566455182    -1.6830647637    -0.9068848186
   65      N      -5.8438110770    -0.5348049579    -1.3639798866
   66      N      -2.1073277156    -2.1610689439    -0.6827196299
   67      C      -3.4850402832    -0.3136804485    -0.9976558585
   68      C      -4.8069209028     0.3000060838    -1.2840218263
   69      S      -1.1704225558    -0.7761079326    -0.5027815329
   70      N      -2.3169908794     0.3424702182    -0.6855518809
   71      C      -4.9935224635     1.7342014577    -1.3268293841
   72      S      -3.6530252005     2.9035479733    -1.7283126518
   73      C      -6.2088148533     2.4083394720    -1.2385721177
   74      C      -4.8218299504     4.2003376887    -1.3437637074
   75      S      -7.7348335044     1.7791048911    -0.6459399225
   76      C      -6.1080230614     3.7708783093    -1.2978842709
   77      C      -4.4763566132     5.5033394240    -1.1905852140
   78      C      -8.3727804585     3.4847007827    -0.7066386743
   79      C      -7.4111283924     4.4100535233    -1.0195310026
   80      N      -5.3326102144     6.5256346948    -1.3353165161
   81      S      -2.7765752238     5.9764854130    -0.9268484103
   82      C      -4.7195959342     7.7458569473    -1.0003595832
   83      C      -3.3782356557     7.6057484227    -0.6441121909
   84      C      -4.0782145784    -8.3376927019    -0.9429693673
   85      H      -2.9451890227    -6.3935915657     0.9391403166
   86      H      -3.1205808220    -4.0363472659     0.8309644050
   87      H      -5.6474582837    -4.4977039552    -2.6685193139
   88      H      -6.5979191782    -2.4201823220    -1.3828257455
   89      H      -9.3355145974     3.7510213512    -0.2911181181
   90      H      -7.6314562569     5.4697470876    -1.0735604580
   91      H      -5.3530865290     8.6218669070    -1.0512439316
   92      H      -2.6708435593     8.3628825496    -0.3330971817
   93      H      -4.5477303276    -8.6835712475    -0.0137885490
   94      C      -2.6642793703    -9.0102510289    -1.1806740670
   95      H      -4.7139971425    -8.7042788614    -1.7577356643
   96      H      -1.9039971495    -8.2196503124    -1.1934979408
   97      H      -2.5760268563    -9.3517826618    -2.2194659795
   98      C      -2.2317851051    -9.9543134959    -0.1029000791
   99      H      -2.4231105908    -9.4647785657     0.8598590345
  100      C      -0.6965708177   -10.3011980572    -0.1371373777
  101      H      -2.8357403874   -10.8701991991    -0.1331059671
  102      H       0.0273234337    -9.5439540139    -0.4622643863
  103      H      -0.6100965368   -11.1193419310    -0.8626026081
  104      C      -0.2020169274   -10.7622196768     1.2390074242
  105      H      -0.3798930169    -9.9621030860     1.9685624516
  106      C       1.3008375895   -11.1765682023     1.1221416875
  107      H      -0.8170668789   -11.6062219947     1.5760054131
  108      H       1.9370935562   -10.3939906497     0.6900158734
  109      H       1.4874737266   -12.0418045672     0.4739480550
  110      H       1.7026977307   -11.4103546733     2.1153960924
 ----------------------------------------------------------------

   10   -5663.5070744191      8.35E-06 Convergence criterion met
 Total energy in the final basis set = -5663.5070744191

                    Orbital Energies (a.u.)
 --------------------------------------------------------------

 Alpha MOs
 -- Occupied --
-88.990 -88.979 -88.929 -88.927 -88.923 -88.918 -88.910 -88.907
-14.403 -14.396 -14.380 -14.371 -14.360 -14.346 -14.340 -14.340
-14.333 -14.319 -10.275 -10.266 -10.261 -10.260 -10.260 -10.258
-10.251 -10.250 -10.243 -10.241 -10.239 -10.236 -10.235 -10.235
-10.233 -10.233 -10.232 -10.232 -10.230 -10.229 -10.228 -10.228
-10.228 -10.227 -10.227 -10.225 -10.218 -10.218 -10.214 -10.212
-10.207 -10.206 -10.205 -10.205 -10.202 -10.201 -10.199 -10.193
-10.185 -10.183 -10.181 -10.180 -10.179 -10.179 -10.177 -10.177
-10.177 -10.176 -10.176 -10.174  -8.047  -8.033  -7.989  -7.986
 -7.981  -7.979  -7.969  -7.966  -6.012  -6.006  -6.004  -5.998
 -5.993  -5.991  -5.953  -5.951  -5.950  -5.947  -5.946  -5.946
 -5.943  -5.942  -5.942  -5.939  -5.937  -5.936  -5.934  -5.931
 -5.930  -5.927  -5.925  -5.922  -1.052  -1.022  -0.971  -0.959
 -0.954  -0.953  -0.950  -0.931  -0.930  -0.914  -0.909  -0.889
 -0.843  -0.837  -0.834  -0.825  -0.809  -0.805  -0.804  -0.804
 -0.802  -0.798  -0.793  -0.788  -0.783  -0.781  -0.766  -0.763
 -0.747  -0.746  -0.739  -0.734  -0.729  -0.727  -0.710  -0.706
 -0.695  -0.689  -0.675  -0.670  -0.661  -0.652  -0.650  -0.638
 -0.635  -0.634  -0.629  -0.617  -0.614  -0.610  -0.601  -0.597
 -0.592  -0.589  -0.584  -0.581  -0.580  -0.577  -0.576  -0.563
 -0.555  -0.547  -0.540  -0.534  -0.525  -0.517  -0.516  -0.513
 -0.503  -0.503  -0.500  -0.489  -0.488  -0.483  -0.479  -0.474
 -0.471  -0.471  -0.466  -0.463  -0.460  -0.457  -0.447  -0.445
 -0.444  -0.440  -0.436  -0.436  -0.435  -0.433  -0.428  -0.427
 -0.426  -0.425  -0.421  -0.420  -0.416  -0.413  -0.412  -0.412
 -0.411  -0.408  -0.406  -0.406  -0.399  -0.395  -0.394  -0.392
 -0.391  -0.390  -0.387  -0.387  -0.385  -0.385  -0.382  -0.382
 -0.378  -0.376  -0.374  -0.370  -0.365  -0.364  -0.358  -0.358
 -0.355  -0.353  -0.352  -0.351  -0.349  -0.346  -0.346  -0.344
 -0.343  -0.336  -0.334  -0.332  -0.329  -0.328  -0.325  -0.324
 -0.320  -0.311  -0.310  -0.307  -0.305  -0.300  -0.298  -0.296
 -0.294  -0.294  -0.292  -0.290  -0.287  -0.284  -0.283  -0.275
 -0.273  -0.270  -0.264  -0.262  -0.255  -0.251  -0.247  -0.247
 -0.244  -0.240  -0.235  -0.231  -0.197  -0.189

          Ground-State Mulliken Net Atomic Charges

     Atom                 Charge (a.u.)
  ----------------------------------------
      1 C                     0.250352
      2 C                    -0.108450
      3 N                    -0.465742
      4 C                    -0.087324
      5 C                     0.118505
      6 C                     0.030621
      7 C                     0.007001
      8 C                     0.057893
      9 C                     0.209283
     10 N                    -0.498084
     11 N                    -0.516152
     12 C                     0.187502
     13 C                     0.267107
     14 S                     0.599624
     15 N                    -0.536559
     16 C                    -0.212453
     17 S                     0.316658
     18 C                    -0.109191
     19 C                    -0.270422
     20 S                     0.266118
     21 C                     0.205986
     22 C                     0.081776
     23 C                    -0.301062
     24 C                    -0.057214
     25 N                    -0.438067
     26 S                     0.256274
     27 C                     0.127873
     28 C                    -0.312007
     29 C                    -0.226665
     30 H                     0.104118
     31 H                     0.100327
     32 H                     0.102060
     33 H                     0.115893
     34 H                     0.131506
     35 H                     0.124745
     36 H                     0.117739
     37 H                     0.133667
     38 H                     0.089698
     39 C                    -0.188314
     40 H                     0.124333
     41 H                     0.133923
     42 H                     0.100546
     43 C                    -0.183931
     44 H                     0.088141
     45 C                    -0.178473
     46 H                     0.091026
     47 H                     0.099327
     48 H                     0.097215
     49 C                    -0.183633
     50 H                     0.092722
     51 C                    -0.322051
     52 H                     0.085817
     53 H                     0.104022
     54 H                     0.104898
     55 H                     0.093733
     56 C                     0.253765
     57 C                    -0.113461
     58 N                    -0.467800
     59 C                    -0.062090
     60 C                     0.071461
     61 C                     0.033024
     62 C                     0.033678
     63 C                     0.051625
     64 C                     0.242936
     65 N                    -0.520431
     66 N                    -0.584183
     67 C                     0.169818
     68 C                     0.304154
     69 S                     0.611020
     70 N                    -0.546895
     71 C                    -0.198956
     72 S                     0.329025
     73 C                    -0.117558
     74 C                    -0.199825
     75 S                     0.270852
     76 C                     0.160543
     77 C                     0.042455
     78 C                    -0.299116
     79 C                    -0.048047
     80 N                    -0.455012
     81 S                     0.278118
     82 C                     0.122312
     83 C                    -0.313702
     84 C                    -0.235668
     85 H                     0.089408
     86 H                     0.105253
     87 H                     0.100333
     88 H                     0.107343
     89 H                     0.127875
     90 H                     0.132163
     91 H                     0.116582
     92 H                     0.130321
     93 H                     0.109757
     94 C                    -0.186669
     95 H                     0.120181
     96 H                     0.101332
     97 H                     0.100908
     98 C                    -0.181721
     99 H                     0.090429
    100 C                    -0.172445
    101 H                     0.096502
    102 H                     0.092273
    103 H                     0.093509
    104 C                    -0.175471
    105 H                     0.093619
    106 C                    -0.326231
    107 H                     0.094688
    108 H                     0.101818
    109 H                     0.105845
    110 H                     0.098123
  ----------------------------------------
  Sum of atomic charges =     0.000000

                    Cartesian Multipole Moments
 -----------------------------------------------------------------
    Charge (ESU x 10^10)
                 0.0000
    Dipole Moment (Debye)
         X       3.2931      Y       1.7686      Z       2.5664
       Tot       4.5342
    Quadrupole Moments (Debye-Ang)
        XX    -426.4715     XY     -13.8441     YY    -428.7593
        XZ     -30.4431     YZ      -4.8313     ZZ    -432.5715

 Total job time:  106.53s(wall), 1173.51s(cpu)
        *  Thank you very much for using Q-Chem.  Have a nice day.  *
