 Q-Chem 4.4, Q-Chem, Inc., Pleasanton, CA (2016)
 Q-Chem 4.4.2 for Intel X86 Linux

User input:
--------------------------------------------------------------
$comment
SP
$end

$rem
MEM_STATIC 5000
MEM_TOTAL 20000
JOBTYPE SP
EXCHANGE B3LYP
BASIS 6-31g(d,p)
$end

$molecule
0 1
C         -12.812000    -25.938000      4.066000
C         -12.214000    -26.816000      3.159000
N         -13.654000    -24.975000      3.625000
C         -12.420000    -26.747000      1.794000
C         -13.869000    -24.796000      2.338000
C         -13.228000    -25.636000      1.356000
C         -13.353000    -25.219000     -0.033000
C         -13.731000    -26.071000     -1.048000
C         -13.070000    -23.881000     -0.493000
N         -13.800000    -25.734000     -2.391000
N         -12.737000    -22.836000      0.309000
C         -13.170000    -23.555000     -1.828000
C         -13.602000    -24.507000     -2.763000
S         -12.440000    -21.575000     -0.701000
N         -13.000000    -22.258000     -2.107000
C         -13.705000    -24.380000     -4.246000
S         -14.868000    -25.058000     -5.320000
C         -12.714000    -23.751000     -4.961000
C         -14.150000    -24.196000     -6.719000
S         -11.179000    -23.268000     -4.405000
C         -12.978000    -23.637000     -6.287000
C         -14.550000    -24.395000     -8.053000
C         -10.798000    -23.028000     -6.080000
C         -11.785000    -23.221000     -6.993000
N         -15.350000    -25.432000     -8.260000
S         -13.909000    -23.517000     -9.473000
C         -15.556000    -25.569000     -9.622000
C         -14.866000    -24.651000    -10.331000
C         -12.499000    -26.126000      5.522000
H         -11.562000    -27.632000      3.459000
H         -11.949000    -27.425000      1.088000
H         -14.577000    -23.992000      2.145000
H         -13.841000    -27.133000     -0.831000
H          -9.740000    -23.024000     -6.309000
H         -11.808000    -22.930000     -8.037000
H         -16.094000    -26.425000    -10.009000
H         -15.079000    -24.455000    -11.373000
H         -13.452000    -26.229000      6.055000
C         -11.840000    -24.750000      5.941000
H         -11.751000    -26.899000      5.740000
H         -12.407000    -23.846000      5.684000
H         -10.880000    -24.689000      5.414000
C         -11.568000    -24.717000      7.471000
H         -11.243000    -25.721000      7.772000
C         -12.835000    -24.316000      8.270000
H         -10.685000    -24.102000      7.685000
H         -13.709000    -24.792000      7.807000
H         -13.106000    -23.267000      8.097000
C         -12.833000    -24.471000      9.861000
H         -12.192000    -23.676000     10.260000
C         -12.426000    -25.830000     10.385000
H         -13.845000    -24.254000     10.225000
H         -11.453000    -26.202000     10.040000
H         -13.218000    -26.551000     10.146000
H         -12.394000    -25.845000     11.481000
C         -14.422000     -6.323000     -9.688000
C         -13.412000     -6.803000     -8.898000
N         -14.968000     -7.154000    -10.632000
C         -13.014000     -8.168000     -9.015000
C         -14.680000     -8.449000    -10.680000
C         -13.644000     -9.030000     -9.950000
C         -13.358000    -10.460000    -10.003000
C         -13.216000    -11.162000    -11.201000
C         -13.203000    -11.253000     -8.841000
N         -12.935000    -12.439000    -11.338000
N         -13.317000    -10.754000     -7.585000
C         -12.911000    -12.596000     -8.946000
C         -12.809000    -13.241000    -10.280000
S         -12.936000    -12.059000     -6.595000
N         -12.632000    -13.167000     -7.726000
C         -12.445000    -14.633000    -10.433000
S         -12.739000    -15.889000     -9.144000
C         -11.988000    -15.240000    -11.600000
C         -11.845000    -17.020000    -10.201000
S         -11.341000    -14.452000    -13.027000
C         -11.705000    -16.572000    -11.474000
C         -11.415000    -18.243000     -9.801000
C         -10.850000    -16.103000    -13.621000
C         -11.062000    -17.094000    -12.698000
N         -11.147000    -19.253000    -10.642000
S         -11.316000    -18.659000     -8.069000
C         -10.609000    -20.353000     -9.951000
C         -10.524000    -20.147000     -8.574000
C         -14.858000     -4.829000     -9.735000
H         -12.743000     -6.231000     -8.263000
H         -12.202000     -8.531000     -8.391000
H         -15.243000     -8.960000    -11.459000
H         -13.323000    -10.612000    -12.135000
H         -10.229000    -16.235000    -14.497000
H         -10.801000    -18.127000    -12.896000
H         -10.326000    -21.201000    -10.561000
H         -10.145000    -20.808000     -7.806000
H         -13.988000     -4.244000    -10.058000
C         -15.489000     -4.266000     -8.396000
H         -15.626000     -4.678000    -10.503000
H         -15.418000     -5.045000     -7.627000
H         -16.581000     -4.210000     -8.485000
C         -14.780000     -3.080000     -7.821000
H         -13.705000     -3.297000     -7.842000
C         -15.152000     -2.780000     -6.321000
H         -14.950000     -2.194000     -8.446000
H         -15.381000     -3.608000     -5.639000
H         -16.070000     -2.182000     -6.374000
C         -14.043000     -1.983000     -5.624000
H         -13.111000     -2.561000     -5.661000
C         -14.506000     -1.639000     -4.171000
H         -13.843000     -1.070000     -6.199000
H         -14.816000     -2.518000     -3.592000
H         -15.379000     -0.977000     -4.114000
H         -13.687000     -1.160000     -3.621000
$end

--------------------------------------------------------------

             Standard Nuclear Orientation (Angstroms)
    I     Atom           X                Y                Z
 ----------------------------------------------------------------
    1      C      11.7001849819    -3.5694491767     0.0232881625
    2      C      11.9539687409    -2.2946807352     0.5348506945
    3      N      10.6267907351    -3.7807053775    -0.7729590406
    4      C      11.1395959132    -1.2058535357     0.2865077320
    5      C       9.7631612819    -2.8177296503    -1.0208640961
    6      C       9.9453881766    -1.4984617839    -0.4666703976
    7      C       8.8299084288    -0.5749338080    -0.6137622395
    8      C       8.9712316005     0.7148694316    -1.0779263962
    9      C       7.4692052808    -0.9052982616    -0.2655105045
   10      N       7.9496202208     1.6472600436    -1.1724617623
   11      N       7.0482554330    -2.1256961903     0.1582206853
   12      C       6.4601761247     0.0244982352    -0.3913661230
   13      C       6.7272099934     1.2988615053    -0.9127528978
   14      S       5.4500307402    -1.9539508389     0.4967636893
   15      N       5.2295347923    -0.4415748583    -0.1521010349
   16      C       5.8028832294     2.4608839082    -1.0588726040
   17      S       5.7412633007     3.6557669344    -2.2974954433
   18      C       4.9167244436     2.7754382871    -0.0565128138
   19      C       4.2759085347     4.3967835128    -1.5768021382
   20      S       4.8684382136     2.1428455645     1.5234064523
   21      C       4.0843503165     3.8034727227    -0.3586162922
   22      C       3.6960666225     5.5942494599    -2.0339844460
   23      C       3.7598331594     3.4335154667     1.8603812840
   24      C       3.3874575153     4.2396471959     0.8325315796
   25      N       4.4222964371     6.2844600280    -2.9025566238
   26      S       2.2033363214     6.3392381978    -1.3898470162
   27      C       3.7815490144     7.4834832201    -3.1633920605
   28      C       2.6477344765     7.6161408843    -2.4434118262
   29      C      12.6673557352    -4.6624589407     0.3742288838
   30      H      12.8210413545    -2.0580015724     1.1456927827
   31      H      11.3327860167    -0.2162104640     0.6905438374
   32      H       8.9631071729    -3.1406555054    -1.6846120262
   33      H       9.9735440488     1.1078744567    -1.2451083513
   34      H       3.6646873385     3.6884936021     2.9081190486
   35      H       2.5700453414     4.9504846878     0.7913806619
   36      H       4.2661832709     8.2412715343    -3.7657503496
   37      H       1.9046177888     8.3654280216    -2.6798338517
   38      H      13.0155933103    -5.1104871748    -0.5643382649
   39      C      11.7700843438    -5.7238958635     1.1301876850
   40      H      13.4565557000    -4.3748658534     1.0806357295
   41      H      10.8559116389    -6.0393096838     0.6109994844
   42      H      11.4604325371    -5.2574616544     2.0733763656
   43      C      12.5921035704    -7.0021414468     1.4562944467
   44      H      13.6061541025    -6.6838462137     1.7294824093
   45      C      12.6556608021    -7.9675355686     0.2444917945
   46      H      12.2246930455    -7.4621454469     2.3820999480
   47      H      12.7704794578    -7.3751634999    -0.6724231463
   48      H      11.6761228756    -8.4139282148     0.0323360595
   49      C      13.6594651581    -9.2106935844     0.2918728321
   50      H      13.2356647429    -9.9387001945     0.9936609651
   51      C      15.0950722328    -8.8792143253     0.6328417866
   52      H      13.6457814725    -9.6963990615    -0.6918100163
   53      H      15.2473425848    -8.3270035564     1.5687985199
   54      H      15.5401647430    -8.3346727126    -0.2095316991
   55      H      15.7109353355    -9.7838935390     0.7016397454
   56      C     -12.2855378446    -2.9199375931    -0.8576637051
   57      C     -11.4181709310    -3.2537699619     0.1477370045
   58      N     -12.1281333967    -1.7113718763    -1.4856810201
   59      C     -10.3301083603    -2.3844972502     0.4572572702
   60      C     -11.0641295862    -0.9448558594    -1.2792298464
   61      C     -10.1445806485    -1.1717253423    -0.2561379692
   62      C      -8.9706857513    -0.3273034272    -0.0601088910
   63      C      -9.0384256063     1.0656383915    -0.0026945931
   64      C      -7.6650901516    -0.8537669670     0.0860905322
   65      N      -8.0385844006     1.8961625083     0.1948054194
   66      N      -7.3951030454    -2.1823181654     0.0461947213
   67      C      -6.5922099536    -0.0131605938     0.2916312970
   68      C      -6.7835619250     1.4596270543     0.3079397778
   69      S      -5.7493217567    -2.2709956692     0.3805990428
   70      N      -5.4360846740    -0.7017566017     0.5770991164
   71      C      -5.6938366046     2.3716007355     0.5806515870
   72      S      -3.9463640806     1.9644128698     0.2550278470
   73      C      -5.8137147738     3.7063451394     0.9591665812
   74      C      -3.5542753748     3.5212743666     1.0412178538
   75      S      -7.2349634295     4.5067894128     1.6035447495
   76      C      -4.6233604586     4.3475456036     1.1643678700
   77      C      -2.2996109813     3.8832931327     1.4091698516
   78      C      -6.1672818804     5.9365058205     1.9718993385
   79      C      -4.8395398857     5.6949727353     1.7316557863
   80      N      -1.9099757946     5.1545949999     1.5857512313
   81      S      -0.9973056880     2.6712778913     1.5422148723
   82      C      -0.5946014810     5.2131488953     2.0789924060
   83      C      -0.0071078099     3.9563061024     2.2238626251
   84      C     -13.5726440630    -3.7252571669    -1.2028578049
   85      H     -11.5252067549    -4.0550290401     0.8719588089
   86      H      -9.6580141686    -2.6561244691     1.2665761514
   87      H     -11.0837440863    -0.0501522643    -1.8989489346
   88      H     -10.0143127698     1.5377170224    -0.1080084589
   89      H      -6.5185114931     6.7787040903     2.5530884931
   90      H      -4.0775655721     6.4416789694     1.9220210810
   91      H      -0.2127805955     6.2039318708     2.2884080378
   92      H       0.9789721601     3.7004925200     2.5879940627
   93      H     -14.2105380763    -3.7214007790    -0.3103723113
   94      C     -13.3271082327    -5.1903620721    -1.7517027491
   95      H     -14.1454725126    -3.2146985049    -1.9862136755
   96      H     -12.2518777150    -5.4016703524    -1.7019921408
   97      H     -13.4579047767    -5.2148374543    -2.8406537212
   98      C     -13.9784211519    -6.2749530722    -0.9521054481
   99      H     -13.7742134908    -6.0716349825     0.1062498729
  100      C     -13.4165112522    -7.7144086293    -1.2531186769
  101      H     -15.0670289977    -6.2485634412    -1.0890636364
  102      H     -12.3578373769    -7.8450039044    -1.5086641715
  103      H     -13.9744078798    -8.0546008355    -2.1341167562
  104      C     -13.6631563389    -8.6630649045    -0.0740866702
  105      H     -13.1709658682    -8.2578138202     0.8189962483
  106      C     -13.1667363043   -10.0930368464    -0.4648057439
  107      H     -14.7349223203    -8.6700993525     0.1614174652
  108      H     -12.1246958892   -10.1148053913    -0.8078216382
  109      H     -13.7161638033   -10.5572572302    -1.2932083384
  110      H     -13.2380179338   -10.7631046161     0.4004283940
 ----------------------------------------------------------------

   10   -5663.4818516577      6.42E-06 Convergence criterion met
 Total energy in the final basis set = -5663.4818516577

                    Orbital Energies (a.u.)
 --------------------------------------------------------------

 Alpha MOs
 -- Occupied --
-88.990 -88.986 -88.929 -88.928 -88.924 -88.920 -88.912 -88.912
-14.387 -14.387 -14.386 -14.379 -14.347 -14.345 -14.345 -14.337
-14.329 -14.321 -10.266 -10.264 -10.263 -10.259 -10.259 -10.257
-10.254 -10.250 -10.245 -10.238 -10.238 -10.236 -10.235 -10.233
-10.233 -10.233 -10.231 -10.231 -10.230 -10.230 -10.229 -10.228
-10.226 -10.222 -10.221 -10.220 -10.219 -10.218 -10.217 -10.217
-10.213 -10.209 -10.209 -10.207 -10.205 -10.202 -10.198 -10.196
-10.194 -10.187 -10.182 -10.181 -10.181 -10.180 -10.179 -10.179
-10.178 -10.177 -10.175 -10.171  -8.045  -8.042  -7.989  -7.988
 -7.985  -7.979  -7.974  -7.971  -6.010  -6.007  -6.005  -6.003
 -6.001  -5.999  -5.953  -5.952  -5.950  -5.949  -5.949  -5.946
 -5.946  -5.944  -5.943  -5.942  -5.939  -5.938  -5.936  -5.935
 -5.935  -5.932  -5.930  -5.927  -1.038  -1.029  -0.967  -0.964
 -0.964  -0.959  -0.945  -0.933  -0.924  -0.915  -0.903  -0.896
 -0.854  -0.842  -0.838  -0.830  -0.810  -0.808  -0.808  -0.807
 -0.804  -0.801  -0.799  -0.793  -0.785  -0.783  -0.770  -0.766
 -0.751  -0.751  -0.745  -0.738  -0.732  -0.727  -0.712  -0.709
 -0.693  -0.692  -0.675  -0.674  -0.660  -0.653  -0.646  -0.640
 -0.639  -0.639  -0.630  -0.618  -0.615  -0.613  -0.597  -0.596
 -0.595  -0.593  -0.589  -0.584  -0.582  -0.580  -0.577  -0.560
 -0.552  -0.550  -0.542  -0.540  -0.526  -0.522  -0.520  -0.512
 -0.508  -0.504  -0.504  -0.494  -0.490  -0.487  -0.484  -0.475
 -0.475  -0.469  -0.469  -0.468  -0.464  -0.452  -0.450  -0.450
 -0.447  -0.440  -0.439  -0.438  -0.437  -0.432  -0.431  -0.430
 -0.430  -0.427  -0.424  -0.423  -0.422  -0.421  -0.416  -0.415
 -0.412  -0.411  -0.410  -0.404  -0.402  -0.397  -0.396  -0.395
 -0.394  -0.393  -0.392  -0.390  -0.388  -0.387  -0.385  -0.382
 -0.380  -0.378  -0.375  -0.372  -0.370  -0.369  -0.360  -0.357
 -0.354  -0.353  -0.352  -0.351  -0.350  -0.349  -0.346  -0.345
 -0.341  -0.339  -0.333  -0.333  -0.331  -0.329  -0.325  -0.319
 -0.314  -0.312  -0.311  -0.308  -0.304  -0.304  -0.303  -0.297
 -0.297  -0.295  -0.291  -0.290  -0.288  -0.284  -0.280  -0.277
 -0.274  -0.270  -0.268  -0.267  -0.254  -0.253  -0.250  -0.246
 -0.243  -0.243  -0.235  -0.235  -0.194  -0.192

          Ground-State Mulliken Net Atomic Charges

     Atom                 Charge (a.u.)
  ----------------------------------------
      1 C                     0.294501
      2 C                    -0.129306
      3 N                    -0.480408
      4 C                    -0.049902
      5 C                     0.110077
      6 C                    -0.019482
      7 C                     0.054915
      8 C                     0.025929
      9 C                     0.231860
     10 N                    -0.474355
     11 N                    -0.549083
     12 C                     0.197121
     13 C                     0.249616
     14 S                     0.596446
     15 N                    -0.542487
     16 C                    -0.182725
     17 S                     0.347944
     18 C                    -0.112120
     19 C                    -0.221282
     20 S                     0.266992
     21 C                     0.125001
     22 C                     0.063308
     23 C                    -0.312155
     24 C                    -0.068956
     25 N                    -0.439665
     26 S                     0.272582
     27 C                     0.123460
     28 C                    -0.303518
     29 C                    -0.221548
     30 H                     0.084654
     31 H                     0.107856
     32 H                     0.115440
     33 H                     0.108800
     34 H                     0.123910
     35 H                     0.114085
     36 H                     0.118162
     37 H                     0.122102
     38 H                     0.125297
     39 C                    -0.190086
     40 H                     0.107871
     41 H                     0.125464
     42 H                     0.090131
     43 C                    -0.177808
     44 H                     0.086804
     45 C                    -0.179872
     46 H                     0.086859
     47 H                     0.091721
     48 H                     0.091317
     49 C                    -0.179743
     50 H                     0.094342
     51 C                    -0.311924
     52 H                     0.094004
     53 H                     0.103593
     54 H                     0.100969
     55 H                     0.097817
     56 C                     0.254494
     57 C                    -0.113026
     58 N                    -0.467580
     59 C                    -0.061152
     60 C                     0.072881
     61 C                     0.031447
     62 C                     0.036466
     63 C                     0.053878
     64 C                     0.245956
     65 N                    -0.519575
     66 N                    -0.576057
     67 C                     0.170610
     68 C                     0.306165
     69 S                     0.595919
     70 N                    -0.542324
     71 C                    -0.191223
     72 S                     0.313061
     73 C                    -0.117302
     74 C                    -0.199754
     75 S                     0.276450
     76 C                     0.160860
     77 C                     0.053673
     78 C                    -0.298353
     79 C                    -0.047334
     80 N                    -0.455861
     81 S                     0.259278
     82 C                     0.117749
     83 C                    -0.307377
     84 C                    -0.235715
     85 H                     0.090945
     86 H                     0.105351
     87 H                     0.100953
     88 H                     0.109655
     89 H                     0.130290
     90 H                     0.132761
     91 H                     0.118296
     92 H                     0.132015
     93 H                     0.110371
     94 C                    -0.186806
     95 H                     0.120737
     96 H                     0.101334
     97 H                     0.101415
     98 C                    -0.181620
     99 H                     0.090336
    100 C                    -0.172700
    101 H                     0.096854
    102 H                     0.092229
    103 H                     0.093832
    104 C                    -0.175344
    105 H                     0.093602
    106 C                    -0.325908
    107 H                     0.094828
    108 H                     0.101589
    109 H                     0.105961
    110 H                     0.098247
  ----------------------------------------
  Sum of atomic charges =     0.000000

                    Cartesian Multipole Moments
 -----------------------------------------------------------------
    Charge (ESU x 10^10)
                 0.0000
    Dipole Moment (Debye)
         X       2.3833      Y      -0.5898      Z       4.5923
       Tot       5.2075
    Quadrupole Moments (Debye-Ang)
        XX    -433.7217     XY       7.5176     YY    -417.8066
        XZ       6.8730     YZ       4.7903     ZZ    -444.3023

 Total job time:  94.64s(wall), 1001.87s(cpu)
        *  Thank you very much for using Q-Chem.  Have a nice day.  *
