 Q-Chem 4.4, Q-Chem, Inc., Pleasanton, CA (2016)
 Q-Chem 4.4.2 for Intel X86 Linux

User input:
--------------------------------------------------------------
$comment
SP
$end

$rem
MEM_STATIC 5000
MEM_TOTAL 20000
JOBTYPE SP
EXCHANGE B3LYP
BASIS 6-31g(d,p)
$end

$molecule
0 1
C          -3.082000    -19.429000      2.031000
C          -2.945000    -19.654000      0.586000
N          -2.855000    -18.261000      2.564000
C          -2.403000    -18.632000     -0.224000
C          -2.622000    -17.234000      1.789000
C          -2.374000    -17.362000      0.381000
C          -1.903000    -16.192000     -0.343000
C          -0.806000    -16.340000     -1.207000
C          -2.473000    -14.936000     -0.346000
N          -0.173000    -15.239000     -1.722000
N          -3.574000    -14.635000      0.425000
C          -1.879000    -13.808000     -0.831000
C          -0.678000    -13.961000     -1.587000
S          -3.848000    -13.033000      0.217000
N          -2.521000    -12.647000     -0.614000
C           0.141000    -12.787000     -1.899000
S          -0.164000    -11.054000     -1.468000
C           1.370000    -12.841000     -2.571000
C           1.516000    -10.648000     -1.932000
S           2.121000    -14.156000     -3.340000
C           2.181000    -11.768000     -2.389000
C           2.062000     -9.378000     -1.584000
C           3.625000    -13.302000     -3.366000
C           3.474000    -12.002000     -2.941000
N           3.271000     -9.058000     -1.921000
S           1.219000     -8.168000     -0.603000
C           3.527000     -7.785000     -1.407000
C           2.593000     -7.212000     -0.655000
C          -3.701000    -20.529000      2.906000
H          -3.215000    -20.619000      0.169000
H          -2.141000    -18.846000     -1.255000
H          -2.412000    -16.289000      2.287000
H          -0.257000    -17.257000     -1.416000
H           4.527000    -13.729000     -3.786000
H           4.227000    -11.232000     -3.067000
H           4.468000     -7.312000     -1.654000
H           2.508000     -6.223000     -0.224000
H          -2.914000    -21.147000      3.357000
C          -4.913000    -21.289000      2.326000
H          -4.069000    -20.063000      3.829000
H          -4.522000    -21.906000      1.508000
H          -5.589000    -20.610000      1.792000
C          -5.820000    -22.070000      3.344000
H          -5.117000    -22.725000      3.872000
C          -6.871000    -22.909000      2.554000
H          -6.288000    -21.437000      4.108000
H          -6.409000    -23.715000      1.970000
H          -7.435000    -22.250000      1.883000
C          -7.777000    -23.646000      3.546000
H          -7.215000    -24.294000      4.229000
C          -8.841000    -24.450000      2.740000
H          -8.416000    -22.942000      4.094000
H          -8.287000    -25.146000      2.098000
H          -9.422000    -23.705000      2.184000
H          -9.544000    -24.975000      3.399000
C         -13.680000      0.609000     -0.515000
C         -12.562000      1.134000     -1.087000
N         -13.640000     -0.483000      0.291000
C         -11.302000      0.546000     -0.824000
C         -12.415000     -1.031000      0.607000
C         -11.194000     -0.486000      0.118000
C          -9.883000     -1.090000      0.492000
C          -9.803000     -1.771000      1.743000
C          -8.731000     -1.202000     -0.361000
N          -8.795000     -2.533000      2.171000
N          -8.712000     -0.809000     -1.616000
C          -7.671000     -1.974000      0.098000
C          -7.703000     -2.661000      1.370000
S          -7.278000     -1.403000     -2.121000
N          -6.705000     -2.213000     -0.791000
C          -6.666000     -3.700000      1.800000
S          -5.278000     -4.369000      0.802000
C          -6.852000     -4.530000      2.868000
C          -5.100000     -5.734000      1.823000
S          -7.920000     -4.461000      4.214000
C          -5.943000     -5.587000      2.915000
C          -4.317000     -6.945000      1.495000
C          -7.405000     -6.120000      4.621000
C          -6.283000     -6.526000      3.936000
N          -3.391000     -7.368000      2.375000
S          -4.631000     -7.925000      0.115000
C          -2.762000     -8.435000      1.867000
C          -3.324000     -8.986000      0.676000
C         -15.072000      1.205000     -0.768000
H         -12.630000      1.994000     -1.747000
H         -10.491000      0.932000     -1.436000
H         -12.461000     -1.881000      1.286000
H         -10.656000     -1.730000      2.420000
H          -7.988000     -6.607000      5.392000
H          -5.889000     -7.523000      4.092000
H          -1.903000     -8.829000      2.395000
H          -2.951000     -9.878000      0.190000
H         -15.476000      0.862000     -1.728000
C         -15.211000      2.681000     -0.662000
H         -15.750000      0.846000      0.016000
H         -14.736000      3.044000     -1.581000
H         -14.612000      3.055000      0.177000
C         -16.675000      3.143000     -0.546000
H         -16.624000      4.204000     -0.818000
C         -17.321000      2.966000      0.855000
H         -17.319000      2.564000     -1.220000
H         -16.747000      3.577000      1.563000
H         -17.187000      1.933000      1.198000
C         -18.915000      3.287000      0.997000
H         -19.458000      3.204000      0.047000
C         -18.984000      4.739000      1.559000
H         -19.397000      2.671000      1.766000
H         -20.002000      5.107000      1.736000
H         -18.509000      5.405000      0.829000
H         -18.383000      4.672000      2.475000
$end

--------------------------------------------------------------

             Standard Nuclear Orientation (Angstroms)
    I     Atom           X                Y                Z
 ----------------------------------------------------------------
    1      C     -10.2656347805     4.1901428016     0.5715889437
    2      C     -10.5487872021     3.7369323880    -0.7965645664
    3      N      -9.3886816263     3.5848747822     1.3228850173
    4      C      -9.9810336930     2.5279751330    -1.2552870407
    5      C      -8.6523244504     2.6322293016     0.8130931992
    6      C      -8.9116203667     2.0525655137    -0.4741936844
    7      C      -8.1795810997     0.8527513795    -0.8476659793
    8      C      -8.8986778148    -0.2253391861    -1.3884336250
    9      C      -6.8126570239     0.6722832853    -0.8103184471
   10      N      -8.3081882561    -1.4539243060    -1.5299104233
   11      N      -5.9630204868     1.6466001193    -0.3348529259
   12      C      -6.1781857332    -0.5292183134    -0.9298386944
   13      C      -6.9552023810    -1.6539798740    -1.3403293289
   14      S      -4.4626053396     0.9885396710    -0.3561797245
   15      N      -4.8505915311    -0.5341687279    -0.7185494904
   16      C      -6.3987071810    -3.0044475386    -1.2266139862
   17      S      -4.7620657919    -3.5017784414    -0.6298376994
   18      C      -7.1055076969    -4.1752466225    -1.5341908642
   19      C      -5.3153011646    -5.2015027320    -0.5438146886
   20      S      -8.6290032922    -4.3543735231    -2.2632050785
   21      C      -6.6236238021    -5.3117425383    -0.9699755283
   22      C      -4.5236089210    -6.1728107803     0.1358205567
   23      C      -8.7031521468    -6.0013873167    -1.7398930195
   24      C      -7.5153039719    -6.4046474536    -1.1743632011
   25      N      -4.8981971227    -7.4110842009     0.1991657623
   26      S      -3.0374216163    -5.7995935828     1.0241145502
   27      C      -3.9478814590    -8.0988356097     0.9568986566
   28      C      -2.9565166995    -7.4022942251     1.5029893204
   29      C     -10.8577767742     5.5209480476     1.0585296551
   30      H     -11.2292739048     4.3105131450    -1.4178189125
   31      H     -10.3154951323     2.1000058217    -2.1946372492
   32      H      -7.9558599703     2.1425343932     1.4915216219
   33      H      -9.9700105564    -0.2669496351    -1.5794459998
   34      H      -9.5492456139    -6.6411758854    -1.9569861614
   35      H      -7.2637103306    -7.4385635723    -0.9657892356
   36      H      -4.0494066026    -9.1712722890     1.0558492204
   37      H      -2.0672109039    -7.6989555775     2.0435762642
   38      H     -11.7928620270     5.3458750645     1.6059408538
   39      C     -10.8671095971     6.6943646375     0.0555588653
   40      H     -10.2549647666     5.8720077305     1.9058098818
   41      H     -11.6086791188     6.4346285969    -0.7094939654
   42      H      -9.9403250188     6.7232455168    -0.5304524317
   43      C     -11.0341457669     8.1396877390     0.6489171467
   44      H     -11.9549889854     8.0750944369     1.2404350856
   45      C     -11.1987068142     9.1575751561    -0.5213165343
   46      H     -10.2389135545     8.4359631056     1.3440686665
   47      H     -12.1349378475     9.0107668102    -1.0745386976
   48      H     -10.3501518257     9.0634215395    -1.2095806753
   49      C     -11.3293324108    10.5715664731     0.0545606305
   50      H     -12.1673383069    10.6655471727     0.7553821100
   51      C     -11.4575496545    11.5770745234    -1.1289349965
   52      H     -10.3861775597    10.9005999602     0.5089138976
   53      H     -12.3501272513    11.2823881930    -1.6945861260
   54      H     -10.5255069110    11.4893672124    -1.6993083409
   55      H     -11.5206955550    12.6154414311    -0.7797620306
   56      C      12.3057088539     1.7264568131    -1.6160723397
   57      C      12.1499384492     0.3828667668    -1.7685005801
   58      N      11.3698854644     2.5029570518    -1.0119349688
   59      C      10.9868422488    -0.2461875349    -1.2645056257
   60      C      10.2599836196     1.8984705902    -0.4610275239
   61      C      10.0676729157     0.4884275314    -0.5032432257
   62      C       8.8654836556    -0.1382758743     0.1175601444
   63      C       8.2629179654     0.5387064627     1.2192731308
   64      C       8.1478821319    -1.2752309852    -0.3919868396
   65      N       7.0882428810     0.2521294839     1.7831029644
   66      N       8.4537621634    -1.8868972943    -1.5154354288
   67      C       6.9375750308    -1.5886226265     0.2139895628
   68      C       6.3896129881    -0.8121465726     1.3038517273
   69      S       7.1827873296    -2.8955290098    -1.6929235537
   70      N       6.2104794366    -2.5234656023    -0.4008263507
   71      C       4.9647849041    -0.9809548436     1.8340957264
   72      S       3.6478887923    -2.0707425160     1.1645761525
   73      C       4.3744958730    -0.0730941827     2.6656412034
   74      C       2.4104059617    -1.1984789255     1.9677837674
   75      S       5.0178414808     1.1743517823     3.6591632179
   76      C       2.9970584930    -0.2513777281     2.7945607199
   77      C       0.9641273977    -1.3163817506     1.6821769760
   78      C       3.3440118273     1.7310490687     3.9266280233
   79      C       2.3954105514     0.8203317065     3.5220362468
   80      N       0.1264809088    -1.5659459974     2.7053441404
   81      S       0.2810876270    -1.0047412650     0.1330698527
   82      C      -1.1185203625    -1.6903244272     2.2292182738
   83      C      -1.3037984214    -1.3374289776     0.8584291425
   84      C      13.5457328736     2.4604641874    -2.1456595420
   85      H      12.9059547311    -0.2073859448    -2.2782702517
   86      H      10.8755268810    -1.2858276744    -1.5611843561
   87      H       9.5731667991     2.5810785151     0.0369544795
   88      H       8.7593455717     1.4161867566     1.6330447654
   89      H       3.2509636901     2.6893885382     4.4210231135
   90      H       1.3434677776     1.0590865822     3.6220037920
   91      H      -1.9008654329    -2.0122838129     2.9046287748
   92      H      -2.2643831467    -1.3382670968     0.3601668792
   93      H      13.4561270209     2.6543709011    -3.2212226399
   94      C      14.8720388872     1.8574071796    -1.8517758854
   95      H      13.6117478015     3.4342201444    -1.6449976147
   96      H      14.9152341992     1.0016642936    -2.5357300346
   97      H      14.8828429540     1.4531304239    -0.8324419966
   98      C      16.0417131147     2.8338619067    -2.0722171872
   99      H      16.9103006886     2.1691357859    -2.1496820872
  100      C      16.2534697517     3.8850202368    -0.9489757654
  101      H      15.8832648806     3.4303474454    -2.9796047335
  102      H      16.4766343938     3.3392071623    -0.0235857773
  103      H      15.3114679811     4.4096898685    -0.7488546973
  104      C      17.3729298917     5.0454049594    -1.2026631528
  105      H      17.5775726370     5.2221592043    -2.2662031303
  106      C      18.6480044459     4.5427231410    -0.4607703904
  107      H      17.1169392667     5.9875056344    -0.7026070379
  108      H      19.5022857387     5.2285089055    -0.5153447245
  109      H      18.9506238415     3.5932392330    -0.9179167672
  110      H      18.2849869615     4.3847230994     0.5629484640
 ----------------------------------------------------------------

    9   -5663.4921634666      7.50E-06 Convergence criterion met
 Total energy in the final basis set = -5663.4921634666

                    Orbital Energies (a.u.)
 --------------------------------------------------------------

 Alpha MOs
 -- Occupied --
-88.992 -88.985 -88.938 -88.929 -88.924 -88.920 -88.908 -88.904
-14.396 -14.390 -14.387 -14.382 -14.349 -14.348 -14.346 -14.345
-14.328 -14.327 -10.273 -10.270 -10.267 -10.263 -10.258 -10.257
-10.252 -10.251 -10.247 -10.243 -10.243 -10.242 -10.240 -10.236
-10.236 -10.235 -10.233 -10.230 -10.227 -10.226 -10.225 -10.225
-10.223 -10.223 -10.223 -10.223 -10.220 -10.220 -10.217 -10.217
-10.216 -10.208 -10.207 -10.207 -10.207 -10.198 -10.197 -10.193
-10.187 -10.186 -10.186 -10.185 -10.183 -10.182 -10.182 -10.179
-10.178 -10.176 -10.173 -10.171  -8.048  -8.042  -7.998  -7.988
 -7.983  -7.983  -7.970  -7.965  -6.013  -6.007  -6.007  -6.006
 -6.001  -5.999  -5.962  -5.959  -5.956  -5.952  -5.948  -5.948
 -5.947  -5.944  -5.944  -5.943  -5.940  -5.940  -5.934  -5.930
 -5.929  -5.926  -5.925  -5.921  -1.051  -1.043  -0.980  -0.971
 -0.955  -0.955  -0.946  -0.928  -0.923  -0.921  -0.913  -0.904
 -0.851  -0.843  -0.837  -0.830  -0.823  -0.813  -0.811  -0.809
 -0.806  -0.800  -0.797  -0.791  -0.784  -0.779  -0.768  -0.763
 -0.752  -0.746  -0.742  -0.738  -0.730  -0.723  -0.712  -0.706
 -0.695  -0.690  -0.676  -0.672  -0.656  -0.652  -0.647  -0.645
 -0.637  -0.632  -0.627  -0.624  -0.613  -0.611  -0.597  -0.597
 -0.593  -0.592  -0.588  -0.583  -0.581  -0.578  -0.575  -0.562
 -0.554  -0.550  -0.542  -0.536  -0.527  -0.522  -0.520  -0.512
 -0.511  -0.504  -0.500  -0.498  -0.485  -0.485  -0.481  -0.478
 -0.476  -0.471  -0.469  -0.469  -0.468  -0.459  -0.451  -0.450
 -0.449  -0.444  -0.442  -0.441  -0.440  -0.438  -0.434  -0.432
 -0.429  -0.427  -0.424  -0.423  -0.423  -0.420  -0.418  -0.415
 -0.415  -0.414  -0.410  -0.403  -0.403  -0.401  -0.398  -0.397
 -0.395  -0.394  -0.391  -0.390  -0.390  -0.385  -0.384  -0.381
 -0.379  -0.378  -0.373  -0.372  -0.369  -0.363  -0.360  -0.359
 -0.353  -0.352  -0.350  -0.349  -0.349  -0.345  -0.343  -0.342
 -0.341  -0.339  -0.337  -0.334  -0.331  -0.329  -0.328  -0.324
 -0.321  -0.321  -0.312  -0.308  -0.306  -0.302  -0.302  -0.300
 -0.300  -0.299  -0.294  -0.292  -0.291  -0.286  -0.285  -0.279
 -0.274  -0.273  -0.267  -0.263  -0.255  -0.250  -0.249  -0.248
 -0.248  -0.243  -0.230  -0.230  -0.196  -0.191

          Ground-State Mulliken Net Atomic Charges

     Atom                 Charge (a.u.)
  ----------------------------------------
      1 C                     0.266021
      2 C                    -0.126446
      3 N                    -0.449125
      4 C                    -0.068886
      5 C                     0.100643
      6 C                     0.022422
      7 C                     0.001016
      8 C                     0.059003
      9 C                     0.214687
     10 N                    -0.513677
     11 N                    -0.537213
     12 C                     0.210430
     13 C                     0.289757
     14 S                     0.607342
     15 N                    -0.576887
     16 C                    -0.203270
     17 S                     0.316022
     18 C                    -0.140280
     19 C                    -0.248126
     20 S                     0.299906
     21 C                     0.173443
     22 C                     0.076023
     23 C                    -0.305390
     24 C                    -0.059588
     25 N                    -0.441987
     26 S                     0.262400
     27 C                     0.107515
     28 C                    -0.289411
     29 C                    -0.242753
     30 H                     0.090097
     31 H                     0.107008
     32 H                     0.107677
     33 H                     0.119178
     34 H                     0.132504
     35 H                     0.126639
     36 H                     0.106308
     37 H                     0.145971
     38 H                     0.111037
     39 C                    -0.186357
     40 H                     0.119169
     41 H                     0.091983
     42 H                     0.100613
     43 C                    -0.183075
     44 H                     0.095271
     45 C                    -0.163531
     46 H                     0.101893
     47 H                     0.094277
     48 H                     0.094261
     49 C                    -0.184670
     50 H                     0.096319
     51 C                    -0.316170
     52 H                     0.093835
     53 H                     0.098873
     54 H                     0.102842
     55 H                     0.097431
     56 C                     0.275035
     57 C                    -0.107776
     58 N                    -0.494806
     59 C                    -0.084404
     60 C                     0.064237
     61 C                     0.037710
     62 C                     0.029507
     63 C                     0.052928
     64 C                     0.247025
     65 N                    -0.515957
     66 N                    -0.540587
     67 C                     0.194338
     68 C                     0.296738
     69 S                     0.581079
     70 N                    -0.540158
     71 C                    -0.245602
     72 S                     0.313501
     73 C                    -0.077034
     74 C                    -0.219888
     75 S                     0.281052
     76 C                     0.143237
     77 C                     0.000696
     78 C                    -0.306924
     79 C                    -0.056209
     80 N                    -0.379253
     81 S                     0.304315
     82 C                     0.118058
     83 C                    -0.334751
     84 C                    -0.232430
     85 H                     0.088852
     86 H                     0.119731
     87 H                     0.110038
     88 H                     0.112493
     89 H                     0.127610
     90 H                     0.113909
     91 H                     0.118576
     92 H                     0.153992
     93 H                     0.110954
     94 C                    -0.178618
     95 H                     0.117805
     96 H                     0.086454
     97 H                     0.096945
     98 C                    -0.178235
     99 H                     0.093533
    100 C                    -0.185406
    101 H                     0.094590
    102 H                     0.092026
    103 H                     0.098272
    104 C                    -0.188098
    105 H                     0.096111
    106 C                    -0.313181
    107 H                     0.099973
    108 H                     0.094877
    109 H                     0.103758
    110 H                     0.106388
  ----------------------------------------
  Sum of atomic charges =     0.000000

                    Cartesian Multipole Moments
 -----------------------------------------------------------------
    Charge (ESU x 10^10)
                 0.0000
    Dipole Moment (Debye)
         X      -2.0979      Y      -0.8474      Z      -2.3131
       Tot       3.2357
    Quadrupole Moments (Debye-Ang)
        XX    -406.9167     XY     -24.8946     YY    -421.9371
        XZ       1.2403     YZ      -1.0361     ZZ    -451.3788

 Total job time:  83.06s(wall), 885.83s(cpu)
        *  Thank you very much for using Q-Chem.  Have a nice day.  *
