 Q-Chem 4.4, Q-Chem, Inc., Pleasanton, CA (2016)
 Q-Chem 4.4.2 for Intel X86 Linux

User input:
--------------------------------------------------------------
$comment
SP
$end

$rem
MEM_STATIC 5000
MEM_TOTAL 20000
JOBTYPE SP
EXCHANGE B3LYP
BASIS 6-31g(d,p)
$end

$molecule
0 1
C          14.244000      8.666000     -3.351000
C          13.125000      9.350000     -2.900000
N          15.354000      9.330000     -3.589000
C          13.158000     10.742000     -2.878000
C          15.401000     10.648000     -3.613000
C          14.311000     11.473000     -3.277000
C          14.305000     12.906000     -3.413000
C          15.197000     13.501000     -4.344000
C          13.453000     13.841000     -2.862000
N          15.371000     14.809000     -4.670000
N          12.469000     13.510000     -1.948000
C          13.456000     15.161000     -3.248000
C          14.472000     15.618000     -4.205000
S          11.622000     14.859000     -1.715000
N          12.498000     15.884000     -2.676000
C          14.674000     17.021000     -4.582000
S          13.406000     18.179000     -4.454000
C          15.824000     17.643000     -5.099000
C          14.430000     19.383000     -5.329000
S          17.346000     16.951000     -5.459000
C          15.615000     18.883000     -5.625000
C          14.011000     20.748000     -5.610000
C          17.808000     18.488000     -6.207000
C          16.787000     19.425000     -6.210000
N          14.862000     21.682000     -6.004000
S          12.444000     21.345000     -5.261000
C          14.345000     22.911000     -5.877000
C          12.981000     22.948000     -5.540000
C          14.193000      7.171000     -3.421000
H          12.185000      8.850000     -2.688000
H          12.223000     11.180000     -2.544000
H          16.329000     11.179000     -3.820000
H          15.855000     12.853000     -4.921000
H          18.840000     18.622000     -6.502000
H          17.005000     20.453000     -6.476000
H          14.939000     23.797000     -6.057000
H          12.338000     23.795000     -5.336000
H          15.060000      6.766000     -2.885000
C          14.394000      6.721000     -4.861000
H          13.303000      6.775000     -2.918000
H          15.466000      6.755000     -5.092000
H          13.743000      7.213000     -5.593000
C          14.089000      5.223000     -4.952000
H          14.706000      4.730000     -4.190000
C          14.400000      4.501000     -6.302000
H          13.004000      5.182000     -4.799000
H          14.032000      3.484000     -6.123000
H          15.469000      4.466000     -6.544000
C          13.563000      5.113000     -7.490000
H          12.524000      4.801000     -7.330000
C          14.035000      4.542000     -8.786000
H          13.523000      6.207000     -7.564000
H          13.242000      4.597000     -9.542000
H          14.450000      3.529000     -8.728000
H          14.769000      5.253000     -9.185000
C          19.761000     17.865000     -1.974000
C          18.727000     17.464000     -1.146000
N          19.572000     18.824000     -2.885000
C          17.497000     18.182000     -1.134000
C          18.397000     19.479000     -2.876000
C          17.265000     19.183000     -2.075000
C          16.102000     20.086000     -2.080000
C          14.817000     19.607000     -1.746000
C          16.128000     21.483000     -2.393000
N          13.685000     20.351000     -1.703000
N          17.291000     22.153000     -2.648000
C          14.960000     22.267000     -2.223000
C          13.683000     21.659000     -1.951000
S          16.897000     23.700000     -2.755000
N          15.269000     23.568000     -2.516000
C          12.442000     22.409000     -1.982000
S          12.337000     24.146000     -2.158000
C          11.225000     21.799000     -2.025000
C          10.582000     23.989000     -2.167000
S          10.763000     20.115000     -2.215000
C          10.267000     22.688000     -2.243000
C           9.617000     25.082000     -2.307000
C           9.112000     20.711000     -2.555000
C           9.001000     22.097000     -2.545000
N          10.039000     26.232000     -2.744000
S           8.088000     24.934000     -1.515000
C           9.072000     27.158000     -2.593000
C           7.951000     26.658000     -1.906000
C          21.066000     17.078000     -1.936000
H          18.981000     16.725000     -0.392000
H          16.781000     17.838000     -0.394000
H          18.230000     20.143000     -3.722000
H          14.598000     18.553000     -1.585000
H           8.311000     20.003000     -2.719000
H           8.130000     22.654000     -2.871000
H           9.292000     28.116000     -3.046000
H           6.985000     27.137000     -1.817000
H          21.858000     17.799000     -2.169000
C          21.288000     15.930000     -3.052000
H          21.267000     16.703000     -0.924000
H          20.575000     15.099000     -2.989000
H          22.299000     15.524000     -2.924000
C          21.298000     16.501000     -4.485000
H          20.347000     17.002000     -4.701000
C          21.724000     15.414000     -5.528000
H          22.113000     17.217000     -4.316000
H          21.237000     14.459000     -5.298000
H          22.807000     15.243000     -5.515000
C          21.363000     15.928000     -6.982000
H          20.278000     15.928000     -7.145000
C          22.004000     15.096000     -8.141000
H          21.583000     17.002000     -7.022000
H          22.044000     14.025000     -7.906000
H          23.042000     15.428000     -8.270000
H          21.474000     15.312000     -9.076000
$end

--------------------------------------------------------------

             Standard Nuclear Orientation (Angstroms)
    I     Atom           X                Y                Z
 ----------------------------------------------------------------
    1      C       8.5219360168     2.6229803721    -1.3090135344
    2      C       7.5306020502     3.5754506056    -1.4919764299
    3      N       8.1855163800     1.3586752473    -1.1748704045
    4      C       6.2000026937     3.1881359721    -1.3551198368
    5      C       6.9362913601     0.9712443652    -1.0038640848
    6      C       5.8343023958     1.8452254527    -1.0621597215
    7      C       4.4794081353     1.4649431726    -0.7593925994
    8      C       4.2639226345     0.3405355160     0.0806808622
    9      C       3.2954226761     2.1094742957    -1.0534811298
   10      N       3.1009149638    -0.2038052167     0.5262393034
   11      N       3.2384554015     3.2519205407    -1.8311599241
   12      C       2.0894902534     1.7183742205    -0.5204025963
   13      C       2.0398297863     0.5074393855     0.3091302019
   14      S       1.7074953719     3.7452484696    -1.7656775414
   15      N       1.0804098694     2.5216877442    -0.8430807043
   16      C       0.8002058442    -0.0945760491     0.8113770522
   17      S      -0.6314814213     0.8381674499     1.0245275596
   18      C       0.5564798978    -1.4213141289     1.2076556545
   19      C      -1.4082940270    -0.5625262406     1.8602526106
   20      S       1.6372756681    -2.7464619852     1.2361453321
   21      C      -0.6015828380    -1.6062130899     1.9023930683
   22      C      -2.7738315251    -0.5477382713     2.3630802724
   23      C       0.3879811068    -3.6785370570     2.0762739886
   24      C      -0.7528953125    -2.9419412274     2.3524018211
   25      N      -3.4067747739    -1.6529401999     2.7232254386
   26      S      -3.7725171182     0.8436119402     2.3413852240
   27      C      -4.7279099727    -1.4581640560     2.8258073099
   28      C      -5.1394092696    -0.1186132439     2.7176132688
   29      C       9.9544254067     3.0480564326    -1.4080614549
   30      H       7.7541332526     4.6313871935    -1.6084913386
   31      H       5.5063304789     4.0130111043    -1.4817092305
   32      H       6.6794072271    -0.0805514700    -0.8866887327
   33      H       5.1305373102    -0.1952764860     0.4649743730
   34      H       0.5501083491    -4.7387636598     2.2164143044
   35      H      -1.6461256564    -3.4488275901     2.6992011407
   36      H      -5.4088081828    -2.2779783028     3.0115873627
   37      H      -6.1359585395     0.3048938192     2.7199198123
   38      H      10.4664966865     2.3887359870    -2.1194611698
   39      C      10.6552343164     2.7911025203    -0.0816593443
   40      H      10.0453444568     4.0657304656    -1.8055514407
   41      H      10.9129360637     1.7263122245    -0.0223935406
   42      H      10.1412005895     3.1965291167     0.7975946591
   43      C      12.0334609046     3.4576887185    -0.1199256745
   44      H      12.5357593621     3.0888513566    -1.0232734813
   45      C      13.0074475307     3.1766473744     1.0687167508
   46      H      11.7913779102     4.5269739336    -0.1014878730
   47      H      13.8678554636     3.8135314402     0.8324311700
   48      H      13.3323053534     2.1311225894     1.1311292416
   49      C      12.4042387476     3.6723079364     2.4387228716
   50      H      12.4319269393     4.7681795948     2.4110882493
   51      C      13.2633636626     3.2048825860     3.5664901004
   52      H      11.3568621685     3.4196577999     2.6462854165
   53      H      13.1383950739     3.8558908228     4.4405502399
   54      H      14.3246422359     3.0753713774     3.3242657485
   55      H      12.8172593912     2.2685806579     3.9239920983
   56      C       0.7987241352    -4.8594959727    -2.4577367308
   57      C       0.8102348281    -3.6618822454    -3.1513719837
   58      N      -0.0258741218    -5.0393891697    -1.4218800070
   59      C      -0.1725807069    -2.6667646184    -2.8823319632
   60      C      -0.9347332358    -4.0811215161    -1.1660886563
   61      C      -1.0430675486    -2.8200284699    -1.8052670393
   62      C      -2.1847770587    -1.9388726098    -1.5085066229
   63      C      -2.0821459492    -0.5425162625    -1.6870501940
   64      C      -3.4703191928    -2.3627003104    -1.0415960302
   65      N      -3.0713729721     0.3558892944    -1.4609830521
   66      N      -3.7972823504    -3.6814595350    -0.8985463846
   67      C      -4.5259964023    -1.4242054011    -0.9295561505
   68      C      -4.2882063265    -0.0100563454    -1.0637773417
   69      S      -5.3581909425    -3.7157113838    -0.5488534081
   70      N      -5.6552790267    -2.0919611093    -0.5387185011
   71      C      -5.2977147542     0.9819781573    -0.7470719898
   72      S      -6.9615523453     0.6132621763    -0.3535456299
   73      C      -4.9953051711     2.2997251010    -0.5823618309
   74      C      -7.2267102756     2.3340906910    -0.0829989710
   75      S      -3.4607777498     3.1522427966    -0.5204007804
   76      C      -6.0421087493     2.9614069001    -0.1112053118
   77      C      -8.4828277141     2.9597113553     0.3368126121
   78      C      -4.3725142887     4.5380906233     0.1465169692
   79      C      -5.7297389270     4.2887903737     0.3174194752
   80      N      -9.4182854206     2.2045452989     0.8329941377
   81      S      -8.8260809918     4.5619462825    -0.2127594263
   82      C     -10.5594595215     2.9115108532     0.9482650208
   83      C     -10.4519931807     4.2003263191     0.3950781802
   84      C       1.8578538006    -5.9024471317    -2.7958716623
   85      H       1.4634247045    -3.6205713155    -4.0178530236
   86      H      -0.1266250474    -1.7995307380    -3.5337807133
   87      H      -1.4811655030    -4.1979929140    -0.2321433401
   88      H      -1.1480698871    -0.0411195934    -1.9338320623
   89      H      -3.8586331895     5.4673434650     0.3518858376
   90      H      -6.4208371381     4.9390882991     0.8415014067
   91      H     -11.3563209770     2.3973266394     1.4698006523
   92      H     -11.1546800076     5.0136788008     0.5183946994
   93      H       1.3904162004    -6.8761174654    -2.6091575192
   94      C       3.1832769731    -5.9592262907    -1.8724684237
   95      H       2.1096611869    -5.8717934029    -3.8639650051
   96      H       3.8011339552    -5.0542019788    -1.9181055197
   97      H       3.7932749466    -6.8073306276    -2.2070764123
   98      C       2.8583780506    -6.2952150774    -0.4023724318
   99      H       2.1850592818    -5.5400771014     0.0200804918
  100      C       4.1625562140    -6.5540241317     0.4240845795
  101      H       2.3393827454    -7.2393160046    -0.6139363992
  102      H       4.9273741574    -5.8127037279     0.1641007870
  103      H       4.5819643408    -7.5460230803     0.2183325223
  104      C       3.8073776043    -6.5224956318     1.9672913411
  105      H       3.5745663311    -5.5033224247     2.3002761531
  106      C       4.9359253501    -7.0674878777     2.9031061931
  107      H       2.8357499050    -7.0148548194     2.0976678896
  108      H       5.9364841193    -6.8006077838     2.5404449669
  109      H       4.8840504034    -8.1636712260     2.9028678226
  110      H       4.7465777885    -6.7323334349     3.9295563869
 ----------------------------------------------------------------

   10   -5663.5054456976      3.23E-06 Convergence criterion met
 Total energy in the final basis set = -5663.5054456976

                    Orbital Energies (a.u.)
 --------------------------------------------------------------

 Alpha MOs
 -- Occupied --
-88.988 -88.985 -88.935 -88.926 -88.919 -88.919 -88.914 -88.902
-14.385 -14.380 -14.378 -14.374 -14.348 -14.345 -14.343 -14.335
-14.322 -14.322 -10.267 -10.262 -10.260 -10.259 -10.256 -10.253
-10.253 -10.252 -10.236 -10.236 -10.235 -10.234 -10.234 -10.233
-10.233 -10.232 -10.230 -10.225 -10.224 -10.222 -10.222 -10.222
-10.222 -10.220 -10.220 -10.219 -10.219 -10.216 -10.210 -10.209
-10.208 -10.205 -10.201 -10.198 -10.196 -10.191 -10.190 -10.188
-10.186 -10.182 -10.180 -10.179 -10.176 -10.176 -10.175 -10.174
-10.173 -10.170 -10.168 -10.166  -8.044  -8.040  -7.996  -7.985
 -7.981  -7.978  -7.972  -7.963  -6.009  -6.005  -6.003  -6.001
 -6.000  -5.998  -5.960  -5.957  -5.953  -5.949  -5.945  -5.944
 -5.942  -5.941  -5.941  -5.939  -5.938  -5.937  -5.935  -5.933
 -5.929  -5.927  -5.923  -5.919  -1.038  -1.028  -0.984  -0.973
 -0.970  -0.956  -0.948  -0.934  -0.927  -0.919  -0.901  -0.890
 -0.847  -0.845  -0.844  -0.831  -0.818  -0.811  -0.806  -0.802
 -0.801  -0.796  -0.795  -0.792  -0.786  -0.774  -0.768  -0.762
 -0.750  -0.746  -0.740  -0.739  -0.732  -0.724  -0.712  -0.706
 -0.693  -0.690  -0.670  -0.670  -0.655  -0.651  -0.650  -0.637
 -0.631  -0.630  -0.623  -0.621  -0.613  -0.605  -0.604  -0.595
 -0.594  -0.590  -0.587  -0.582  -0.577  -0.572  -0.563  -0.556
 -0.552  -0.548  -0.542  -0.539  -0.527  -0.523  -0.518  -0.509
 -0.505  -0.500  -0.498  -0.496  -0.490  -0.483  -0.478  -0.474
 -0.473  -0.472  -0.470  -0.463  -0.460  -0.451  -0.450  -0.447
 -0.446  -0.444  -0.437  -0.436  -0.433  -0.432  -0.431  -0.429
 -0.426  -0.425  -0.422  -0.421  -0.419  -0.415  -0.414  -0.413
 -0.410  -0.407  -0.405  -0.401  -0.401  -0.398  -0.396  -0.394
 -0.393  -0.393  -0.391  -0.390  -0.387  -0.385  -0.384  -0.383
 -0.378  -0.374  -0.369  -0.367  -0.366  -0.365  -0.360  -0.358
 -0.353  -0.353  -0.350  -0.349  -0.346  -0.346  -0.342  -0.339
 -0.339  -0.333  -0.331  -0.326  -0.322  -0.322  -0.319  -0.316
 -0.311  -0.308  -0.307  -0.304  -0.303  -0.301  -0.300  -0.297
 -0.297  -0.294  -0.292  -0.290  -0.285  -0.283  -0.281  -0.277
 -0.272  -0.269  -0.269  -0.260  -0.255  -0.252  -0.246  -0.243
 -0.241  -0.241  -0.230  -0.229  -0.194  -0.187

          Ground-State Mulliken Net Atomic Charges

     Atom                 Charge (a.u.)
  ----------------------------------------
      1 C                     0.299155
      2 C                    -0.132025
      3 N                    -0.493246
      4 C                    -0.071951
      5 C                     0.073511
      6 C                     0.037907
      7 C                     0.085807
      8 C                     0.018668
      9 C                     0.188030
     10 N                    -0.521046
     11 N                    -0.552963
     12 C                     0.240590
     13 C                     0.334440
     14 S                     0.597217
     15 N                    -0.585604
     16 C                    -0.233001
     17 S                     0.338049
     18 C                    -0.126724
     19 C                    -0.258921
     20 S                     0.289132
     21 C                     0.176778
     22 C                     0.044339
     23 C                    -0.310226
     24 C                    -0.050310
     25 N                    -0.439731
     26 S                     0.288856
     27 C                     0.121662
     28 C                    -0.322773
     29 C                    -0.224142
     30 H                     0.085295
     31 H                     0.113971
     32 H                     0.099355
     33 H                     0.107089
     34 H                     0.138295
     35 H                     0.133885
     36 H                     0.111786
     37 H                     0.150846
     38 H                     0.117870
     39 C                    -0.168023
     40 H                     0.096256
     41 H                     0.113586
     42 H                     0.095471
     43 C                    -0.181224
     44 H                     0.083632
     45 C                    -0.184324
     46 H                     0.085480
     47 H                     0.097091
     48 H                     0.092350
     49 C                    -0.172843
     50 H                     0.090818
     51 C                    -0.318767
     52 H                     0.097005
     53 H                     0.094909
     54 H                     0.104545
     55 H                     0.104127
     56 C                     0.284220
     57 C                    -0.104714
     58 N                    -0.488717
     59 C                    -0.092789
     60 C                     0.093611
     61 C                     0.051224
     62 C                     0.059011
     63 C                     0.037797
     64 C                     0.188516
     65 N                    -0.538691
     66 N                    -0.536165
     67 C                     0.212403
     68 C                     0.335588
     69 S                     0.609202
     70 N                    -0.583916
     71 C                    -0.219760
     72 S                     0.348298
     73 C                    -0.104664
     74 C                    -0.215870
     75 S                     0.297144
     76 C                     0.141322
     77 C                     0.038853
     78 C                    -0.324937
     79 C                    -0.068618
     80 N                    -0.411731
     81 S                     0.286726
     82 C                     0.126417
     83 C                    -0.320983
     84 C                    -0.243172
     85 H                     0.084145
     86 H                     0.095379
     87 H                     0.112263
     88 H                     0.120512
     89 H                     0.126519
     90 H                     0.115494
     91 H                     0.119187
     92 H                     0.128074
     93 H                     0.111153
     94 C                    -0.187578
     95 H                     0.093891
     96 H                     0.092319
     97 H                     0.094396
     98 C                    -0.178265
     99 H                     0.121466
    100 C                    -0.175588
    101 H                     0.095356
    102 H                     0.093761
    103 H                     0.092658
    104 C                    -0.192767
    105 H                     0.098917
    106 C                    -0.324460
    107 H                     0.095496
    108 H                     0.106471
    109 H                     0.102952
    110 H                     0.102685
  ----------------------------------------
  Sum of atomic charges =     0.000000

                    Cartesian Multipole Moments
 -----------------------------------------------------------------
    Charge (ESU x 10^10)
                 0.0000
    Dipole Moment (Debye)
         X      -2.4158      Y       4.4638      Z      -0.3954
       Tot       5.0909
    Quadrupole Moments (Debye-Ang)
        XX    -409.1141     XY      -8.6470     YY    -415.5202
        XZ     -13.1941     YZ       3.3877     ZZ    -447.5255

 Total job time:  116.00s(wall), 1255.49s(cpu)
        *  Thank you very much for using Q-Chem.  Have a nice day.  *
