 Q-Chem 4.4, Q-Chem, Inc., Pleasanton, CA (2016)
 Q-Chem 4.4.2 for Intel X86 Linux

User input:
--------------------------------------------------------------
$comment
SP
$end

$rem
MEM_STATIC 5000
MEM_TOTAL 20000
JOBTYPE SP
EXCHANGE B3LYP
BASIS 6-31g(d,p)
$end

$molecule
0 1
C          27.431000     30.342000      1.328000
C          26.153000     30.439000      1.857000
N          27.708000     29.654000      0.215000
C          25.130000     29.794000      1.136000
C          26.771000     29.023000     -0.428000
C          25.419000     29.025000     -0.009000
C          24.352000     28.249000     -0.714000
C          24.734000     27.131000     -1.427000
C          22.906000     28.564000     -0.816000
N          23.971000     26.368000     -2.201000
N          22.200000     29.444000     -0.080000
C          22.110000     27.754000     -1.613000
C          22.676000     26.679000     -2.398000
S          20.703000     29.213000     -0.460000
N          20.770000     27.944000     -1.435000
C          21.964000     25.787000     -3.343000
S          20.225000     25.552000     -3.656000
C          22.605000     24.793000     -4.042000
C          20.425000     24.188000     -4.665000
S          24.319000     24.527000     -4.364000
C          21.785000     23.936000     -4.826000
C          19.410000     23.690000     -5.485000
C          23.879000     23.138000     -5.363000
C          22.543000     23.000000     -5.565000
N          18.503000     24.606000     -5.867000
S          19.402000     22.112000     -6.130000
C          17.712000     24.012000     -6.811000
C          18.141000     22.760000     -7.166000
C          28.506000     31.039000      2.159000
H          26.000000     30.963000      2.796000
H          24.143000     29.905000      1.576000
H          27.119000     28.461000     -1.294000
H          25.760000     26.789000     -1.297000
H          24.602000     22.530000     -5.891000
H          22.122000     22.193000     -6.154000
H          16.953000     24.566000     -7.347000
H          17.778000     22.144000     -7.979000
H          29.022000     31.696000      1.447000
C          29.665000     30.136000      2.777000
H          28.227000     31.729000      2.965000
H          30.240000     29.655000      1.975000
H          29.223000     29.305000      3.339000
C          30.632000     30.994000      3.684000
H          31.295000     31.662000      3.120000
C          31.573000     30.159000      4.501000
H          30.149000     31.576000      4.479000
H          32.272000     29.546000      3.919000
H          31.061000     29.547000      5.254000
C          32.539000     30.916000      5.449000
H          33.479000     30.361000      5.553000
C          31.970000     31.046000      6.913000
H          32.745000     31.896000      5.000000
H          32.671000     31.668000      7.484000
H          31.873000     30.042000      7.343000
H          30.990000     31.540000      6.921000
C          19.761000     17.865000     -1.974000
C          18.727000     17.464000     -1.146000
N          19.572000     18.824000     -2.885000
C          17.497000     18.182000     -1.134000
C          18.397000     19.479000     -2.876000
C          17.265000     19.183000     -2.075000
C          16.102000     20.086000     -2.080000
C          14.817000     19.607000     -1.746000
C          16.128000     21.483000     -2.393000
N          13.685000     20.351000     -1.703000
N          17.291000     22.153000     -2.648000
C          14.960000     22.267000     -2.223000
C          13.683000     21.659000     -1.951000
S          16.897000     23.700000     -2.755000
N          15.269000     23.568000     -2.516000
C          12.442000     22.409000     -1.982000
S          12.337000     24.146000     -2.158000
C          11.225000     21.799000     -2.025000
C          10.582000     23.989000     -2.167000
S          10.763000     20.115000     -2.215000
C          10.267000     22.688000     -2.243000
C           9.617000     25.082000     -2.307000
C           9.112000     20.711000     -2.555000
C           9.001000     22.097000     -2.545000
N          10.039000     26.232000     -2.744000
S           8.088000     24.934000     -1.515000
C           9.072000     27.158000     -2.593000
C           7.951000     26.658000     -1.906000
C          21.066000     17.078000     -1.936000
H          18.981000     16.725000     -0.392000
H          16.781000     17.838000     -0.394000
H          18.230000     20.143000     -3.722000
H          14.598000     18.553000     -1.585000
H           8.311000     20.003000     -2.719000
H           8.130000     22.654000     -2.871000
H           9.292000     28.116000     -3.046000
H           6.985000     27.137000     -1.817000
H          21.858000     17.799000     -2.169000
C          21.288000     15.930000     -3.052000
H          21.267000     16.703000     -0.924000
H          20.575000     15.099000     -2.989000
H          22.299000     15.524000     -2.924000
C          21.298000     16.501000     -4.485000
H          20.347000     17.002000     -4.701000
C          21.724000     15.414000     -5.528000
H          22.113000     17.217000     -4.316000
H          21.237000     14.459000     -5.298000
H          22.807000     15.243000     -5.515000
C          21.363000     15.928000     -6.982000
H          20.278000     15.928000     -7.145000
C          22.004000     15.096000     -8.141000
H          21.583000     17.002000     -7.022000
H          22.044000     14.025000     -7.906000
H          23.042000     15.428000     -8.270000
H          21.474000     15.312000     -9.076000
$end

--------------------------------------------------------------

             Standard Nuclear Orientation (Angstroms)
    I     Atom           X                Y                Z
 ----------------------------------------------------------------
    1      C      10.5697621856     2.1814641841    -0.0303790348
    2      C       9.6376887097     3.0925565020     0.4425732079
    3      N      10.2326771873     1.0883505207    -0.7234289773
    4      C       8.2916900413     2.8279289470     0.1253117356
    5      C       8.9868465635     0.8210453816    -0.9803978847
    6      C       7.9219862245     1.6535202141    -0.5602465886
    7      C       6.4853570732     1.3144171164    -0.8027249807
    8      C       6.1542898936    -0.0172079726    -0.9489650058
    9      C       5.3430591518     2.2431007727    -0.9850629236
   10      N       4.9692466744    -0.5235291410    -1.2694731073
   11      N       5.2965256346     3.5587838901    -0.6998532350
   12      C       4.1033559387     1.7078643734    -1.3037837111
   13      C       3.9321189391     0.2911555655    -1.5400463686
   14      S       3.8044280819     3.9818580275    -0.8826732767
   15      N       3.0693883200     2.5909719718    -1.1837173410
   16      C       2.6925440601    -0.4055287629    -1.9568413612
   17      S       1.0059490289     0.1601482774    -2.0696318167
   18      C       2.6428780211    -1.7640595327    -2.1554501025
   19      C       0.3365601166    -1.3840327491    -2.3628901352
   20      S       3.9317812548    -2.9469610143    -2.3828452186
   21      C       1.3653702475    -2.3192009659    -2.4405761757
   22      C      -0.9639735424    -1.5748504217    -2.8349386684
   23      C       2.6997216667    -4.1879604508    -2.6335872575
   24      C       1.4320229160    -3.7057009054    -2.7050687831
   25      N      -1.4504234241    -0.5499669495    -3.5564713295
   26      S      -1.8143088666    -3.0461917060    -2.6998177530
   27      C      -2.6295576524    -0.9739550757    -4.1037642497
   28      C      -2.8876592067    -2.2995451441    -3.8718923919
   29      C      12.0109307319     2.5020607296     0.3598081973
   30      H       9.9676163306     3.9304395887     1.0498669573
   31      H       7.5953400283     3.5715664253     0.5023925760
   32      H       8.8278052752    -0.1163638044    -1.5122567820
   33      H       6.9281573703    -0.7471733331    -0.7148289322
   34      H       2.9307238251    -5.2215171946    -2.8562427317
   35      H       0.5707985737    -4.3475161549    -2.8526384881
   36      H      -3.1828026141    -0.3635434924    -4.8049138138
   37      H      -3.6725707427    -2.9049358587    -4.3073346535
   38      H      12.5623150189     2.4915496936    -0.5892512772
   39      C      12.7806736297     1.4502152484     1.2772671638
   40      H      12.2698913743     3.4826455194     0.7781021797
   41      H      12.8693363132     0.4869800266     0.7581266857
   42      H      12.1805430269     1.2315958095     2.1682316976
   43      C      14.2169033759     1.9789843410     1.6665605784
   44      H      14.9376169538     1.9592900794     0.8394734762
   45      C      14.8772323874     1.1635474315     2.7385788820
   46      H      14.2497671746     2.9726947798     2.1307776984
   47      H      15.0716977324     0.1178000619     2.4708296177
   48      H      14.3590533735     1.2226117553     3.7038244027
   49      C      16.2793198668     1.6292330199     3.2099562605
   50      H      16.8802127520     0.7658800592     3.5197794454
   51      C      16.2109457031     2.5632722797     4.4775731722
   52      H      16.7677637893     2.1243103006     2.3609815725
   53      H      17.2303395290     2.9141726712     4.6825881543
   54      H      15.8017823555     1.9879858345     5.3165939472
   55      H      15.5772585639     3.4408641507     4.2965397009
   56      C      -2.2905733768    -4.9870001918     2.9077361288
   57      C      -3.1509872477    -4.4747158165     3.8631384994
   58      N      -2.2696202589    -4.4846670341     1.6697759656
   59      C      -3.9035464354    -3.2959229628     3.5935646190
   60      C      -3.0024828912    -3.3836581277     1.4239655707
   61      C      -3.9092632207    -2.7505735691     2.3114307113
   62      C      -4.5282125360    -1.4669312156     1.9410700043
   63      C      -5.7640328717    -1.0757138045     2.4995671263
   64      C      -3.9814839587    -0.5051874509     1.0320096137
   65      N      -6.4126769827     0.0861816245     2.2425285508
   66      N      -2.7490263562    -0.6566789593     0.4622793435
   67      C      -4.6120891864     0.7535286435     0.8715389287
   68      C      -5.9122603713     1.0166762982     1.4325070219
   69      S      -2.4495388697     0.7088738861    -0.3158380462
   70      N      -3.8566158145     1.5066795649     0.0136609223
   71      C      -6.6713572038     2.2098461008     1.1105445689
   72      S      -6.0568809642     3.5540184720     0.1752426991
   73      C      -7.9996852045     2.3234382637     1.3892550694
   74      C      -7.6471694934     4.3026072405     0.2991468936
   75      S      -9.1745486277     1.1660812628     1.9939208523
   76      C      -8.5006974453     3.4141148877     0.8279884335
   77      C      -8.0465669203     5.5854811513    -0.2841113892
   78      C     -10.4330334816     2.3273733910     1.4798844086
   79      C      -9.9284468167     3.4698862822     0.8687595515
   80      N      -7.2946192180     6.1102925272    -1.2064457497
   81      S      -9.2356316846     6.5287483613     0.5425572003
   82      C      -7.6946006624     7.3727096163    -1.4548082616
   83      C      -8.7085900570     7.7981075042    -0.5776126480
   84      C      -1.4902452493    -6.2383663982     3.2503664043
   85      H      -3.0601866721    -4.8963266551     4.8597088964
   86      H      -4.4860369890    -2.9305620443     4.4336885111
   87      H      -3.0734429320    -3.0985250394     0.3760319877
   88      H      -6.3681515959    -1.7301242985     3.1253350325
   89      H     -11.4737513538     2.1116637331     1.6802257519
   90      H     -10.5245708283     4.2171890948     0.3575446562
   91      H      -7.2045315033     7.8421122905    -2.2979371656
   92      H      -9.3162407798     8.6873617515    -0.6801089052
   93      H      -0.5516157176    -6.1568375463     2.6902578000
   94      C      -2.0742732039    -7.6647766149     2.7636331694
   95      H      -1.2233219917    -6.2523020134     4.3151329389
   96      H      -3.0347271427    -7.9353965394     3.2188167456
   97      H      -1.3415262802    -8.4380448137     3.0253185502
   98      C      -2.1797642316    -7.7606149421     1.2276264448
   99      H      -2.8416774862    -6.9759785050     0.8425621579
  100      C      -2.5423794089    -9.2136481510     0.7714480512
  101      H      -1.1222077571    -7.5437548230     1.0276564672
  102      H      -3.3185579695    -9.6312320880     1.4235711206
  103      H      -1.6747716970    -9.8822121776     0.8222220663
  104      C      -2.9991340639    -9.1770101209    -0.7446871143
  105      H      -3.9800278397    -8.6973531332    -0.8522537207
  106      C      -3.0946347218   -10.5813510174    -1.4266638520
  107      H      -2.3550676430    -8.4621031031    -1.2715290273
  108      H      -3.4631118111   -11.3503944793    -0.7362561547
  109      H      -2.0846374990   -10.8875233521    -1.7274513376
  110      H      -3.6958031849   -10.4988670794    -2.3396665239
 ----------------------------------------------------------------

    9   -5663.5062445143      9.68E-06 Convergence criterion met
 Total energy in the final basis set = -5663.5062445143

                    Orbital Energies (a.u.)
 --------------------------------------------------------------

 Alpha MOs
 -- Occupied --
-88.987 -88.983 -88.933 -88.932 -88.923 -88.919 -88.911 -88.905
-14.384 -14.380 -14.376 -14.373 -14.345 -14.344 -14.343 -14.340
-14.326 -14.325 -10.266 -10.264 -10.263 -10.260 -10.259 -10.254
-10.252 -10.251 -10.238 -10.235 -10.233 -10.233 -10.232 -10.232
-10.229 -10.229 -10.228 -10.227 -10.227 -10.226 -10.226 -10.225
-10.225 -10.224 -10.222 -10.221 -10.218 -10.217 -10.216 -10.212
-10.212 -10.206 -10.206 -10.202 -10.194 -10.194 -10.194 -10.193
-10.189 -10.186 -10.186 -10.184 -10.181 -10.180 -10.178 -10.177
-10.174 -10.173 -10.171 -10.169  -8.044  -8.038  -7.995  -7.993
 -7.981  -7.978  -7.971  -7.965  -6.009  -6.003  -6.003  -6.002
 -5.997  -5.996  -5.958  -5.957  -5.955  -5.954  -5.952  -5.950
 -5.946  -5.943  -5.942  -5.939  -5.938  -5.935  -5.935  -5.932
 -5.929  -5.927  -5.926  -5.921  -1.056  -1.026  -0.980  -0.974
 -0.960  -0.955  -0.949  -0.938  -0.925  -0.912  -0.908  -0.889
 -0.845  -0.844  -0.833  -0.830  -0.816  -0.815  -0.806  -0.803
 -0.799  -0.797  -0.796  -0.794  -0.789  -0.776  -0.765  -0.762
 -0.746  -0.746  -0.739  -0.738  -0.729  -0.720  -0.710  -0.707
 -0.693  -0.691  -0.673  -0.668  -0.652  -0.649  -0.647  -0.637
 -0.633  -0.631  -0.627  -0.622  -0.610  -0.610  -0.605  -0.599
 -0.593  -0.593  -0.583  -0.578  -0.576  -0.573  -0.566  -0.559
 -0.546  -0.544  -0.541  -0.541  -0.525  -0.521  -0.520  -0.517
 -0.506  -0.503  -0.500  -0.494  -0.488  -0.484  -0.479  -0.472
 -0.472  -0.472  -0.467  -0.465  -0.461  -0.454  -0.447  -0.445
 -0.443  -0.441  -0.438  -0.436  -0.434  -0.433  -0.430  -0.429
 -0.429  -0.427  -0.421  -0.420  -0.419  -0.415  -0.415  -0.412
 -0.409  -0.406  -0.403  -0.401  -0.399  -0.398  -0.393  -0.393
 -0.391  -0.391  -0.390  -0.390  -0.389  -0.385  -0.384  -0.383
 -0.382  -0.380  -0.372  -0.372  -0.368  -0.362  -0.355  -0.355
 -0.353  -0.350  -0.350  -0.350  -0.346  -0.342  -0.341  -0.340
 -0.334  -0.333  -0.332  -0.330  -0.326  -0.325  -0.319  -0.319
 -0.316  -0.311  -0.308  -0.304  -0.302  -0.299  -0.298  -0.297
 -0.296  -0.295  -0.294  -0.292  -0.289  -0.287  -0.286  -0.282
 -0.271  -0.269  -0.267  -0.261  -0.252  -0.249  -0.249  -0.247
 -0.246  -0.242  -0.232  -0.230  -0.193  -0.192

          Ground-State Mulliken Net Atomic Charges

     Atom                 Charge (a.u.)
  ----------------------------------------
      1 C                     0.286451
      2 C                    -0.111088
      3 N                    -0.485017
      4 C                    -0.088631
      5 C                     0.076979
      6 C                     0.027884
      7 C                     0.059050
      8 C                     0.047003
      9 C                     0.215875
     10 N                    -0.521413
     11 N                    -0.520516
     12 C                     0.151813
     13 C                     0.305953
     14 S                     0.609305
     15 N                    -0.527098
     16 C                    -0.229274
     17 S                     0.348415
     18 C                    -0.119752
     19 C                    -0.230406
     20 S                     0.288507
     21 C                     0.140841
     22 C                     0.051976
     23 C                    -0.311559
     24 C                    -0.062657
     25 N                    -0.425021
     26 S                     0.300102
     27 C                     0.127138
     28 C                    -0.303461
     29 C                    -0.240940
     30 H                     0.095160
     31 H                     0.116322
     32 H                     0.103467
     33 H                     0.110704
     34 H                     0.122991
     35 H                     0.110022
     36 H                     0.119776
     37 H                     0.125051
     38 H                     0.115529
     39 C                    -0.174630
     40 H                     0.100287
     41 H                     0.115282
     42 H                     0.096789
     43 C                    -0.174047
     44 H                     0.096938
     45 C                    -0.174706
     46 H                     0.091006
     47 H                     0.087675
     48 H                     0.087517
     49 C                    -0.188372
     50 H                     0.094199
     51 C                    -0.324315
     52 H                     0.086896
     53 H                     0.102094
     54 H                     0.106569
     55 H                     0.101835
     56 C                     0.282552
     57 C                    -0.108770
     58 N                    -0.485666
     59 C                    -0.088611
     60 C                     0.084676
     61 C                     0.043446
     62 C                     0.055446
     63 C                     0.036842
     64 C                     0.177770
     65 N                    -0.542209
     66 N                    -0.542725
     67 C                     0.200797
     68 C                     0.338732
     69 S                     0.642112
     70 N                    -0.582478
     71 C                    -0.225240
     72 S                     0.361524
     73 C                    -0.099564
     74 C                    -0.211128
     75 S                     0.281432
     76 C                     0.142583
     77 C                     0.040008
     78 C                    -0.322824
     79 C                    -0.066863
     80 N                    -0.407799
     81 S                     0.285013
     82 C                     0.126492
     83 C                    -0.320818
     84 C                    -0.242643
     85 H                     0.085861
     86 H                     0.097829
     87 H                     0.111455
     88 H                     0.111768
     89 H                     0.126295
     90 H                     0.115564
     91 H                     0.119265
     92 H                     0.127125
     93 H                     0.113527
     94 C                    -0.189335
     95 H                     0.095183
     96 H                     0.089327
     97 H                     0.095505
     98 C                    -0.169165
     99 H                     0.113312
    100 C                    -0.177005
    101 H                     0.095931
    102 H                     0.091634
    103 H                     0.092931
    104 C                    -0.183207
    105 H                     0.092211
    106 C                    -0.324657
    107 H                     0.096057
    108 H                     0.105850
    109 H                     0.103034
    110 H                     0.101119
  ----------------------------------------
  Sum of atomic charges =     0.000000

                    Cartesian Multipole Moments
 -----------------------------------------------------------------
    Charge (ESU x 10^10)
                 0.0000
    Dipole Moment (Debye)
         X      -3.3206      Y       0.9048      Z       0.8924
       Tot       3.5555
    Quadrupole Moments (Debye-Ang)
        XX    -404.5593     XY      -4.4416     YY    -404.4132
        XZ      15.0402     YZ      -1.1385     ZZ    -436.6762

 Total job time:  85.68s(wall), 933.52s(cpu)
        *  Thank you very much for using Q-Chem.  Have a nice day.  *
