 Q-Chem 4.4, Q-Chem, Inc., Pleasanton, CA (2016)
 Q-Chem 4.4.2 for Intel X86 Linux

User input:
--------------------------------------------------------------
$comment
SP
$end

$rem
MEM_STATIC 5000
MEM_TOTAL 20000
JOBTYPE SP
EXCHANGE B3LYP
BASIS 6-31g(d,p)
$end

$molecule
0 1
C          23.084000     21.687000     -1.982000
C          23.206000     22.753000     -1.063000
N          21.850000     21.195000     -2.160000
C          22.077000     23.296000     -0.370000
C          20.795000     21.737000     -1.551000
C          20.793000     22.762000     -0.657000
C          19.594000     23.551000     -0.257000
C          19.518000     24.957000     -0.331000
C          18.468000     22.863000      0.309000
N          18.491000     25.678000      0.038000
N          18.381000     21.546000      0.546000
C          17.307000     23.655000      0.687000
C          17.406000     25.046000      0.594000
S          16.892000     21.414000      1.209000
N          16.295000     22.937000      1.219000
C          16.196000     25.808000      0.891000
S          14.534000     25.295000      0.762000
C          16.204000     27.103000      1.401000
C          13.872000     26.876000      1.292000
S          17.596000     28.083000      1.714000
C          14.932000     27.667000      1.598000
C          12.487000     27.286000      1.109000
C          16.432000     29.422000      1.863000
C          15.086000     29.038000      1.978000
N          12.231000     28.600000      1.209000
S          11.237000     26.220000      0.514000
C          10.957000     28.787000      0.662000
C          10.228000     27.600000      0.357000
C          24.317000     21.126000     -2.727000
H          24.202000     23.142000     -0.877000
H          22.210000     24.176000      0.251000
H          19.812000     21.454000     -1.923000
H          20.368000     25.478000     -0.769000
H          16.884000     30.403000      1.920000
H          14.209000     29.639000      2.192000
H          10.567000     29.796000      0.687000
H           9.174000     27.495000      0.137000
H          24.039000     20.822000     -3.744000
C          24.781000     19.836000     -1.930000
H          25.152000     21.837000     -2.698000
H          23.915000     19.187000     -1.748000
H          24.918000     20.230000     -0.915000
C          25.996000     19.139000     -2.631000
H          26.581000     19.963000     -3.056000
C          25.706000     18.145000     -3.788000
H          26.604000     18.513000     -1.966000
H          25.004000     17.370000     -3.455000
H          26.661000     17.640000     -3.975000
C          25.097000     18.675000     -5.102000
H          24.001000     18.702000     -5.072000
C          25.276000     17.602000     -6.215000
H          25.479000     19.680000     -5.321000
H          24.727000     17.901000     -7.116000
H          24.969000     16.582000     -5.949000
H          26.320000     17.600000     -6.552000
C          19.761000     17.865000     -1.974000
C          18.727000     17.464000     -1.146000
N          19.572000     18.824000     -2.885000
C          17.497000     18.182000     -1.134000
C          18.397000     19.479000     -2.876000
C          17.265000     19.183000     -2.075000
C          16.102000     20.086000     -2.080000
C          14.817000     19.607000     -1.746000
C          16.128000     21.483000     -2.393000
N          13.685000     20.351000     -1.703000
N          17.291000     22.153000     -2.648000
C          14.960000     22.267000     -2.223000
C          13.683000     21.659000     -1.951000
S          16.897000     23.700000     -2.755000
N          15.269000     23.568000     -2.516000
C          12.442000     22.409000     -1.982000
S          12.337000     24.146000     -2.158000
C          11.225000     21.799000     -2.025000
C          10.582000     23.989000     -2.167000
S          10.763000     20.115000     -2.215000
C          10.267000     22.688000     -2.243000
C           9.617000     25.082000     -2.307000
C           9.112000     20.711000     -2.555000
C           9.001000     22.097000     -2.545000
N          10.039000     26.232000     -2.744000
S           8.088000     24.934000     -1.515000
C           9.072000     27.158000     -2.593000
C           7.951000     26.658000     -1.906000
C          21.066000     17.078000     -1.936000
H          18.981000     16.725000     -0.392000
H          16.781000     17.838000     -0.394000
H          18.230000     20.143000     -3.722000
H          14.598000     18.553000     -1.585000
H           8.311000     20.003000     -2.719000
H           8.130000     22.654000     -2.871000
H           9.292000     28.116000     -3.046000
H           6.985000     27.137000     -1.817000
H          21.858000     17.799000     -2.169000
C          21.288000     15.930000     -3.052000
H          21.267000     16.703000     -0.924000
H          20.575000     15.099000     -2.989000
H          22.299000     15.524000     -2.924000
C          21.298000     16.501000     -4.485000
H          20.347000     17.002000     -4.701000
C          21.724000     15.414000     -5.528000
H          22.113000     17.217000     -4.316000
H          21.237000     14.459000     -5.298000
H          22.807000     15.243000     -5.515000
C          21.363000     15.928000     -6.982000
H          20.278000     15.928000     -7.145000
C          22.004000     15.096000     -8.141000
H          21.583000     17.002000     -7.022000
H          22.044000     14.025000     -7.906000
H          23.042000     15.428000     -8.270000
H          21.474000     15.312000     -9.076000
$end

--------------------------------------------------------------

             Standard Nuclear Orientation (Angstroms)
    I     Atom           X                Y                Z
 ----------------------------------------------------------------
    1      C       5.9361937134     2.9304240452    -0.6201620984
    2      C       5.2656051189     4.1500183985    -0.3778780702
    3      N       5.2285473470     1.8118245816    -0.4092690918
    4      C       3.9005835874     4.1980918875     0.0512421439
    5      C       3.9431370267     1.8625313631    -0.0588134874
    6      C       3.1985257843     2.9721929702     0.1943074631
    7      C       1.7102988761     3.0130260664     0.2546011437
    8      C       0.9168005112     3.8939099596    -0.5086104336
    9      C       1.0305173089     2.1653083267     1.1931359884
   10      N      -0.3878047215     3.9718440531    -0.4570113647
   11      N       1.6073693641     1.3276193153     2.0670615154
   12      C      -0.4233741890     2.2196343183     1.2294292237
   13      C      -1.0616412658     3.1809773121     0.4409079577
   14      S       0.3136994530     0.6972744101     2.8437193947
   15      N      -0.9864901505     1.4005729838     2.1430653352
   16      C      -2.5217054272     3.1496619793     0.4273066866
   17      S      -3.5788844824     1.7961368265     0.7312739645
   18      C      -3.3167528430     4.2719356146     0.2137873804
   19      C      -5.0781342677     2.7418177453     0.4544298185
   20      S      -2.7693631164     5.8751456333    -0.1413395309
   21      C      -4.7000640214     4.0243374486     0.2196467278
   22      C      -6.3878144402     2.1498239951     0.2218459724
   23      C      -4.4659370338     6.1949492996    -0.5765182964
   24      C      -5.3874163168     5.2214216981    -0.1575708772
   25      N      -7.3180287104     2.9459628251    -0.3286050927
   26      S      -6.7109832254     0.4386551274     0.3644785159
   27      C      -8.3378200092     2.0972152722    -0.7723474711
   28      C      -8.2349405013     0.7333708984    -0.3688882651
   29      C       7.4073082749     2.9052020750    -1.0947364330
   30      H       5.8317127896     5.0668691936    -0.5076460351
   31      H       3.4038574282     5.1597584030     0.1299227367
   32      H       3.3724458191     0.9395357613    -0.1433869150
   33      H       1.4314610634     4.5300057969    -1.2271447764
   34      H      -4.6308007747     7.1466373980    -1.0633691056
   35      H      -6.4712855281     5.2313361629    -0.1930001887
   36      H      -9.1987628144     2.5747649490    -1.2212681683
   37      H      -8.9919734832    -0.0385697153    -0.4056272517
   38      H       7.5668138882     2.0710758911    -1.7895604889
   39      C       8.2962667107     2.6572545417     0.1947905811
   40      H       7.7053078516     3.8776109095    -1.5060809492
   41      H       7.8932570595     1.8067831802     0.7592041567
   42      H       7.9740825470     3.4716709661     0.8559662404
   43      C       9.8152587011     2.5494095821    -0.1719079295
   44      H       9.9492811127     3.2474104382    -1.0065688175
   45      C      10.3629006159     1.1736674177    -0.6390340690
   46      H      10.4980047162     2.7749383248     0.6568017092
   47      H      10.1275407524     0.4001507472     0.1029872885
   48      H      11.4534978327     1.2859513282    -0.6360283757
   49      C       9.8740234867     0.5828681997    -1.9770671167
   50      H       8.9571296446    -0.0076960332    -1.8613754179
   51      C      10.8373133833    -0.5599148236    -2.4109548175
   52      H       9.7002580718     1.3838613147    -2.7065365199
   53      H      10.4289326706    -1.0835971342    -3.2836432104
   54      H      11.0699613124    -1.3068385262    -1.6406399964
   55      H      11.7663479655    -0.1234308631    -2.7981053015
   56      C       5.2507775828    -1.5588811593     1.6218059007
   57      C       4.4355805903    -2.0379106078     2.6325114220
   58      N       4.7878751156    -1.4328131126     0.3747489038
   59      C       3.0456420377    -2.2420010759     2.3980206953
   60      C       3.4770639497    -1.6499681548     0.1641574152
   61      C       2.5318929172    -2.1255785923     1.1081316898
   62      C       1.1020956389    -2.1733575592     0.7597067867
   63      C       0.2325357883    -3.0759759976     1.4088351415
   64      C       0.4496541302    -1.3508576999    -0.2139810787
   65      N      -1.0979835367    -3.1923638879     1.1786587209
   66      N       1.1004255738    -0.3509683197    -0.8797225868
   67      C      -0.9596720372    -1.4018779417    -0.3517369814
   68      C      -1.7403653225    -2.4164549216     0.3082088847
   69      S      -0.0206977677     0.4300875241    -1.7121456896
   70      N      -1.3341536129    -0.4747657790    -1.2867009311
   71      C      -3.1467976772    -2.6248168625     0.0217209560
   72      S      -4.1174629126    -1.5818702319    -0.9927943600
   73      C      -3.8076690305    -3.7519201330     0.4063315018
   74      C      -5.4665506127    -2.6902904798    -0.7558936810
   75      S      -3.2476695448    -5.2497193130     1.1332415323
   76      C      -5.0153098661    -3.7909716323    -0.1374401347
   77      C      -6.8056687225    -2.5583241904    -1.3345313797
   78      C      -4.8389584686    -5.9385055438     0.6973630061
   79      C      -5.6690201601    -5.0524048884     0.0196903588
   80      N      -6.9756066396    -1.7363109260    -2.3279941609
   81      S      -8.1520753768    -3.1628163936    -0.4352053556
   82      C      -8.2919456492    -1.5851014908    -2.5724390799
   83      C      -9.0944025262    -2.2460576556    -1.6249107645
   84      C       6.7276534706    -1.3361390912     1.9268658668
   85      H       4.8693589995    -2.0495101653     3.6279282904
   86      H       2.4795465388    -2.5420622186     3.2744288175
   87      H       3.1746490610    -1.6824684917    -0.8808258207
   88      H       0.5784367221    -3.8444844573     2.0977076198
   89      H      -5.0808841984    -6.9518029385     0.9879853232
   90      H      -6.6050765071    -5.3180810342    -0.4582015754
   91      H      -8.5213508280    -1.0161011478    -3.4640583225
   92      H     -10.1584753792    -2.4275028067    -1.6980176771
   93      H       7.0431690336    -0.5021677068     1.2894212342
   94      C       7.7666436282    -2.5069837047     1.5240428989
   95      H       6.8674246095    -1.0108149335     2.9659992659
   96      H       7.6118284591    -3.4494222821     2.0632467483
   97      H       8.7806525407    -2.1501509255     1.7426688196
   98      C       7.7882820839    -2.7729715135     0.0046969005
   99      H       6.7922701480    -3.0715466120    -0.3429683611
  100      C       8.9454291986    -3.7526589507    -0.3853249967
  101      H       8.0362905452    -1.7439609404    -0.2869725073
  102      H       9.0043393855    -4.5741703113     0.3383756833
  103      H       9.9187635236    -3.2477896412    -0.3904506427
  104      C       8.6987656478    -4.2779960872    -1.8590315434
  105      H       7.8479358263    -4.9697096290    -1.8966479086
  106      C       9.9217143384    -5.0152186961    -2.4972206416
  107      H       8.3162669474    -3.4394917359    -2.4540787658
  108      H      10.4719918042    -5.6140125680    -1.7606701616
  109      H      10.6221809172    -4.2586053688    -2.8729756748
  110      H       9.5805310118    -5.6003478063    -3.3591944592
 ----------------------------------------------------------------

   10   -5663.4846552237      6.26E-06 Convergence criterion met
 Total energy in the final basis set = -5663.4846552237

                    Orbital Energies (a.u.)
 --------------------------------------------------------------

 Alpha MOs
 -- Occupied --
-88.989 -88.984 -88.940 -88.927 -88.923 -88.915 -88.913 -88.902
-14.391 -14.385 -14.382 -14.379 -14.349 -14.348 -14.346 -14.342
-14.322 -14.317 -10.272 -10.264 -10.263 -10.258 -10.258 -10.257
-10.255 -10.252 -10.240 -10.240 -10.239 -10.236 -10.235 -10.233
-10.233 -10.231 -10.230 -10.229 -10.227 -10.226 -10.224 -10.222
-10.222 -10.221 -10.220 -10.220 -10.219 -10.212 -10.211 -10.208
-10.208 -10.206 -10.202 -10.199 -10.198 -10.194 -10.193 -10.192
-10.189 -10.184 -10.183 -10.182 -10.180 -10.177 -10.176 -10.176
-10.174 -10.170 -10.169 -10.168  -8.044  -8.039  -8.001  -7.985
 -7.984  -7.974  -7.973  -7.963  -6.009  -6.004  -6.003  -6.002
 -5.999  -5.997  -5.965  -5.962  -5.958  -5.949  -5.948  -5.946
 -5.944  -5.942  -5.941  -5.939  -5.937  -5.935  -5.933  -5.930
 -5.929  -5.927  -5.924  -5.919  -1.038  -1.033  -0.988  -0.960
 -0.958  -0.955  -0.936  -0.932  -0.929  -0.915  -0.904  -0.895
 -0.848  -0.836  -0.836  -0.827  -0.822  -0.807  -0.806  -0.805
 -0.799  -0.798  -0.792  -0.784  -0.776  -0.775  -0.764  -0.757
 -0.748  -0.741  -0.740  -0.734  -0.733  -0.710  -0.708  -0.706
 -0.691  -0.689  -0.673  -0.669  -0.652  -0.649  -0.640  -0.639
 -0.634  -0.630  -0.624  -0.618  -0.617  -0.607  -0.606  -0.596
 -0.590  -0.584  -0.580  -0.579  -0.574  -0.572  -0.563  -0.561
 -0.551  -0.546  -0.546  -0.537  -0.527  -0.522  -0.519  -0.508
 -0.503  -0.502  -0.499  -0.494  -0.487  -0.485  -0.479  -0.473
 -0.472  -0.470  -0.460  -0.458  -0.457  -0.452  -0.448  -0.446
 -0.440  -0.439  -0.438  -0.434  -0.433  -0.431  -0.430  -0.426
 -0.425  -0.423  -0.421  -0.416  -0.415  -0.412  -0.410  -0.408
 -0.406  -0.404  -0.403  -0.402  -0.399  -0.397  -0.396  -0.395
 -0.391  -0.390  -0.389  -0.387  -0.386  -0.384  -0.382  -0.379
 -0.377  -0.375  -0.370  -0.369  -0.368  -0.363  -0.359  -0.356
 -0.354  -0.352  -0.351  -0.347  -0.344  -0.341  -0.340  -0.338
 -0.334  -0.333  -0.332  -0.327  -0.326  -0.322  -0.318  -0.317
 -0.314  -0.310  -0.308  -0.307  -0.305  -0.303  -0.298  -0.297
 -0.296  -0.294  -0.292  -0.292  -0.287  -0.283  -0.280  -0.277
 -0.273  -0.271  -0.262  -0.260  -0.257  -0.251  -0.245  -0.241
 -0.239  -0.234  -0.230  -0.224  -0.197  -0.186

          Ground-State Mulliken Net Atomic Charges

     Atom                 Charge (a.u.)
  ----------------------------------------
      1 C                     0.273957
      2 C                    -0.134200
      3 N                    -0.486251
      4 C                    -0.094324
      5 C                     0.082132
      6 C                     0.051018
      7 C                     0.004005
      8 C                     0.065898
      9 C                     0.228110
     10 N                    -0.482940
     11 N                    -0.535594
     12 C                     0.189489
     13 C                     0.248966
     14 S                     0.598888
     15 N                    -0.543357
     16 C                    -0.206286
     17 S                     0.328252
     18 C                    -0.128824
     19 C                    -0.261703
     20 S                     0.270735
     21 C                     0.181405
     22 C                     0.060117
     23 C                    -0.308124
     24 C                    -0.055120
     25 N                    -0.436140
     26 S                     0.307027
     27 C                     0.097258
     28 C                    -0.309675
     29 C                    -0.221419
     30 H                     0.077688
     31 H                     0.097775
     32 H                     0.131516
     33 H                     0.109221
     34 H                     0.124716
     35 H                     0.127817
     36 H                     0.106617
     37 H                     0.138959
     38 H                     0.129055
     39 C                    -0.188700
     40 H                     0.100349
     41 H                     0.117322
     42 H                     0.092216
     43 C                    -0.185753
     44 H                     0.090246
     45 C                    -0.168083
     46 H                     0.092261
     47 H                     0.092429
     48 H                     0.090970
     49 C                    -0.187519
     50 H                     0.119617
     51 C                    -0.332831
     52 H                     0.091173
     53 H                     0.100593
     54 H                     0.110788
     55 H                     0.099302
     56 C                     0.292829
     57 C                    -0.107192
     58 N                    -0.459325
     59 C                    -0.088430
     60 C                     0.071794
     61 C                     0.050758
     62 C                     0.047458
     63 C                     0.038671
     64 C                     0.181340
     65 N                    -0.540782
     66 N                    -0.547399
     67 C                     0.206118
     68 C                     0.342220
     69 S                     0.629385
     70 N                    -0.580072
     71 C                    -0.222901
     72 S                     0.387310
     73 C                    -0.104073
     74 C                    -0.216321
     75 S                     0.286190
     76 C                     0.142340
     77 C                     0.034881
     78 C                    -0.320593
     79 C                    -0.068424
     80 N                    -0.395659
     81 S                     0.278932
     82 C                     0.136678
     83 C                    -0.340993
     84 C                    -0.260056
     85 H                     0.086009
     86 H                     0.095291
     87 H                     0.110616
     88 H                     0.115198
     89 H                     0.128198
     90 H                     0.116086
     91 H                     0.123927
     92 H                     0.130748
     93 H                     0.135176
     94 C                    -0.191284
     95 H                     0.092605
     96 H                     0.087709
     97 H                     0.093773
     98 C                    -0.177494
     99 H                     0.115193
    100 C                    -0.179863
    101 H                     0.106679
    102 H                     0.090405
    103 H                     0.092538
    104 C                    -0.183810
    105 H                     0.092758
    106 C                    -0.327441
    107 H                     0.101261
    108 H                     0.104129
    109 H                     0.104421
    110 H                     0.101441
  ----------------------------------------
  Sum of atomic charges =     0.000000

                    Cartesian Multipole Moments
 -----------------------------------------------------------------
    Charge (ESU x 10^10)
                 0.0000
    Dipole Moment (Debye)
         X      -2.4720      Y      -1.7474      Z       0.5162
       Tot       3.0710
    Quadrupole Moments (Debye-Ang)
        XX    -389.9537     XY      30.8485     YY    -425.6621
        XZ      15.9509     YZ      -9.2523     ZZ    -443.6005

 Total job time:  118.92s(wall), 1286.08s(cpu)
        *  Thank you very much for using Q-Chem.  Have a nice day.  *
