 Q-Chem 4.4, Q-Chem, Inc., Pleasanton, CA (2016)
 Q-Chem 4.4.2 for Intel X86 Linux

User input:
--------------------------------------------------------------
$comment
SP
$end

$rem
MEM_STATIC 5000
MEM_TOTAL 20000
JOBTYPE SP
EXCHANGE B3LYP
BASIS 6-31g(d,p)
$end

$molecule
0 1
C          27.431000     30.342000      1.328000
C          26.153000     30.439000      1.857000
N          27.708000     29.654000      0.215000
C          25.130000     29.794000      1.136000
C          26.771000     29.023000     -0.428000
C          25.419000     29.025000     -0.009000
C          24.352000     28.249000     -0.714000
C          24.734000     27.131000     -1.427000
C          22.906000     28.564000     -0.816000
N          23.971000     26.368000     -2.201000
N          22.200000     29.444000     -0.080000
C          22.110000     27.754000     -1.613000
C          22.676000     26.679000     -2.398000
S          20.703000     29.213000     -0.460000
N          20.770000     27.944000     -1.435000
C          21.964000     25.787000     -3.343000
S          20.225000     25.552000     -3.656000
C          22.605000     24.793000     -4.042000
C          20.425000     24.188000     -4.665000
S          24.319000     24.527000     -4.364000
C          21.785000     23.936000     -4.826000
C          19.410000     23.690000     -5.485000
C          23.879000     23.138000     -5.363000
C          22.543000     23.000000     -5.565000
N          18.503000     24.606000     -5.867000
S          19.402000     22.112000     -6.130000
C          17.712000     24.012000     -6.811000
C          18.141000     22.760000     -7.166000
C          28.506000     31.039000      2.159000
H          26.000000     30.963000      2.796000
H          24.143000     29.905000      1.576000
H          27.119000     28.461000     -1.294000
H          25.760000     26.789000     -1.297000
H          24.602000     22.530000     -5.891000
H          22.122000     22.193000     -6.154000
H          16.953000     24.566000     -7.347000
H          17.778000     22.144000     -7.979000
H          29.022000     31.696000      1.447000
C          29.665000     30.136000      2.777000
H          28.227000     31.729000      2.965000
H          30.240000     29.655000      1.975000
H          29.223000     29.305000      3.339000
C          30.632000     30.994000      3.684000
H          31.295000     31.662000      3.120000
C          31.573000     30.159000      4.501000
H          30.149000     31.576000      4.479000
H          32.272000     29.546000      3.919000
H          31.061000     29.547000      5.254000
C          32.539000     30.916000      5.449000
H          33.479000     30.361000      5.553000
C          31.970000     31.046000      6.913000
H          32.745000     31.896000      5.000000
H          32.671000     31.668000      7.484000
H          31.873000     30.042000      7.343000
H          30.990000     31.540000      6.921000
C          14.244000      8.666000     -3.351000
C          13.125000      9.350000     -2.900000
N          15.354000      9.330000     -3.589000
C          13.158000     10.742000     -2.878000
C          15.401000     10.648000     -3.613000
C          14.311000     11.473000     -3.277000
C          14.305000     12.906000     -3.413000
C          15.197000     13.501000     -4.344000
C          13.453000     13.841000     -2.862000
N          15.371000     14.809000     -4.670000
N          12.469000     13.510000     -1.948000
C          13.456000     15.161000     -3.248000
C          14.472000     15.618000     -4.205000
S          11.622000     14.859000     -1.715000
N          12.498000     15.884000     -2.676000
C          14.674000     17.021000     -4.582000
S          13.406000     18.179000     -4.454000
C          15.824000     17.643000     -5.099000
C          14.430000     19.383000     -5.329000
S          17.346000     16.951000     -5.459000
C          15.615000     18.883000     -5.625000
C          14.011000     20.748000     -5.610000
C          17.808000     18.488000     -6.207000
C          16.787000     19.425000     -6.210000
N          14.862000     21.682000     -6.004000
S          12.444000     21.345000     -5.261000
C          14.345000     22.911000     -5.877000
C          12.981000     22.948000     -5.540000
C          14.193000      7.171000     -3.421000
H          12.185000      8.850000     -2.688000
H          12.223000     11.180000     -2.544000
H          16.329000     11.179000     -3.820000
H          15.855000     12.853000     -4.921000
H          18.840000     18.622000     -6.502000
H          17.005000     20.453000     -6.476000
H          14.939000     23.797000     -6.057000
H          12.338000     23.795000     -5.336000
H          15.060000      6.766000     -2.885000
C          14.394000      6.721000     -4.861000
H          13.303000      6.775000     -2.918000
H          15.466000      6.755000     -5.092000
H          13.743000      7.213000     -5.593000
C          14.089000      5.223000     -4.952000
H          14.706000      4.730000     -4.190000
C          14.400000      4.501000     -6.302000
H          13.004000      5.182000     -4.799000
H          14.032000      3.484000     -6.123000
H          15.469000      4.466000     -6.544000
C          13.563000      5.113000     -7.490000
H          12.524000      4.801000     -7.330000
C          14.035000      4.542000     -8.786000
H          13.523000      6.207000     -7.564000
H          13.242000      4.597000     -9.542000
H          14.450000      3.529000     -8.728000
H          14.769000      5.253000     -9.185000
$end

--------------------------------------------------------------

             Standard Nuclear Orientation (Angstroms)
    I     Atom           X                Y                Z
 ----------------------------------------------------------------
    1      C     -13.3681684656    -1.7220207505    -0.3692416643
    2      C     -12.8625814105    -1.1057194143    -1.5037408458
    3      N     -12.7052788549    -1.7670865023     0.7915289599
    4      C     -11.6056759263    -0.4859221434    -1.3679654913
    5      C     -11.5263011645    -1.2318330380     0.9059594381
    6      C     -10.8773306554    -0.5713491940    -0.1645859231
    7      C      -9.4957392297    -0.0093266370    -0.0504553929
    8      C      -8.6467831985    -0.5724748412     0.8803264061
    9      C      -8.9165987930     1.1513903007    -0.7700924855
   10      N      -7.4279255493    -0.1632222109     1.2124593846
   11      N      -9.4017401004     1.7683675104    -1.8648568595
   12      C      -7.6364459965     1.5648985825    -0.4307626778
   13      C      -6.9065559520     0.9449449873     0.6532687161
   14      S      -8.2928552557     2.7715633474    -2.3151262387
   15      N      -7.0849878163     2.4471071951    -1.3144967098
   16      C      -5.5720398489     1.3279978737     1.1709271523
   17      S      -4.3415874166     2.4507130734     0.5362521236
   18      C      -4.9691357313     0.6665634489     2.2132942310
   19      C      -3.1239870278     2.0012633576     1.6471172128
   20      S      -5.6333450237    -0.4296441235     3.4254786122
   21      C      -3.6414410965     1.0610536986     2.5344007548
   22      C      -1.9642854028     2.7517681188     1.8531845422
   23      C      -4.0421709936    -0.4902070799     4.1906056174
   24      C      -3.1400116134     0.3789560202     3.6658123645
   25      N      -2.0945970625     4.0628553904     1.5854196500
   26      S      -0.5493256207     2.1303639999     2.5728502536
   27      C      -0.9531436211     4.6734821547     2.0257286276
   28      C      -0.1108349538     3.8261592607     2.6966459268
   29      C     -14.7220488062    -2.3975823088    -0.5756868246
   30      H     -13.4218960745    -1.1528662529    -2.4336065792
   31      H     -11.2515247526    -0.0037566771    -2.2747087897
   32      H     -11.0630371447    -1.3673885676     1.8826452352
   33      H      -8.9775560923    -1.4947361060     1.3563132254
   34      H      -3.8331388156    -1.0571856396     5.0883905925
   35      H      -2.1214448243     0.4535385804     4.0296394360
   36      H      -0.8407698980     5.7492808892     2.0077778850
   37      H       0.7781087057     4.0866059045     3.2571285010
   38      H     -15.3582565496    -1.9888246770     0.2199298581
   39      C     -14.7996251583    -3.9767284684    -0.3734658656
   40      H     -15.3108382716    -2.2005814525    -1.4801726609
   41      H     -14.5425857718    -4.2401097416     0.6608218404
   42      H     -14.0299035471    -4.4634173782    -0.9837375644
   43      C     -16.2397940863    -4.5243696617    -0.7197382761
   44      H     -17.0024947731    -4.2749741609     0.0285788669
   45      C     -16.2984321887    -6.0206723374    -0.8082531076
   46      H     -16.6265791190    -4.2561255546    -1.7109397881
   47      H     -16.0589543177    -6.5490160122     0.1226589778
   48      H     -15.7101654808    -6.4251239301    -1.6413546557
   49      C     -17.6677532101    -6.6478353955    -1.1777601290
   50      H     -17.7751115372    -7.6294797435    -0.7010111766
   51      C     -17.8100516288    -6.9197934237    -2.7236407812
   52      H     -18.4519889086    -5.9766610827    -0.8050183806
   53      H     -18.8330618665    -7.2746653044    -2.9020840546
   54      H     -17.0627857479    -7.6656213908    -3.0197139931
   55      H     -17.6591731237    -6.0034942698    -3.3085608930
   56      C      12.3295877578    -3.9433398512    -0.9437436551
   57      C      12.2992342102    -3.0407187373    -1.9962510360
   58      N      11.2421328982    -4.1404655735    -0.2308457816
   59      C      11.1694909657    -2.2428257968    -2.1583746212
   60      C      10.1745712954    -3.3732227261    -0.3383615356
   61      C      10.0439821977    -2.3490895790    -1.2952935000
   62      C       8.9417452668    -1.4249330176    -1.3503334694
   63      C       8.1987685328    -1.1865924684    -0.1638979021
   64      C       8.5390871210    -0.5918803376    -2.3738663952
   65      N       7.1418430613    -0.3593709406     0.0506460131
   66      N       9.1276230524    -0.6058477578    -3.6255226453
   67      C       7.5823578479     0.3808929679    -2.2012796225
   68      C       6.8863452360     0.4704624669    -0.9111254655
   69      S       8.4704807870     0.6255905924    -4.4275342615
   70      N       7.4020318118     1.1450466841    -3.2742328455
   71      C       5.7507438485     1.3612580918    -0.6499078486
   72      S       5.5051427041     2.7987939195    -1.5655184765
   73      C       4.7421766770     1.2493919724     0.3232063441
   74      C       4.1912182828     3.2885678819    -0.4264218691
   75      S       4.5325249764     0.0403726991     1.5145360891
   76      C       4.0009923670     2.3780105274     0.5098154967
   77      C       3.4080559319     4.5064999318    -0.5714916935
   78      C       3.2358936295     1.0256449532     2.2097358700
   79      C       3.0602667315     2.2375208450     1.5609439037
   80      N       2.2880886515     4.7116307620     0.1033324564
   81      S       3.7209045031     5.6929853509    -1.7665135015
   82      C       1.5684097566     5.7124392200    -0.4204076687
   83      C       2.2161674769     6.4413689650    -1.4325861918
   84      C      13.5628478266    -4.7677612581    -0.7389878338
   85      H      13.1680968481    -2.8417348545    -2.6159502621
   86      H      11.2606323369    -1.5473543450    -2.9864070543
   87      H       9.2865401194    -3.5485016441     0.2671728824
   88      H       8.4876567438    -1.7120519951     0.7450756329
   89      H       2.6268094755     0.5901787675     2.9903706722
   90      H       2.1867599710     2.8405469814     1.7809653078
   91      H       0.5776087662     5.9488735194    -0.0562041272
   92      H       1.8514227115     7.2574595339    -2.0436765611
   93      H      13.2719853932    -5.8237120922    -0.6808768981
   94      C      14.1583569811    -4.4632405194     0.6281760067
   95      H      14.2505626561    -4.6803926424    -1.5883052292
   96      H      13.5909238801    -5.0150098504     1.3879597135
   97      H      14.3075076384    -3.3979318891     0.8392698336
   98      C      15.5404446046    -5.1170405581     0.7158647204
   99      H      15.4037207905    -6.1758411594     0.4616406359
  100      C      16.2690015503    -5.0886954236     2.0974964840
  101      H      16.1396214689    -4.5231675436     0.0154241963
  102      H      17.2383721057    -5.5470296252     1.8694515628
  103      H      15.7607350070    -5.6743198610     2.8729054982
  104      C      16.5370784946    -3.6110892627     2.5784037363
  105      H      17.3242847876    -3.2115208358     1.9279298133
  106      C      17.0429471998    -3.6218364370     3.9828332828
  107      H      15.7080582215    -2.8974626769     2.4925289276
  108      H      17.6241714618    -2.7146381482     4.1891815856
  109      H      17.6028193416    -4.5188417047     4.2721129648
  110      H      16.1664892986    -3.4724787768     4.6254776922
 ----------------------------------------------------------------

    9   -5663.5100156592      8.18E-06 Convergence criterion met
 Total energy in the final basis set = -5663.5100156592

                    Orbital Energies (a.u.)
 --------------------------------------------------------------

 Alpha MOs
 -- Occupied --
-88.990 -88.988 -88.936 -88.924 -88.924 -88.919 -88.908 -88.907
-14.386 -14.385 -14.382 -14.381 -14.351 -14.346 -14.344 -14.339
-14.326 -14.323 -10.267 -10.265 -10.265 -10.265 -10.261 -10.258
-10.255 -10.253 -10.239 -10.238 -10.238 -10.237 -10.232 -10.230
-10.230 -10.230 -10.228 -10.228 -10.228 -10.227 -10.226 -10.226
-10.226 -10.226 -10.226 -10.223 -10.222 -10.219 -10.217 -10.212
-10.207 -10.207 -10.203 -10.200 -10.197 -10.196 -10.194 -10.190
-10.187 -10.186 -10.183 -10.181 -10.180 -10.177 -10.176 -10.176
-10.174 -10.174 -10.169 -10.167  -8.045  -8.045  -7.997  -7.987
 -7.983  -7.978  -7.969  -7.966  -6.011  -6.010  -6.005  -6.004
 -6.003  -6.003  -5.961  -5.958  -5.954  -5.950  -5.948  -5.947
 -5.944  -5.944  -5.943  -5.940  -5.939  -5.935  -5.933  -5.931
 -5.929  -5.927  -5.925  -5.923  -1.057  -1.040  -0.978  -0.975
 -0.973  -0.961  -0.950  -0.950  -0.924  -0.913  -0.909  -0.903
 -0.850  -0.847  -0.846  -0.831  -0.818  -0.812  -0.812  -0.807
 -0.805  -0.804  -0.798  -0.798  -0.790  -0.788  -0.770  -0.766
 -0.753  -0.747  -0.745  -0.739  -0.730  -0.721  -0.714  -0.711
 -0.696  -0.694  -0.674  -0.674  -0.656  -0.652  -0.649  -0.648
 -0.634  -0.633  -0.628  -0.625  -0.611  -0.607  -0.601  -0.598
 -0.596  -0.594  -0.589  -0.586  -0.584  -0.578  -0.560  -0.557
 -0.556  -0.546  -0.543  -0.542  -0.532  -0.526  -0.522  -0.512
 -0.508  -0.507  -0.502  -0.501  -0.493  -0.489  -0.480  -0.479
 -0.477  -0.475  -0.473  -0.467  -0.466  -0.462  -0.453  -0.449
 -0.448  -0.444  -0.442  -0.440  -0.436  -0.436  -0.435  -0.432
 -0.431  -0.428  -0.423  -0.422  -0.421  -0.421  -0.418  -0.418
 -0.416  -0.413  -0.408  -0.405  -0.403  -0.400  -0.399  -0.396
 -0.394  -0.393  -0.392  -0.391  -0.390  -0.387  -0.386  -0.384
 -0.382  -0.376  -0.373  -0.372  -0.366  -0.362  -0.361  -0.357
 -0.356  -0.354  -0.354  -0.352  -0.351  -0.348  -0.346  -0.342
 -0.342  -0.335  -0.335  -0.334  -0.326  -0.323  -0.320  -0.320
 -0.317  -0.312  -0.309  -0.308  -0.305  -0.304  -0.303  -0.300
 -0.298  -0.296  -0.295  -0.294  -0.292  -0.288  -0.285  -0.281
 -0.277  -0.272  -0.271  -0.268  -0.252  -0.250  -0.247  -0.247
 -0.242  -0.242  -0.233  -0.232  -0.194  -0.192

          Ground-State Mulliken Net Atomic Charges

     Atom                 Charge (a.u.)
  ----------------------------------------
      1 C                     0.286137
      2 C                    -0.110751
      3 N                    -0.484721
      4 C                    -0.088609
      5 C                     0.077221
      6 C                     0.027276
      7 C                     0.059499
      8 C                     0.047167
      9 C                     0.214958
     10 N                    -0.521596
     11 N                    -0.520247
     12 C                     0.152056
     13 C                     0.304561
     14 S                     0.608958
     15 N                    -0.525967
     16 C                    -0.229595
     17 S                     0.352289
     18 C                    -0.118121
     19 C                    -0.230876
     20 S                     0.288793
     21 C                     0.139578
     22 C                     0.056978
     23 C                    -0.311382
     24 C                    -0.065084
     25 N                    -0.424549
     26 S                     0.289005
     27 C                     0.126765
     28 C                    -0.299027
     29 C                    -0.240716
     30 H                     0.095267
     31 H                     0.116353
     32 H                     0.103488
     33 H                     0.110853
     34 H                     0.122740
     35 H                     0.105889
     36 H                     0.116522
     37 H                     0.133425
     38 H                     0.115561
     39 C                    -0.174444
     40 H                     0.100337
     41 H                     0.115318
     42 H                     0.096778
     43 C                    -0.174821
     44 H                     0.097065
     45 C                    -0.173666
     46 H                     0.091186
     47 H                     0.087545
     48 H                     0.087436
     49 C                    -0.189064
     50 H                     0.094408
     51 C                    -0.324225
     52 H                     0.086979
     53 H                     0.102149
     54 H                     0.106631
     55 H                     0.101783
     56 C                     0.299762
     57 C                    -0.131280
     58 N                    -0.493279
     59 C                    -0.071601
     60 C                     0.074508
     61 C                     0.037106
     62 C                     0.087737
     63 C                     0.018794
     64 C                     0.189235
     65 N                    -0.522523
     66 N                    -0.553186
     67 C                     0.244101
     68 C                     0.333584
     69 S                     0.601165
     70 N                    -0.582797
     71 C                    -0.221065
     72 S                     0.321333
     73 C                    -0.120287
     74 C                    -0.253514
     75 S                     0.279967
     76 C                     0.173050
     77 C                     0.054305
     78 C                    -0.318995
     79 C                    -0.032993
     80 N                    -0.437620
     81 S                     0.271740
     82 C                     0.127181
     83 C                    -0.320295
     84 C                    -0.224843
     85 H                     0.086010
     86 H                     0.114554
     87 H                     0.100064
     88 H                     0.107202
     89 H                     0.124618
     90 H                     0.129889
     91 H                     0.108663
     92 H                     0.138631
     93 H                     0.118542
     94 C                    -0.168599
     95 H                     0.096784
     96 H                     0.113794
     97 H                     0.095603
     98 C                    -0.181691
     99 H                     0.083980
    100 C                    -0.183987
    101 H                     0.085782
    102 H                     0.097268
    103 H                     0.092371
    104 C                    -0.172729
    105 H                     0.091045
    106 C                    -0.319017
    107 H                     0.096668
    108 H                     0.095046
    109 H                     0.104795
    110 H                     0.103932
  ----------------------------------------
  Sum of atomic charges =     0.000000

                    Cartesian Multipole Moments
 -----------------------------------------------------------------
    Charge (ESU x 10^10)
                 0.0000
    Dipole Moment (Debye)
         X       1.8359      Y       2.0621      Z      -1.9655
       Tot       3.3892
    Quadrupole Moments (Debye-Ang)
        XX    -412.1020     XY       8.1225     YY    -434.5672
        XZ       5.6744     YZ      -6.0235     ZZ    -426.9064

 Total job time:  84.45s(wall), 905.20s(cpu)
        *  Thank you very much for using Q-Chem.  Have a nice day.  *
