 Q-Chem 4.4, Q-Chem, Inc., Pleasanton, CA (2016)
 Q-Chem 4.4.2 for Intel X86 Linux

User input:
--------------------------------------------------------------
$comment
SP
$end

$rem
MEM_STATIC 5000
MEM_TOTAL 20000
JOBTYPE SP
EXCHANGE B3LYP
BASIS 6-31g(d,p)
$end

$molecule
0 1
C          11.328000     11.840000      1.095000
C          10.312000     11.926000      0.187000
N          11.141000     12.005000      2.438000
C           9.016000     12.333000      0.537000
C           9.938000     12.457000      2.786000
C           8.830000     12.589000      1.905000
C           7.421000     12.860000      2.384000
C           6.559000     13.745000      1.718000
C           6.961000     12.158000      3.493000
N           5.321000     14.039000      2.204000
N           7.626000     11.126000      4.131000
C           5.775000     12.457000      4.058000
C           4.976000     13.496000      3.428000
S           6.606000     10.576000      5.303000
N           5.439000     11.655000      5.083000
C           3.683000     13.955000      3.967000
S           2.165000     14.399000      3.044000
C           3.533000     14.158000      5.313000
C           1.413000     14.827000      4.561000
S           4.670000     14.044000      6.619000
C           2.362000     14.832000      5.582000
C           0.025000     15.255000      4.656000
C           3.463000     14.908000      7.697000
C           2.265000     15.130000      7.013000
N          -0.770000     14.951000      3.645000
S          -0.431000     16.602000      5.639000
C          -1.911000     15.722000      3.661000
C          -1.971000     16.612000      4.694000
C          12.628000     11.248000      0.740000
H          10.419000     11.521000     -0.816000
H           8.193000     12.298000     -0.171000
H           9.868000     12.548000      3.869000
H           6.918000     14.228000      0.810000
H           3.710000     14.854000      8.749000
H           1.330000     15.371000      7.506000
H          -2.746000     15.524000      3.001000
H          -2.675000     17.370000      5.014000
H          12.766000     11.483000     -0.323000
C          12.493000      9.684000      0.920000
H          13.425000     11.743000      1.310000
H          11.653000      9.319000      0.318000
H          12.290000      9.493000      1.981000
C          13.868000      8.960000      0.683000
H          14.326000      9.353000     -0.233000
C          13.629000      7.454000      0.608000
H          14.487000      9.197000      1.557000
H          12.904000      7.246000     -0.189000
H          13.278000      6.954000      1.519000
C          15.043000      6.823000      0.174000
H          15.420000      7.360000     -0.706000
C          15.018000      5.354000     -0.330000
H          15.768000      6.942000      0.989000
H          14.483000      5.182000     -1.272000
H          14.547000      4.676000      0.392000
H          16.041000      4.976000     -0.453000
C          14.244000      8.666000     -3.351000
C          13.125000      9.350000     -2.900000
N          15.354000      9.330000     -3.589000
C          13.158000     10.742000     -2.878000
C          15.401000     10.648000     -3.613000
C          14.311000     11.473000     -3.277000
C          14.305000     12.906000     -3.413000
C          15.197000     13.501000     -4.344000
C          13.453000     13.841000     -2.862000
N          15.371000     14.809000     -4.670000
N          12.469000     13.510000     -1.948000
C          13.456000     15.161000     -3.248000
C          14.472000     15.618000     -4.205000
S          11.622000     14.859000     -1.715000
N          12.498000     15.884000     -2.676000
C          14.674000     17.021000     -4.582000
S          13.406000     18.179000     -4.454000
C          15.824000     17.643000     -5.099000
C          14.430000     19.383000     -5.329000
S          17.346000     16.951000     -5.459000
C          15.615000     18.883000     -5.625000
C          14.011000     20.748000     -5.610000
C          17.808000     18.488000     -6.207000
C          16.787000     19.425000     -6.210000
N          14.862000     21.682000     -6.004000
S          12.444000     21.345000     -5.261000
C          14.345000     22.911000     -5.877000
C          12.981000     22.948000     -5.540000
C          14.193000      7.171000     -3.421000
H          12.185000      8.850000     -2.688000
H          12.223000     11.180000     -2.544000
H          16.329000     11.179000     -3.820000
H          15.855000     12.853000     -4.921000
H          18.840000     18.622000     -6.502000
H          17.005000     20.453000     -6.476000
H          14.939000     23.797000     -6.057000
H          12.338000     23.795000     -5.336000
H          15.060000      6.766000     -2.885000
C          14.394000      6.721000     -4.861000
H          13.303000      6.775000     -2.918000
H          15.466000      6.755000     -5.092000
H          13.743000      7.213000     -5.593000
C          14.089000      5.223000     -4.952000
H          14.706000      4.730000     -4.190000
C          14.400000      4.501000     -6.302000
H          13.004000      5.182000     -4.799000
H          14.032000      3.484000     -6.123000
H          15.469000      4.466000     -6.544000
C          13.563000      5.113000     -7.490000
H          12.524000      4.801000     -7.330000
C          14.035000      4.542000     -8.786000
H          13.523000      6.207000     -7.564000
H          13.242000      4.597000     -9.542000
H          14.450000      3.529000     -8.728000
H          14.769000      5.253000     -9.185000
$end

--------------------------------------------------------------

             Standard Nuclear Orientation (Angstroms)
    I     Atom           X                Y                Z
 ----------------------------------------------------------------
    1      C      -0.1241071278     1.9502454579    -1.7183313134
    2      C      -0.3655022018     1.6643453006    -0.4052793272
    3      N      -1.1076949193     1.9809853978    -2.6656713328
    4      C      -1.6183145102     1.2366186636     0.0586993832
    5      C      -2.2883312009     1.5142860060    -2.2645396233
    6      C      -2.6207869756     1.1814765676    -0.9229137307
    7      C      -4.0356430868     0.9006369856    -0.4674202469
    8      C      -4.3426886651    -0.1269625383     0.4378903250
    9      C      -5.0488081734     1.7340524385    -0.9291563079
   10      N      -5.6286434810    -0.4189044470     0.7790151313
   11      N      -4.8723453931     2.8902596135    -1.6683036921
   12      C      -6.3429254478     1.4524346848    -0.6818226850
   13      C      -6.6298884260     0.2823036759     0.1325897849
   14      S      -6.3712699402     3.5489260088    -1.8576916055
   15      N      -7.2021978546     2.3792908498    -1.1393306963
   16      C      -7.9994374082    -0.1676813749     0.4406482849
   17      S      -8.6424841417    -0.8398611582     2.0180050097
   18      C      -8.9575889042    -0.1716901666    -0.5377967264
   19      C     -10.1894479589    -1.0767219341     1.2429070022
   20      S      -8.8655526653     0.2100183191    -2.2281307061
   21      C     -10.0746639771    -0.8674535148    -0.1304459627
   22      C     -11.3580757568    -1.5697420202     1.9570451292
   23      C     -10.5191500602    -0.5518861305    -2.4529556716
   24      C     -11.0480871721    -0.9489339040    -1.2221337522
   25      N     -11.3441676831    -1.4730899812     3.2750083111
   26      S     -12.3857274678    -2.7763794732     1.2666886864
   27      C     -12.2860200197    -2.3013030186     3.8438275626
   28      C     -13.0122622973    -3.0251867014     2.9430758942
   29      C       1.1435473670     2.5599328598    -2.1517160775
   30      H       0.3565484954     1.9173101590     0.3668181868
   31      H      -1.8259662319     1.1124647231     1.1176066320
   32      H      -3.0160879862     1.5855267039    -3.0716113824
   33      H      -3.5227247419    -0.7198947102     0.8412817034
   34      H     -10.9720652370    -0.3228599164    -3.4084889446
   35      H     -12.0979367578    -1.1688968590    -1.0646944122
   36      H     -12.5251367953    -2.2580904908     4.8988085316
   37      H     -13.7979769229    -3.7673022373     3.0101360048
   38      H       1.8971814561     2.1743707881    -1.4534213341
   39      C       0.9992361831     4.1217840683    -1.9606242549
   40      H       1.3945495605     2.2076951659    -3.1607059218
   41      H       0.7281649103     4.3382653600    -0.9209679581
   42      H       0.1937407042     4.4596435187    -2.6242800582
   43      C       2.2590952486     4.8842951482    -2.5104442145
   44      H       3.1659371949     4.3850029720    -2.1476577658
   45      C       2.1878216204     6.3436193728    -2.0676407849
   46      H       2.1946581336     4.8219954444    -3.6036837148
   47      H       2.1201293868     6.3825489088    -0.9731088061
   48      H       1.3730800856     6.9542696593    -2.4755923251
   49      C       3.5955884513     6.9867273055    -2.5041241600
   50      H       4.4098894369     6.3459120161    -2.1419533856
   51      C       3.9554806143     8.3572350550    -1.8678945321
   52      H       3.6563132888     7.0383319138    -3.5985009043
   53      H       4.1248367982     8.3502072241    -0.7841777368
   54      H       3.1714578003     9.1072311117    -2.0279668346
   55      H       4.8524151786     8.7742172342    -2.3434744410
   56      C       5.0582976696     4.5816757032     0.4176704141
   57      C       3.8692444995     3.9070261814     0.6509483199
   58      N       6.0460281627     3.9586600162    -0.1872096789
   59      C       3.8167633779     2.5393901282     0.3939378965
   60      C       6.0363837452     2.6578548247    -0.4056629669
   61      C       4.9345305360     1.8283577223    -0.1237497488
   62      C       4.9470467925     0.3937658076    -0.2412673285
   63      C       6.1945807908    -0.2803732226    -0.1661308464
   64      C       3.8942614728    -0.4967791196    -0.2892548611
   65      N       6.4715676979    -1.6096009285    -0.2281627660
   66      N       2.5726774914    -0.0912934423    -0.3362670469
   67      C       4.0734347305    -1.8575170651    -0.2015383423
   68      C       5.4408269090    -2.3918805348    -0.1609389322
   69      S       1.7008457711    -1.4384252353    -0.2072539328
   70      N       2.9343112021    -2.5422652389    -0.1669764351
   71      C       5.7668625913    -3.8208757132    -0.2158526290
   72      S       4.6381131324    -5.0215275765     0.2836789137
   73      C       6.9601916167    -4.4425896088    -0.6234193955
   74      C       5.9263856656    -6.2796993617     0.1381638314
   75      S       8.4099348669    -3.7213767259    -1.1739141602
   76      C       7.0630207880    -5.7588241766    -0.2844360268
   77      C       5.7072319454    -7.6947480127     0.3976941037
   78      C       9.1629414640    -5.3231843496    -1.1238102554
   79      C       8.3193294292    -6.3106550370    -0.6404476831
   80      N       6.5752869604    -8.6238213512     0.0301397234
   81      S       4.2333622660    -8.3267022729     0.9993925175
   82      C       6.0336403690    -9.8484750755     0.0566203875
   83      C       4.7526783947    -9.9174117223     0.6309183584
   84      C       5.1310695264     6.0424741552     0.7390706933
   85      H       3.0234356805     4.3747632587     1.1452897690
   86      H       2.8558928742     2.1008436761     0.6429958907
   87      H       6.8682384466     2.1595655970    -0.9013640879
   88      H       7.0976960958     0.3111856728    -0.0238711574
   89      H      10.1492806518    -5.4369222021    -1.5529998493
   90      H       8.6068706543    -7.3518359314    -0.7316967330
   91      H       6.5699935233   -10.7133429297    -0.3102050324
   92      H       4.0823332815   -10.7612685265     0.7358808429
   93      H       5.4999414231     6.5770821349    -0.1447493290
   94      C       6.1988017078     6.2789041570     1.7976309623
   95      H       4.1400482699     6.4551208596     0.9616118502
   96      H       7.1817031545     6.2760315522     1.3101912284
   97      H       6.1165051210     5.6418485122     2.6859306736
   98      C       6.0851999645     7.7238365867     2.2921761247
   99      H       6.1223222309     8.3643668438     1.4018251113
  100      C       7.1964272355     8.2490602211     3.2564473968
  101      H       5.1405651190     7.7209087181     2.8489269092
  102      H       6.8442784405     9.2568874695     3.5055045460
  103      H       8.1869759473     8.3123834837     2.7902356274
  104      C       7.2439623392     7.4126003765     4.5923112904
  105      H       6.3437507957     7.6808752954     5.1580963600
  106      C       8.4412638219     7.8070256009     5.3918979974
  107      H       7.2072889026     6.3197595987     4.5013932319
  108      H       8.2826124502     7.5886169232     6.4551653164
  109      H       8.7785456639     8.8405891271     5.2513796843
  110      H       9.2309041025     7.0899540741     5.1354712969
 ----------------------------------------------------------------

   10   -5663.4905668206      3.66E-06 Convergence criterion met
 Total energy in the final basis set = -5663.4905668206

                    Orbital Energies (a.u.)
 --------------------------------------------------------------

 Alpha MOs
 -- Occupied --
-88.993 -88.990 -88.927 -88.926 -88.924 -88.923 -88.909 -88.906
-14.386 -14.382 -14.380 -14.377 -14.352 -14.351 -14.343 -14.339
-14.326 -14.325 -10.269 -10.265 -10.265 -10.265 -10.258 -10.254
-10.252 -10.246 -10.240 -10.239 -10.238 -10.237 -10.237 -10.237
-10.237 -10.235 -10.234 -10.231 -10.228 -10.228 -10.226 -10.226
-10.225 -10.223 -10.222 -10.221 -10.219 -10.216 -10.215 -10.214
-10.212 -10.212 -10.211 -10.206 -10.199 -10.195 -10.193 -10.192
-10.184 -10.180 -10.178 -10.177 -10.177 -10.176 -10.176 -10.175
-10.173 -10.171 -10.168 -10.167  -8.049  -8.045  -7.988  -7.987
 -7.984  -7.982  -7.969  -7.967  -6.014  -6.010  -6.008  -6.007
 -6.004  -6.003  -5.951  -5.950  -5.949  -5.948  -5.947  -5.947
 -5.945  -5.944  -5.944  -5.943  -5.941  -5.939  -5.934  -5.931
 -5.930  -5.928  -5.925  -5.923  -1.040  -1.038  -0.977  -0.973
 -0.970  -0.952  -0.946  -0.938  -0.923  -0.912  -0.903  -0.892
 -0.849  -0.847  -0.838  -0.831  -0.813  -0.812  -0.811  -0.805
 -0.802  -0.801  -0.799  -0.794  -0.789  -0.780  -0.771  -0.763
 -0.753  -0.747  -0.744  -0.734  -0.728  -0.727  -0.714  -0.708
 -0.696  -0.689  -0.674  -0.672  -0.657  -0.653  -0.649  -0.646
 -0.633  -0.628  -0.627  -0.624  -0.608  -0.605  -0.600  -0.598
 -0.595  -0.593  -0.589  -0.586  -0.578  -0.574  -0.571  -0.557
 -0.555  -0.544  -0.542  -0.540  -0.531  -0.520  -0.518  -0.513
 -0.509  -0.502  -0.502  -0.500  -0.494  -0.487  -0.481  -0.476
 -0.476  -0.475  -0.471  -0.467  -0.463  -0.461  -0.453  -0.450
 -0.447  -0.444  -0.441  -0.439  -0.437  -0.434  -0.433  -0.431
 -0.431  -0.424  -0.422  -0.420  -0.419  -0.417  -0.417  -0.415
 -0.413  -0.410  -0.406  -0.404  -0.403  -0.399  -0.397  -0.395
 -0.395  -0.393  -0.391  -0.389  -0.387  -0.386  -0.384  -0.381
 -0.377  -0.375  -0.372  -0.367  -0.367  -0.362  -0.360  -0.356
 -0.355  -0.354  -0.352  -0.351  -0.348  -0.346  -0.342  -0.340
 -0.337  -0.335  -0.334  -0.326  -0.324  -0.324  -0.322  -0.321
 -0.317  -0.312  -0.307  -0.305  -0.303  -0.302  -0.302  -0.298
 -0.293  -0.292  -0.290  -0.290  -0.286  -0.284  -0.283  -0.281
 -0.277  -0.277  -0.272  -0.262  -0.256  -0.252  -0.251  -0.248
 -0.246  -0.245  -0.234  -0.229  -0.195  -0.191

          Ground-State Mulliken Net Atomic Charges

     Atom                 Charge (a.u.)
  ----------------------------------------
      1 C                     0.249159
      2 C                    -0.113338
      3 N                    -0.454963
      4 C                    -0.081595
      5 C                     0.093194
      6 C                     0.021389
      7 C                     0.006964
      8 C                     0.071196
      9 C                     0.245638
     10 N                    -0.509629
     11 N                    -0.564322
     12 C                     0.222394
     13 C                     0.233257
     14 S                     0.621933
     15 N                    -0.545830
     16 C                    -0.198905
     17 S                     0.350935
     18 C                    -0.099770
     19 C                    -0.198980
     20 S                     0.254891
     21 C                     0.102502
     22 C                     0.060101
     23 C                    -0.303893
     24 C                    -0.070587
     25 N                    -0.432123
     26 S                     0.259594
     27 C                     0.129218
     28 C                    -0.305919
     29 C                    -0.238459
     30 H                     0.086260
     31 H                     0.105741
     32 H                     0.105522
     33 H                     0.113160
     34 H                     0.139282
     35 H                     0.116416
     36 H                     0.122022
     37 H                     0.136468
     38 H                     0.116964
     39 C                    -0.182535
     40 H                     0.107840
     41 H                     0.084877
     42 H                     0.115699
     43 C                    -0.175701
     44 H                     0.107108
     45 C                    -0.177470
     46 H                     0.098238
     47 H                     0.086807
     48 H                     0.096751
     49 C                    -0.184026
     50 H                     0.104455
     51 C                    -0.332422
     52 H                     0.095221
     53 H                     0.102421
     54 H                     0.094251
     55 H                     0.098506
     56 C                     0.302926
     57 C                    -0.129361
     58 N                    -0.495095
     59 C                    -0.079966
     60 C                     0.073575
     61 C                     0.041080
     62 C                     0.087602
     63 C                     0.019193
     64 C                     0.199936
     65 N                    -0.521970
     66 N                    -0.566220
     67 C                     0.241303
     68 C                     0.333614
     69 S                     0.604920
     70 N                    -0.584880
     71 C                    -0.221734
     72 S                     0.320216
     73 C                    -0.119879
     74 C                    -0.251011
     75 S                     0.279270
     76 C                     0.175971
     77 C                     0.052710
     78 C                    -0.310032
     79 C                    -0.039256
     80 N                    -0.432464
     81 S                     0.273540
     82 C                     0.123497
     83 C                    -0.319875
     84 C                    -0.230137
     85 H                     0.086275
     86 H                     0.115684
     87 H                     0.102418
     88 H                     0.107374
     89 H                     0.128461
     90 H                     0.133991
     91 H                     0.112892
     92 H                     0.138090
     93 H                     0.128719
     94 C                    -0.171276
     95 H                     0.100074
     96 H                     0.114287
     97 H                     0.094784
     98 C                    -0.184328
     99 H                     0.087158
    100 C                    -0.184001
    101 H                     0.085561
    102 H                     0.097763
    103 H                     0.092693
    104 C                    -0.173444
    105 H                     0.091227
    106 C                    -0.318559
    107 H                     0.096675
    108 H                     0.095186
    109 H                     0.104913
    110 H                     0.104000
  ----------------------------------------
  Sum of atomic charges =     0.000000

                    Cartesian Multipole Moments
 -----------------------------------------------------------------
    Charge (ESU x 10^10)
                 0.0000
    Dipole Moment (Debye)
         X      -3.2861      Y      -1.8510      Z       0.9615
       Tot       3.8922
    Quadrupole Moments (Debye-Ang)
        XX    -402.4486     XY       6.7532     YY    -406.9599
        XZ       5.9681     YZ       1.5424     ZZ    -444.7589

 Total job time:  100.55s(wall), 1104.65s(cpu)
        *  Thank you very much for using Q-Chem.  Have a nice day.  *
