 Q-Chem 4.4, Q-Chem, Inc., Pleasanton, CA (2016)
 Q-Chem 4.4.2 for Intel X86 Linux

User input:
--------------------------------------------------------------
$comment
SP
$end

$rem
MEM_STATIC 5000
MEM_TOTAL 20000
JOBTYPE SP
EXCHANGE B3LYP
BASIS 6-31g(d,p)
$end

$molecule
0 1
C           1.660000     19.364000     10.275000
C           2.955000     19.706000     10.345000
N           1.173000     18.657000      9.271000
C           3.882000     19.380000      9.378000
C           2.051000     18.337000      8.292000
C           3.432000     18.658000      8.255000
C           4.375000     18.176000      7.140000
C           5.651000     17.692000      7.391000
C           3.960000     18.113000      5.781000
N           6.467000     17.141000      6.471000
N           2.748000     18.528000      5.360000
C           4.885000     17.685000      4.809000
C           6.156000     17.148000      5.145000
S           2.842000     18.124000      3.727000
N           4.347000     17.690000      3.592000
C           7.163000     16.507000      4.237000
S           8.390000     15.417000      4.873000
C           7.484000     16.860000      2.960000
C           9.404000     15.772000      3.430000
S           6.761000     18.063000      1.924000
C           8.671000     16.406000      2.506000
C          10.763000     15.306000      3.380000
C           7.988000     17.745000      0.658000
C           9.066000     16.951000      1.226000
N          11.425000     15.278000      2.245000
S          11.665000     14.717000      4.801000
C          12.717000     14.700000      2.391000
C          12.991000     14.298000      3.686000
C           0.655000     19.571000     11.391000
H           3.318000     20.161000     11.262000
H           4.925000     19.631000      9.552000
H           1.688000     17.706000      7.482000
H           6.012000     17.683000      8.418000
H           7.943000     18.337000     -0.246000
H           9.941000     16.695000      0.641000
H          13.384000     14.538000      1.554000
H          13.977000     13.989000      4.007000
H           0.360000     20.616000     11.547000
C           1.039000     19.002000     12.785000
H          -0.354000     19.252000     11.100000
H           0.273000     19.385000     13.470000
H           2.058000     19.280000     13.082000
C           0.848000     17.468000     12.710000
H          -0.163000     17.234000     12.354000
C           0.949000     16.914000     14.164000
H           1.606000     17.066000     12.027000
H           0.127000     17.360000     14.738000
H           1.874000     17.171000     14.695000
C           0.736000     15.443000     14.309000
H          -0.196000     15.067000     13.870000
C           0.715000     15.030000     15.805000
H           1.559000     14.903000     13.825000
H           0.835000     13.943000     15.890000
H          -0.240000     15.336000     16.250000
H           1.589000     15.541000     16.228000
C          14.244000      8.666000     -3.351000
C          13.125000      9.350000     -2.900000
N          15.354000      9.330000     -3.589000
C          13.158000     10.742000     -2.878000
C          15.401000     10.648000     -3.613000
C          14.311000     11.473000     -3.277000
C          14.305000     12.906000     -3.413000
C          15.197000     13.501000     -4.344000
C          13.453000     13.841000     -2.862000
N          15.371000     14.809000     -4.670000
N          12.469000     13.510000     -1.948000
C          13.456000     15.161000     -3.248000
C          14.472000     15.618000     -4.205000
S          11.622000     14.859000     -1.715000
N          12.498000     15.884000     -2.676000
C          14.674000     17.021000     -4.582000
S          13.406000     18.179000     -4.454000
C          15.824000     17.643000     -5.099000
C          14.430000     19.383000     -5.329000
S          17.346000     16.951000     -5.459000
C          15.615000     18.883000     -5.625000
C          14.011000     20.748000     -5.610000
C          17.808000     18.488000     -6.207000
C          16.787000     19.425000     -6.210000
N          14.862000     21.682000     -6.004000
S          12.444000     21.345000     -5.261000
C          14.345000     22.911000     -5.877000
C          12.981000     22.948000     -5.540000
C          14.193000      7.171000     -3.421000
H          12.185000      8.850000     -2.688000
H          12.223000     11.180000     -2.544000
H          16.329000     11.179000     -3.820000
H          15.855000     12.853000     -4.921000
H          18.840000     18.622000     -6.502000
H          17.005000     20.453000     -6.476000
H          14.939000     23.797000     -6.057000
H          12.338000     23.795000     -5.336000
H          15.060000      6.766000     -2.885000
C          14.394000      6.721000     -4.861000
H          13.303000      6.775000     -2.918000
H          15.466000      6.755000     -5.092000
H          13.743000      7.213000     -5.593000
C          14.089000      5.223000     -4.952000
H          14.706000      4.730000     -4.190000
C          14.400000      4.501000     -6.302000
H          13.004000      5.182000     -4.799000
H          14.032000      3.484000     -6.123000
H          15.469000      4.466000     -6.544000
C          13.563000      5.113000     -7.490000
H          12.524000      4.801000     -7.330000
C          14.035000      4.542000     -8.786000
H          13.523000      6.207000     -7.564000
H          13.242000      4.597000     -9.542000
H          14.450000      3.529000     -8.728000
H          14.769000      5.253000     -9.185000
$end

--------------------------------------------------------------

             Standard Nuclear Orientation (Angstroms)
    I     Atom           X                Y                Z
 ----------------------------------------------------------------
    1      C     -12.9525619831    -0.7505209008     0.4964507683
    2      C     -12.2890788649    -1.1913555027    -0.5825969627
    3      N     -12.3310494313    -0.2321781592     1.5405182710
    4      C     -10.9149991341    -1.1701746761    -0.6928252069
    5      C     -10.9792993198    -0.2147341981     1.4757699557
    6      C     -10.1773572170    -0.6662972854     0.3966264797
    7      C      -8.6460723513    -0.5267377568     0.3745403281
    8      C      -7.9436567839    -0.1240118121    -0.7523390728
    9      C      -7.8580243606    -0.7174045713     1.5431726613
   10      N      -6.6221200847     0.1365421457    -0.7911899124
   11      N      -8.3769078512    -1.0956141557     2.7289751041
   12      C      -6.4582307918    -0.5979539737     1.4436612572
   13      C      -5.8111596803    -0.1250025476     0.2713464850
   14      S      -6.9920159687    -1.0620675825     3.6879798493
   15      N      -5.8684816181    -0.8125479901     2.6169912705
   16      C      -4.3611487409     0.2074115831     0.0806553176
   17      S      -3.8424903349     1.2864504875    -1.2096134532
   18      C      -3.2782742840    -0.4401838669     0.5967774387
   19      C      -2.2095285725     0.5352759951    -1.1344951169
   20      S      -3.2108953132    -1.7628763471     1.7321974831
   21      C      -2.1038399828    -0.2093341985    -0.0266112865
   22      C      -1.2325671107     0.8480431049    -2.1415998966
   23      C      -1.4284488380    -1.8421821515     1.5709394526
   24      C      -1.0169092141    -1.0512624413     0.4219289435
   25      N       0.0384691008     0.5687679204    -1.9579553477
   26      S      -1.6208728915     1.6393932439    -3.6916804035
   27      C       0.8514799700     1.0388258129    -3.0269375292
   28      C       0.1309634138     1.6812169144    -4.0178434607
   29      C     -14.4601879711    -0.6166379100     0.5828754470
   30      H     -12.8635915255    -1.4715781001    -1.4607162591
   31      H     -10.4640683493    -1.4762341664    -1.6330991115
   32      H     -10.4457854813     0.2595206156     2.2982511748
   33      H      -8.4972793647     0.0705889350    -1.6692706882
   34      H      -0.9064774563    -2.6072340524     2.1294611313
   35      H       0.0203702079    -1.0112478662     0.1123546639
   36      H       1.9305370892     0.9532412826    -3.0233289729
   37      H       0.5628592165     1.9564756947    -4.9709523839
   38      H     -14.9963589604    -1.5708889824     0.6557559040
   39      C     -15.1502421559     0.1988394039    -0.5455194185
   40      H     -14.7863095101    -0.2728090900     1.5727994261
   41      H     -16.2251762955     0.0464311776    -0.3907346391
   42      H     -14.8132199621    -0.1048005168    -1.5445553736
   43      C     -14.8623511690     1.6921155974    -0.2582791191
   44      H     -15.1598176764     1.9395688091     0.7683140744
   45      C     -15.7747416666     2.5328458886    -1.2027097187
   46      H     -13.7895222080     1.8641844440    -0.4068971946
   47      H     -16.8143350356     2.3007280272    -0.9391894621
   48      H     -15.6676371239     2.3087603324    -2.2713299883
   49      C     -15.6810963810     4.0141591027    -1.0378560798
   50      H     -15.8350838999     4.3743187914    -0.0135056306
   51      C     -16.7320856338     4.7384594833    -1.9209396258
   52      H     -14.6876429992     4.3568580354    -1.3521693305
   53      H     -16.4760297966     5.8018979996    -2.0029635874
   54      H     -17.7238481512     4.6274397801    -1.4651241646
   55      H     -16.6322071764     4.2491651942    -2.8979459679
   56      C       7.5021474393     5.5273804494    -0.3189957854
   57      C       6.3194630675     5.0658309216     0.2392583773
   58      N       8.2121182758     4.7251125717    -1.0818507282
   59      C       6.0070253414     3.7142782299     0.1170905064
   60      C       7.9598693242     3.4342941054    -1.1821859340
   61      C       6.8499654056     2.8082559037    -0.5840133323
   62      C       6.6238477742     1.3866796559    -0.5804372457
   63      C       7.7401318462     0.5236364321    -0.7401753575
   64      C       5.4722418838     0.6771438894    -0.3082371922
   65      N       7.7965229413    -0.8343299344    -0.7529578299
   66      N       4.2524695793     1.2886803546    -0.0815398676
   67      C       5.4664480248    -0.6890607785    -0.1505785842
   68      C       6.7097705236    -1.4353495191    -0.3832936017
   69      S       3.2505379369     0.1080312621     0.3585734182
   70      N       4.2820853212    -1.1779127827     0.2043660657
   71      C       6.8003498187    -2.8992684154    -0.3921737121
   72      S       5.6630684778    -3.8766536615     0.4542784320
   73      C       7.7554757391    -3.7243552100    -1.0115599064
   74      C       6.6796626061    -5.3322578519     0.1202577454
   75      S       9.1182439769    -3.2739141674    -1.9415672166
   76      C       7.7437708958    -5.0226174601    -0.5964272450
   77      C       6.3254400334    -6.6794760193     0.5412999981
   78      C       9.6185314805    -4.9724306044    -1.9331216865
   79      C       8.7819985938    -5.7866180226    -1.1863080700
   80      N       6.9333241964    -7.7529800500     0.0618639332
   81      S       4.9649685539    -7.0356411934     1.5190334599
   82      C       6.2411911204    -8.8711581128     0.3158100394
   83      C       5.1414155378    -8.7048790709     1.1750416427
   84      C       7.8632487576     6.9704777869    -0.1469437222
   85      H       5.6961741741     5.6869038436     0.8751226561
   86      H       5.0815413822     3.4492339467     0.6179457443
   87      H       8.5649788661     2.7853026610    -1.8135705612
   88      H       8.7272911044     0.9670969600    -0.8612388089
   89      H      10.4441260011    -5.2642913244    -2.5681146058
   90      H       8.8835430996    -6.8637288366    -1.2540207537
   91      H       6.5404684177    -9.8276190938    -0.0914337341
   92      H       4.4004873856    -9.4232053280     1.5029240327
   93      H       8.0812997883     7.3965038896    -1.1338406306
   94      C       9.1781720357     7.0799348325     0.6116714161
   95      H       7.0268373256     7.5480986927     0.2637812534
   96      H      10.0025750844     6.8951954265    -0.0882799860
   97      H       9.2211137327     6.5067219027     1.5450909079
   98      C       9.4000910605     8.5456478200     0.9960506361
   99      H       9.3138296474     9.1295064248     0.0708208818
  100      C      10.7761244434     8.9283286517     1.6289744151
  101      H       8.6283206066     8.7217025593     1.7547930794
  102      H      10.6459273974     9.9903817594     1.8673982508
  103      H      11.6226757006     8.8085891153     0.9422696660
  104      C      11.0227780990     8.1583964222     2.9827924738
  105      H      10.3354440564     8.5950010679     3.7172400874
  106      C      12.4223979261     8.3905336877     3.4471389283
  107      H      10.8058661775     7.0828894334     2.9948728451
  108      H      12.4956369072     8.2505006963     4.5326972238
  109      H      12.8629747704     9.3481384288     3.1460688301
  110      H      13.0129491018     7.5438784195     3.0757871198
 ----------------------------------------------------------------

   11   -5663.5055734155      5.00E-06 Convergence criterion met
 Total energy in the final basis set = -5663.5055734155

                    Orbital Energies (a.u.)
 --------------------------------------------------------------

 Alpha MOs
 -- Occupied --
-88.989 -88.988 -88.927 -88.925 -88.924 -88.923 -88.909 -88.906
-14.389 -14.386 -14.385 -14.381 -14.350 -14.350 -14.348 -14.339
-14.327 -14.322 -10.273 -10.271 -10.265 -10.264 -10.260 -10.258
-10.257 -10.252 -10.244 -10.242 -10.240 -10.239 -10.237 -10.237
-10.237 -10.236 -10.235 -10.231 -10.231 -10.228 -10.228 -10.225
-10.225 -10.224 -10.223 -10.223 -10.221 -10.221 -10.220 -10.213
-10.212 -10.211 -10.209 -10.202 -10.199 -10.195 -10.191 -10.189
-10.184 -10.183 -10.179 -10.179 -10.176 -10.175 -10.175 -10.174
-10.172 -10.170 -10.169 -10.166  -8.044  -8.044  -7.988  -7.987
 -7.984  -7.982  -7.969  -7.967  -6.009  -6.009  -6.004  -6.003
 -6.002  -6.002  -5.952  -5.950  -5.948  -5.948  -5.947  -5.946
 -5.945  -5.944  -5.944  -5.943  -5.941  -5.939  -5.934  -5.931
 -5.930  -5.927  -5.925  -5.923  -1.050  -1.039  -0.977  -0.972
 -0.961  -0.956  -0.949  -0.947  -0.924  -0.923  -0.914  -0.902
 -0.848  -0.846  -0.842  -0.829  -0.812  -0.811  -0.811  -0.807
 -0.804  -0.802  -0.798  -0.796  -0.787  -0.786  -0.772  -0.770
 -0.752  -0.752  -0.745  -0.743  -0.728  -0.728  -0.713  -0.706
 -0.695  -0.694  -0.675  -0.673  -0.655  -0.652  -0.651  -0.649
 -0.637  -0.632  -0.628  -0.624  -0.614  -0.606  -0.600  -0.596
 -0.594  -0.593  -0.588  -0.588  -0.585  -0.574  -0.568  -0.557
 -0.556  -0.555  -0.546  -0.541  -0.530  -0.525  -0.513  -0.512
 -0.508  -0.507  -0.502  -0.500  -0.492  -0.487  -0.480  -0.478
 -0.478  -0.476  -0.475  -0.474  -0.464  -0.461  -0.452  -0.449
 -0.448  -0.444  -0.442  -0.441  -0.437  -0.436  -0.435  -0.434
 -0.431  -0.430  -0.424  -0.423  -0.420  -0.417  -0.417  -0.416
 -0.413  -0.411  -0.408  -0.406  -0.404  -0.403  -0.398  -0.397
 -0.395  -0.395  -0.392  -0.391  -0.388  -0.386  -0.385  -0.383
 -0.378  -0.375  -0.372  -0.372  -0.366  -0.365  -0.361  -0.360
 -0.355  -0.355  -0.353  -0.351  -0.350  -0.347  -0.347  -0.344
 -0.341  -0.340  -0.334  -0.333  -0.328  -0.322  -0.322  -0.320
 -0.317  -0.313  -0.311  -0.308  -0.305  -0.303  -0.302  -0.298
 -0.297  -0.294  -0.293  -0.287  -0.285  -0.284  -0.280  -0.280
 -0.276  -0.275  -0.271  -0.270  -0.256  -0.254  -0.251  -0.249
 -0.246  -0.242  -0.238  -0.232  -0.197  -0.191

          Ground-State Mulliken Net Atomic Charges

     Atom                 Charge (a.u.)
  ----------------------------------------
      1 C                     0.294621
      2 C                    -0.109695
      3 N                    -0.483792
      4 C                    -0.079181
      5 C                     0.091416
      6 C                     0.031630
      7 C                     0.035948
      8 C                     0.062782
      9 C                     0.228070
     10 N                    -0.519297
     11 N                    -0.561122
     12 C                     0.192233
     13 C                     0.289775
     14 S                     0.597341
     15 N                    -0.514240
     16 C                    -0.217161
     17 S                     0.304181
     18 C                    -0.103018
     19 C                    -0.227700
     20 S                     0.271505
     21 C                     0.181454
     22 C                     0.077784
     23 C                    -0.301875
     24 C                    -0.085357
     25 N                    -0.458885
     26 S                     0.256716
     27 C                     0.115274
     28 C                    -0.299353
     29 C                    -0.248232
     30 H                     0.083452
     31 H                     0.100610
     32 H                     0.107142
     33 H                     0.110067
     34 H                     0.138068
     35 H                     0.133193
     36 H                     0.126262
     37 H                     0.135205
     38 H                     0.095829
     39 C                    -0.180926
     40 H                     0.117750
     41 H                     0.095963
     42 H                     0.094661
     43 C                    -0.164939
     44 H                     0.100668
     45 C                    -0.164787
     46 H                     0.099833
     47 H                     0.086395
     48 H                     0.084813
     49 C                    -0.179702
     50 H                     0.088631
     51 C                    -0.315297
     52 H                     0.088322
     53 H                     0.098600
     54 H                     0.103156
     55 H                     0.098452
     56 C                     0.299151
     57 C                    -0.131478
     58 N                    -0.493052
     59 C                    -0.072734
     60 C                     0.073524
     61 C                     0.037118
     62 C                     0.086960
     63 C                     0.018095
     64 C                     0.183792
     65 N                    -0.521937
     66 N                    -0.556713
     67 C                     0.242206
     68 C                     0.332295
     69 S                     0.615023
     70 N                    -0.586801
     71 C                    -0.221018
     72 S                     0.318251
     73 C                    -0.120069
     74 C                    -0.251740
     75 S                     0.277993
     76 C                     0.175735
     77 C                     0.053043
     78 C                    -0.309777
     79 C                    -0.039329
     80 N                    -0.432641
     81 S                     0.270677
     82 C                     0.123447
     83 C                    -0.319477
     84 C                    -0.224721
     85 H                     0.086717
     86 H                     0.116096
     87 H                     0.099445
     88 H                     0.107316
     89 H                     0.128071
     90 H                     0.133721
     91 H                     0.112673
     92 H                     0.137433
     93 H                     0.117999
     94 C                    -0.167914
     95 H                     0.096980
     96 H                     0.113490
     97 H                     0.095659
     98 C                    -0.181731
     99 H                     0.083753
    100 C                    -0.183902
    101 H                     0.085852
    102 H                     0.097167
    103 H                     0.092161
    104 C                    -0.172631
    105 H                     0.091020
    106 C                    -0.318607
    107 H                     0.096804
    108 H                     0.094976
    109 H                     0.104522
    110 H                     0.103867
  ----------------------------------------
  Sum of atomic charges =     0.000000

                    Cartesian Multipole Moments
 -----------------------------------------------------------------
    Charge (ESU x 10^10)
                 0.0000
    Dipole Moment (Debye)
         X      -0.8368      Y      -1.5370      Z      -0.4844
       Tot       1.8158
    Quadrupole Moments (Debye-Ang)
        XX    -464.0211     XY       3.5599     YY    -415.0593
        XZ      14.4634     YZ       1.5664     ZZ    -435.1994

 Total job time:  101.86s(wall), 1104.44s(cpu)
        *  Thank you very much for using Q-Chem.  Have a nice day.  *
