 Q-Chem 4.4, Q-Chem, Inc., Pleasanton, CA (2016)
 Q-Chem 4.4.2 for Intel X86 Linux

User input:
--------------------------------------------------------------
$comment
SP
$end

$rem
MEM_STATIC 5000
MEM_TOTAL 20000
JOBTYPE SP
EXCHANGE B3LYP
BASIS 6-31g(d,p)
$end

$molecule
0 1
C          11.626000    -11.012000     10.067000
C          11.311000    -10.923000     11.446000
N          11.266000    -12.032000      9.293000
C          10.471000    -11.933000     12.000000
C          10.528000    -12.925000      9.861000
C          10.047000    -13.018000     11.180000
C           9.047000    -14.052000     11.717000
C           8.043000    -13.646000     12.633000
C           8.992000    -15.448000     11.446000
N           7.058000    -14.397000     13.102000
N           9.933000    -16.050000     10.761000
C           7.994000    -16.243000     11.972000
C           6.947000    -15.678000     12.807000
S           9.472000    -17.625000     10.735000
N           8.203000    -17.537000     11.718000
C           5.840000    -16.463000     13.300000
S           5.635000    -18.240000     13.022000
C           4.853000    -16.068000     14.185000
C           4.238000    -18.269000     14.094000
S           4.540000    -14.449000     14.798000
C           3.953000    -17.006000     14.597000
C           3.490000    -19.466000     14.394000
C           3.184000    -15.118000     15.663000
C           2.972000    -16.515000     15.609000
N           2.997000    -19.527000     15.613000
S           3.418000    -20.833000     13.299000
C           2.431000    -20.802000     15.776000
C           2.559000    -21.586000     14.625000
C          12.422000     -9.980000      9.334000
H          11.614000    -10.021000     11.969000
H          10.171000    -11.914000     13.044000
H          10.303000    -13.784000      9.230000
H           7.820000    -12.635000     12.970000
H           2.577000    -14.408000     16.209000
H           2.116000    -17.059000     15.992000
H           2.087000    -21.054000     16.770000
H           2.198000    -22.597000     14.491000
H          12.856000     -9.294000     10.071000
C          11.663000     -9.199000      8.185000
H          13.180000    -10.560000      8.793000
H          11.176000     -9.966000      7.571000
H          12.419000     -8.596000      7.667000
C          10.596000     -8.306000      8.862000
H           9.816000     -8.885000      9.371000
C           9.842000     -7.239000      7.918000
H          11.072000     -7.804000      9.713000
H           8.952000     -6.758000      8.343000
H           9.511000     -7.843000      7.065000
C          10.874000     -6.176000      7.625000
H          11.093000     -5.579000      8.518000
C          10.306000     -5.274000      6.494000
H          11.776000     -6.634000      7.201000
H           9.336000     -4.850000      6.782000
H          10.146000     -5.782000      5.535000
H          10.990000     -4.436000      6.312000
C          15.082000    -16.421000      9.310000
C          13.841000    -16.437000      9.926000
N          16.005000    -15.558000      9.673000
C          13.591000    -15.502000     10.945000
C          15.762000    -14.564000     10.559000
C          14.553000    -14.431000     11.232000
C          14.375000    -13.365000     12.251000
C          13.404000    -13.580000     13.266000
C          14.830000    -12.033000     12.090000
N          12.866000    -12.651000     14.099000
N          15.741000    -11.576000     11.129000
C          14.214000    -11.047000     12.876000
C          13.340000    -11.350000     13.931000
S          15.700000    -10.002000     11.350000
N          14.605000     -9.819000     12.567000
C          12.726000    -10.383000     14.832000
S          11.124000    -10.559000     15.495000
C          13.249000     -9.216000     15.410000
C          11.165000     -9.046000     16.301000
S          14.855000     -8.648000     15.242000
C          12.380000     -8.452000     16.177000
C           9.987000     -8.387000     16.860000
C          14.342000     -7.198000     16.190000
C          13.050000     -7.253000     16.685000
N           8.947000     -9.188000     17.003000
S           9.843000     -6.756000     17.368000
C           7.936000     -8.536000     17.628000
C           8.178000     -7.135000     17.783000
C          15.365000    -17.403000      8.194000
H          13.094000    -17.192000      9.697000
H          12.635000    -15.470000     11.458000
H          16.646000    -13.982000     10.816000
H          12.907000    -14.539000     13.406000
H          15.058000     -6.407000     16.376000
H          12.537000     -6.575000     17.358000
H           6.999000     -9.031000     17.844000
H           7.514000     -6.379000     18.182000
H          16.305000    -17.178000      7.675000
C          14.242000    -17.471000      7.156000
H          15.598000    -18.369000      8.659000
H          13.413000    -18.086000      7.526000
H          14.569000    -18.092000      6.313000
C          13.646000    -16.065000      6.636000
H          12.832000    -16.184000      5.911000
C          14.591000    -15.009000      6.132000
H          13.221000    -15.586000      7.527000
H          15.444000    -15.480000      5.629000
H          15.007000    -14.624000      7.072000
C          13.951000    -13.863000      5.340000
H          14.654000    -13.076000      5.039000
C          12.862000    -13.091000      6.124000
H          13.511000    -14.173000      4.384000
H          12.536000    -12.182000      5.604000
H          13.344000    -12.834000      7.075000
H          12.029000    -13.796000      6.235000
$end

--------------------------------------------------------------

             Standard Nuclear Orientation (Angstroms)
    I     Atom           X                Y                Z
 ----------------------------------------------------------------
    1      C       2.7969754981    -0.9444832342    -1.6402868617
    2      C       2.3803434160     0.2367069921    -0.9769661569
    3      N       1.9889230301    -1.9688674030    -1.8986747166
    4      C       0.9945332846     0.3700878974    -0.6697922419
    5      C       0.7525162369    -1.7949697966    -1.5734442380
    6      C       0.1053608082    -0.7023572645    -0.9675080154
    7      C      -1.4067573283    -0.5376866085    -0.7579672881
    8      C      -2.0081469698     0.7310400874    -0.9593899040
    9      C      -2.3490798404    -1.5157213643    -0.3328104940
   10      N      -3.3037956145     1.0019275373    -0.9135469220
   11      N      -1.9687740172    -2.7034581259     0.0693820793
   12      C      -3.6945024183    -1.2232706388    -0.2378596641
   13      C      -4.2027015643     0.0920673867    -0.5903912324
   14      S      -3.3655203778    -3.4570969279     0.4876525186
   15      N      -4.3837521762    -2.2254152238     0.3128435246
   16      C      -5.6122147822     0.4050993509    -0.5878460435
   17      S      -6.9194770034    -0.7419277619    -0.0854196434
   18      C      -6.2033768500     1.6385614529    -0.7940441338
   19      C      -8.1245185603     0.5345518432    -0.2272246645
   20      S      -5.4319661717     3.1286459163    -1.3226960587
   21      C      -7.5561612752     1.7299508320    -0.6484066372
   22      C      -9.5261119768     0.3406277988     0.0560461592
   23      C      -7.0069362273     3.8718921792    -1.2829932050
   24      C      -8.1009807372     3.1097920324    -0.8121015224
   25      N     -10.1414086164     1.3820965187     0.5751645954
   26      S     -10.3083601801    -1.2224236974    -0.0775793202
   27      C     -11.4423603838     0.9770907873     0.9158181680
   28      C     -11.6747195561    -0.3659516094     0.6026291907
   29      C       4.1998020851    -1.1814779850    -2.1005477169
   30      H       3.1139050229     1.0290285088    -0.8627033765
   31      H       0.6025957269     1.2588058499    -0.1831071776
   32      H       0.1233996514    -2.6704171060    -1.7298773882
   33      H      -1.5374321527     1.6376708508    -1.3360425555
   34      H      -7.0517794677     4.8987210439    -1.6210413768
   35      H      -9.1481927182     3.3891782924    -0.8376237587
   36      H     -12.0412554729     1.6898552450     1.4664246519
   37      H     -12.5956053561    -0.9128260414     0.7552584770
   38      H       4.8388413780    -0.4019103855    -1.6692425581
   39      C       4.4092938048    -1.3094747429    -3.6645084099
   40      H       4.4392150999    -2.1846203401    -1.7263394545
   41      H       3.6547465125    -2.0255661761    -4.0113879897
   42      H       5.4510940855    -1.6187343044    -3.8144407244
   43      C       4.1402027276     0.0840143340    -4.2809864588
   44      H       3.0995004737     0.4089865383    -4.1624373754
   45      C       4.5106957320     0.2688857026    -5.8387728725
   46      H       4.6621700997     0.8273781013    -3.6663797781
   47      H       4.1318261961     1.1773640489    -6.3237584076
   48      H       4.0218839940    -0.5864069527    -6.3199418226
   49      C       6.0201416294     0.2892344145    -5.8835055519
   50      H       6.4176403786     1.2103082700    -5.4414233229
   51      C       6.4439173093     0.1749809570    -7.3743943206
   52      H       6.4230157968    -0.6096755944    -5.4010149290
   53      H       5.9949036562     0.9786123632    -7.9712052642
   54      H       6.1610967978    -0.7651162376    -7.8638581324
   55      H       7.5332655577     0.2737455719    -7.4567954405
   56      C       1.6842598359    -5.8375410003     2.4333006914
   57      C       0.6825983245    -4.9460417891     2.0844506188
   58      N       2.8588445271    -5.4085030617     2.8391876837
   59      C       0.9562869479    -3.5701605832     2.1688985000
   60      C       3.2023583153    -4.0995038669     2.8146849203
   61      C       2.3145490919    -3.0923076571     2.4546160689
   62      C       2.7285929584    -1.6674426686     2.5233797297
   63      C       1.7080501405    -0.6925339383     2.6887167324
   64      C       3.9896762216    -1.1884584459     2.0904673624
   65      N       1.8085123570     0.6463233930     2.4795699190
   66      N       5.1231421741    -1.9636352516     1.8136156791
   67      C       4.0826431863     0.1763706277     1.7773431967
   68      C       3.0631400692     1.0955919475     2.0677834820
   69      S       6.1284543353    -0.8862039899     1.2165500757
   70      N       5.2548173495     0.5097756172     1.2565794843
   71      C       3.1232898486     2.5336548545     1.8392160311
   72      S       1.7485706790     3.4981988809     1.3736507554
   73      C       4.1831487030     3.4388874841     2.0027858787
   74      C       2.6620480428     4.9427131473     1.2342820360
   75      S       5.7369731084     3.0620382420     2.6140946106
   76      C       3.9492188643     4.7538033043     1.6240785821
   77      C       2.1764966352     6.1553445484     0.5799037694
   78      C       6.1897182762     4.7745202756     2.2580045970
   79      C       5.1477422089     5.5728312889     1.8172105395
   80      N       0.8680781533     6.1770055404     0.4032066338
   81      S       3.0949241326     7.5140670477     0.0805791237
   82      C       0.4835509768     7.3742479528    -0.1033498354
   83      C       1.5828606251     8.2023330608    -0.4921728686
   84      C       1.4197115687    -7.3236945011     2.3273243441
   85      H      -0.3186183244    -5.2778212583     1.8237542324
   86      H       0.2078284289    -2.8296914566     1.9049964009
   87      H       4.1770369567    -3.8952342090     3.2557115100
   88      H       0.6759489756    -0.9586939265     2.9128061032
   89      H       7.2015666793     5.1063138916     2.4555110665
   90      H       5.1239918951     6.6412245035     1.6334882995
   91      H      -0.5565640699     7.5876110848    -0.3089875349
   92      H       1.5563275542     9.1675423164    -0.9813559519
   93      H       2.3335177259    -7.9159333466     2.4607314537
   94      C       0.7715753217    -7.7241981076     0.9996522210
   95      H       0.8385877757    -7.6167178199     3.2105584422
   96      H      -0.3026526640    -7.5046937884     1.0144200414
   97      H       0.7342481321    -8.8184897853     0.9336870400
   98      C       1.4069096223    -7.0896775897    -0.3405664324
   99      H       0.8844344140    -7.3996276753    -1.2534369605
  100      C       2.8890932575    -7.1976539348    -0.5721906547
  101      H       1.2691257616    -6.0059056628    -0.2385810501
  102      H       3.2630636911    -8.1446345347    -0.1649648473
  103      H       3.2722998441    -6.4339492148     0.1168585545
  104      C       3.3660099661    -6.8965263047    -1.9976914801
  105      H       4.4559396013    -6.9215103194    -2.1226242194
  106      C       2.9789503285    -5.4853746263    -2.5030594426
  107      H       3.0200307010    -7.6205294317    -2.7458584536
  108      H       3.4655902892    -5.2320469253    -3.4527770978
  109      H       3.3193291422    -4.8104595148    -1.7084489371
  110      H       1.8882853102    -5.5068903115    -2.6180459338
 ----------------------------------------------------------------

    9   -5663.5027419487      8.76E-06 Convergence criterion met
 Total energy in the final basis set = -5663.5027419487

                    Orbital Energies (a.u.)
 --------------------------------------------------------------

 Alpha MOs
 -- Occupied --
-88.989 -88.985 -88.936 -88.936 -88.925 -88.921 -88.912 -88.910
-14.389 -14.385 -14.383 -14.378 -14.351 -14.349 -14.342 -14.340
-14.321 -14.315 -10.270 -10.268 -10.260 -10.260 -10.260 -10.253
-10.252 -10.250 -10.240 -10.240 -10.238 -10.237 -10.236 -10.236
-10.236 -10.236 -10.235 -10.235 -10.233 -10.228 -10.228 -10.226
-10.225 -10.225 -10.222 -10.220 -10.216 -10.215 -10.214 -10.214
-10.212 -10.210 -10.210 -10.209 -10.207 -10.206 -10.197 -10.192
-10.185 -10.182 -10.181 -10.180 -10.174 -10.174 -10.172 -10.170
-10.166 -10.166 -10.163 -10.157  -8.045  -8.041  -7.997  -7.997
 -7.984  -7.981  -7.972  -7.970  -6.010  -6.006  -6.004  -6.003
 -6.001  -5.999  -5.961  -5.961  -5.958  -5.958  -5.954  -5.954
 -5.948  -5.945  -5.945  -5.941  -5.941  -5.938  -5.937  -5.934
 -5.933  -5.931  -5.929  -5.926  -1.050  -1.043  -0.976  -0.971
 -0.964  -0.952  -0.947  -0.935  -0.919  -0.915  -0.909  -0.909
 -0.848  -0.841  -0.830  -0.826  -0.815  -0.814  -0.807  -0.804
 -0.801  -0.800  -0.793  -0.789  -0.780  -0.778  -0.763  -0.760
 -0.747  -0.744  -0.737  -0.735  -0.725  -0.725  -0.707  -0.705
 -0.694  -0.688  -0.674  -0.672  -0.650  -0.649  -0.646  -0.639
 -0.635  -0.630  -0.623  -0.619  -0.610  -0.609  -0.604  -0.598
 -0.594  -0.593  -0.585  -0.582  -0.578  -0.574  -0.561  -0.553
 -0.547  -0.545  -0.542  -0.542  -0.523  -0.523  -0.520  -0.513
 -0.505  -0.502  -0.498  -0.495  -0.483  -0.481  -0.478  -0.476
 -0.474  -0.472  -0.462  -0.461  -0.457  -0.454  -0.451  -0.445
 -0.443  -0.441  -0.439  -0.438  -0.437  -0.434  -0.430  -0.427
 -0.426  -0.426  -0.424  -0.417  -0.416  -0.413  -0.412  -0.410
 -0.408  -0.406  -0.404  -0.400  -0.398  -0.397  -0.395  -0.394
 -0.393  -0.392  -0.391  -0.388  -0.387  -0.385  -0.384  -0.383
 -0.382  -0.377  -0.371  -0.364  -0.364  -0.360  -0.359  -0.357
 -0.353  -0.351  -0.349  -0.345  -0.343  -0.343  -0.341  -0.340
 -0.337  -0.334  -0.333  -0.332  -0.330  -0.325  -0.320  -0.319
 -0.313  -0.312  -0.311  -0.305  -0.303  -0.299  -0.298  -0.297
 -0.296  -0.295  -0.291  -0.290  -0.287  -0.284  -0.282  -0.278
 -0.274  -0.267  -0.264  -0.262  -0.252  -0.252  -0.251  -0.247
 -0.244  -0.241  -0.231  -0.227  -0.194  -0.192

          Ground-State Mulliken Net Atomic Charges

     Atom                 Charge (a.u.)
  ----------------------------------------
      1 C                     0.268458
      2 C                    -0.140084
      3 N                    -0.458516
      4 C                    -0.088445
      5 C                     0.078485
      6 C                     0.047397
      7 C                     0.033004
      8 C                     0.044530
      9 C                     0.235184
     10 N                    -0.535648
     11 N                    -0.568410
     12 C                     0.187214
     13 C                     0.351284
     14 S                     0.580511
     15 N                    -0.549545
     16 C                    -0.222480
     17 S                     0.323254
     18 C                    -0.113816
     19 C                    -0.244055
     20 S                     0.297704
     21 C                     0.161138
     22 C                     0.052223
     23 C                    -0.308428
     24 C                    -0.046639
     25 N                    -0.418098
     26 S                     0.288683
     27 C                     0.114886
     28 C                    -0.307285
     29 C                    -0.247409
     30 H                     0.110925
     31 H                     0.119191
     32 H                     0.094767
     33 H                     0.117930
     34 H                     0.123309
     35 H                     0.122120
     36 H                     0.122919
     37 H                     0.128746
     38 H                     0.091835
     39 C                    -0.175549
     40 H                     0.121088
     41 H                     0.124285
     42 H                     0.097551
     43 C                    -0.192052
     44 H                     0.090236
     45 C                    -0.170607
     46 H                     0.081836
     47 H                     0.089502
     48 H                     0.094415
     49 C                    -0.163919
     50 H                     0.097698
     51 C                    -0.322595
     52 H                     0.097096
     53 H                     0.096018
     54 H                     0.102588
     55 H                     0.090231
     56 C                     0.289675
     57 C                    -0.106105
     58 N                    -0.493778
     59 C                    -0.088085
     60 C                     0.068402
     61 C                     0.039432
     62 C                     0.032377
     63 C                     0.049243
     64 C                     0.199414
     65 N                    -0.500247
     66 N                    -0.520317
     67 C                     0.256601
     68 C                     0.246150
     69 S                     0.620425
     70 N                    -0.569754
     71 C                    -0.229636
     72 S                     0.355677
     73 C                    -0.127836
     74 C                    -0.237334
     75 S                     0.274106
     76 C                     0.148714
     77 C                     0.066203
     78 C                    -0.305838
     79 C                    -0.063315
     80 N                    -0.421603
     81 S                     0.285637
     82 C                     0.121249
     83 C                    -0.323758
     84 C                    -0.227834
     85 H                     0.091012
     86 H                     0.113196
     87 H                     0.115615
     88 H                     0.110616
     89 H                     0.126987
     90 H                     0.115366
     91 H                     0.119464
     92 H                     0.133497
     93 H                     0.120971
     94 C                    -0.200759
     95 H                     0.112231
     96 H                     0.088673
     97 H                     0.094114
     98 C                    -0.187479
     99 H                     0.084990
    100 C                    -0.170622
    101 H                     0.111475
    102 H                     0.084396
    103 H                     0.106341
    104 C                    -0.191218
    105 H                     0.088060
    106 C                    -0.308994
    107 H                     0.084311
    108 H                     0.093844
    109 H                     0.116929
    110 H                     0.104456
  ----------------------------------------
  Sum of atomic charges =     0.000000

                    Cartesian Multipole Moments
 -----------------------------------------------------------------
    Charge (ESU x 10^10)
                 0.0000
    Dipole Moment (Debye)
         X      -2.4676      Y       3.5077      Z      -0.8830
       Tot       4.3787
    Quadrupole Moments (Debye-Ang)
        XX    -378.6995     XY      32.2353     YY    -412.2828
        XZ      -1.2059     YZ      -6.5453     ZZ    -458.7027

 Total job time:  100.24s(wall), 1107.47s(cpu)
        *  Thank you very much for using Q-Chem.  Have a nice day.  *
