 Q-Chem 4.4, Q-Chem, Inc., Pleasanton, CA (2016)
 Q-Chem 4.4.2 for Intel X86 Linux

User input:
--------------------------------------------------------------
$comment
SP
$end

$rem
MEM_STATIC 5000
MEM_TOTAL 20000
JOBTYPE SP
EXCHANGE B3LYP
BASIS 6-31g(d,p)
$end

$molecule
0 1
C          -9.140000    -15.171000     -6.285000
C          -8.504000    -14.271000     -5.417000
N         -10.400000    -15.603000     -6.088000
C          -9.174000    -13.898000     -4.257000
C         -11.018000    -15.238000     -4.990000
C         -10.449000    -14.439000     -3.964000
C         -11.166000    -14.062000     -2.702000
C         -10.454000    -13.907000     -1.436000
C         -12.541000    -13.732000     -2.651000
N         -11.043000    -13.654000     -0.209000
N         -13.276000    -13.451000     -3.722000
C         -13.113000    -13.287000     -1.382000
C         -12.375000    -13.328000     -0.221000
S         -14.686000    -12.972000     -3.048000
N         -14.390000    -12.897000     -1.435000
C         -13.040000    -13.204000      1.073000
S         -14.621000    -13.804000      1.376000
C         -12.344000    -12.885000      2.189000
C         -14.250000    -13.761000      3.138000
S         -10.780000    -12.099000      2.394000
C         -13.054000    -13.219000      3.369000
C         -15.250000    -14.133000      4.178000
C         -10.988000    -12.374000      4.167000
C         -12.218000    -12.913000      4.486000
N         -14.938000    -13.951000      5.431000
S         -16.882000    -14.761000      3.781000
C         -16.040000    -14.197000      6.227000
C         -17.128000    -14.705000      5.533000
C          -8.514000    -15.646000     -7.584000
H          -7.573000    -13.748000     -5.617000
H          -8.764000    -13.106000     -3.638000
H         -12.014000    -15.565000     -4.694000
H          -9.391000    -14.142000     -1.446000
H         -10.311000    -11.870000      4.844000
H         -12.598000    -13.136000      5.477000
H         -15.902000    -14.050000      7.290000
H         -18.091000    -15.055000      5.883000
H          -7.471000    -15.830000     -7.298000
C          -8.735000    -14.732000     -8.801000
H          -8.834000    -16.675000     -7.790000
H          -9.818000    -14.574000     -8.874000
H          -8.341000    -15.189000     -9.717000
C          -8.002000    -13.344000     -8.725000
H          -7.093000    -13.311000     -8.111000
C          -8.936000    -12.191000     -8.311000
H          -7.558000    -13.080000     -9.693000
H          -9.326000    -12.327000     -7.294000
H          -9.777000    -12.117000     -9.012000
C          -8.179000    -10.835000     -8.265000
H          -7.804000    -10.631000     -9.275000
C          -6.947000    -10.672000     -7.359000
H          -8.918000    -10.037000     -8.120000
H          -6.576000     -9.641000     -7.313000
H          -6.090000    -11.276000     -7.680000
H          -7.142000    -10.903000     -6.305000
C         -16.411000     -9.859000      3.066000
C         -16.907000     -8.613000      3.433000
N         -16.625000    -11.026000      3.742000
C         -17.757000     -8.556000      4.573000
C         -17.436000    -10.953000      4.831000
C         -17.988000     -9.737000      5.304000
C         -18.829000     -9.804000      6.495000
C         -19.883000     -8.846000      6.685000
C         -18.688000    -10.770000      7.597000
N         -20.691000     -8.799000      7.751000
N         -17.604000    -11.589000      7.696000
C         -19.520000    -10.699000      8.698000
C         -20.590000     -9.765000      8.715000
S         -17.819000    -12.336000      9.156000
N         -19.165000    -11.542000      9.710000
C         -21.494000     -9.659000      9.902000
S         -21.863000    -11.009000     11.041000
C         -22.207000     -8.584000     10.275000
C         -22.916000     -9.954000     12.033000
S         -22.421000     -7.091000      9.398000
C         -22.995000     -8.730000     11.389000
C         -23.373000    -10.188000     13.331000
C         -23.419000     -6.506000     10.693000
C         -23.617000     -7.461000     11.642000
N         -23.316000    -11.473000     13.756000
S         -23.710000     -9.079000     14.603000
C         -23.612000    -11.593000     15.078000
C         -24.047000    -10.453000     15.652000
C         -15.604000     -9.925000      1.814000
H         -16.646000     -7.688000      2.928000
H         -18.142000     -7.607000      4.934000
H         -17.655000    -11.906000      5.310000
H         -19.986000     -8.073000      5.924000
H         -23.736000     -5.472000     10.735000
H         -24.193000     -7.276000     12.541000
H         -23.702000    -12.553000     15.568000
H         -24.304000    -10.319000     16.694000
H         -15.243000     -8.918000      1.572000
C         -16.345000    -10.510000      0.599000
H         -14.654000    -10.453000      1.960000
H         -16.847000    -11.465000      0.796000
H         -15.610000    -10.657000     -0.202000
C         -17.298000     -9.467000     -0.056000
H         -18.137000     -9.281000      0.626000
C         -17.856000     -9.848000     -1.482000
H         -16.799000     -8.494000     -0.141000
H         -18.714000     -9.233000     -1.779000
H         -18.188000    -10.882000     -1.327000
C         -17.004000     -9.782000     -2.680000
H         -16.728000     -8.726000     -2.790000
C         -17.714000    -10.215000     -3.888000
H         -16.068000    -10.336000     -2.534000
H         -18.701000     -9.760000     -4.037000
H         -17.900000    -11.296000     -3.876000
H         -17.236000     -9.968000     -4.844000
$end

--------------------------------------------------------------

             Standard Nuclear Orientation (Angstroms)
    I     Atom           X                Y                Z
 ----------------------------------------------------------------
    1      C     -12.0927996797    -1.0348248817     0.8716348868
    2      C     -11.6009704381    -1.1980297990    -0.4319709401
    3      N     -11.2916899637    -0.7828443974     1.9241376461
    4      C     -10.2224804164    -1.1996569297    -0.6147046603
    5      C      -9.9940100813    -0.7845756239     1.7323645368
    6      C      -9.3552139356    -1.0641214453     0.4959861085
    7      C      -7.8674280814    -1.0916862390     0.3099876289
    8      C      -7.2322786735    -2.0089064890    -0.6328894801
    9      C      -6.9824116865    -0.1846344475     0.9393754490
   10      N      -5.8676705706    -2.1689009833    -0.8023164180
   11      N      -7.3708122298     0.9409643904     1.5296290166
   12      C      -5.5597976772    -0.2440961240     0.6104321566
   13      C      -5.0584138244    -1.2540687634    -0.1787544500
   14      S      -5.9401521006     1.6447910920     1.8897075757
   15      N      -4.8034637210     0.7073485926     1.1657247802
   16      C      -3.6195828974    -1.4977074276    -0.2281787828
   17      S      -2.5799387890    -1.2500172940     1.1168713001
   18      C      -3.0663908786    -2.2169781080    -1.2323009262
   19      C      -1.3723847306    -2.3251753703     0.3231570523
   20      S      -3.6562608447    -2.5922921683    -2.8500492933
   21      C      -1.7744548930    -2.6909780461    -0.8942455051
   22      C      -0.0336822759    -2.6031672247     0.9152552424
   23      C      -2.1655011507    -3.5919955474    -3.0516595328
   24      C      -1.3027565924    -3.4917515494    -1.9789037507
   25      N       0.8243793131    -3.2891878790     0.2127006385
   26      S       0.4692211455    -1.9854426679     2.5217799140
   27      C       2.0481959475    -3.3021436247     0.8535133990
   28      C       2.0235897763    -2.7287417402     2.1160698592
   29      C     -13.5756280231    -1.0081036950     1.1963009957
   30      H     -12.2003658925    -1.2168776975    -1.3378737197
   31      H      -9.8202120923    -1.1910960795    -1.6229863209
   32      H      -9.2457782560    -0.6482218411     2.5121836065
   33      H      -7.8893267317    -2.7116610333    -1.1425147343
   34      H      -1.9204031236    -3.9476194443    -4.0436941093
   35      H      -0.3311180070    -3.9619787271    -1.8739520441
   36      H       2.8472148693    -3.8239370969     0.3436876101
   37      H       2.7921568825    -2.6530790406     2.8749827391
   38      H     -13.9750153387    -1.8191893443     0.5749067234
   39      C     -14.2623860465     0.3605273539     1.0529885073
   40      H     -13.7404275597    -1.4388991797     2.1917573549
   41      H     -13.6740802739     1.0640491997     1.6547653183
   42      H     -15.3025695136     0.3204863563     1.3987573222
   43      C     -14.3740294082     0.8910470833    -0.4220347388
   44      H     -14.3955294741     0.1270739517    -1.2095934993
   45      C     -13.3040899410     1.9445633943    -0.7662641955
   46      H     -15.3565301475     1.3443734827    -0.6038133762
   47      H     -12.2904687233     1.5253959921    -0.7243629284
   48      H     -13.3721711498     2.7916517590    -0.0720277435
   49      C     -13.4591620576     2.4564296455    -2.2249782112
   50      H     -14.4465395808     2.9261121049    -2.3075918534
   51      C     -13.4081626929     1.4634548810    -3.3982766311
   52      H     -12.7791687458     3.3066277088    -2.3618078464
   53      H     -13.4003554155     1.9522905124    -4.3799572165
   54      H     -14.2621852550     0.7761431513    -3.4218148927
   55      H     -12.4931606087     0.8598188968    -3.4246733050
   56      C       0.4968845861     1.4887839042    -1.0407549222
   57      C       1.2954126009     2.4045453147    -1.7167394255
   58      N       0.9537874317     0.4519625439    -0.2785854813
   59      C       2.7046552161     2.2902936795    -1.5544716978
   60      C       2.3027197601     0.3549831287    -0.1373496278
   61      C       3.2128587559     1.2241600917    -0.7879396795
   62      C       4.6358259370     0.9941903840    -0.5587468894
   63      C       5.5602389555     2.0925272104    -0.6211711402
   64      C       5.2669162543    -0.3091148002    -0.2931125391
   65      N       6.8844144389     1.9881777778    -0.4565519280
   66      N       4.5816002201    -1.4778376766    -0.4346991607
   67      C       6.6371076672    -0.4028636549    -0.1406243609
   68      C       7.4277789043     0.7770145417    -0.1241490499
   69      S       5.7418107555    -2.6338704976    -0.2037584097
   70      N       7.0956347984    -1.6857774888    -0.0720461945
   71      C       8.9142289221     0.6996602842     0.0238498130
   72      S       9.7982262511    -0.6222612061     0.8765246020
   73      C       9.8112087331     1.6073555704    -0.3940490814
   74      C      11.3819219492     0.1260186431     0.5051983263
   75      S       9.4956186760     3.1913589645    -1.0538294718
   76      C      11.1281782691     1.3360770997    -0.1197222097
   77      C      12.6416025227    -0.4712048112     0.5754692193
   78      C      11.2072988317     3.4334066295    -1.2175914095
   79      C      11.9114281388     2.3915354306    -0.6974603454
   80      N      12.7216081551    -1.5980418326     1.3230897287
   81      S      14.0501588957    -0.2000087783    -0.3752440161
   82      C      13.9287586631    -2.2128159082     1.2025057870
   83      C      14.8394978841    -1.5081395379     0.5008746272
   84      C      -0.9791327311     1.6771008334    -1.1357213025
   85      H       0.9057441924     3.1633195658    -2.3884470756
   86      H       3.3822629736     2.9492559522    -2.0890401688
   87      H       2.6425900442    -0.4310590826     0.5351359349
   88      H       5.1464400576     3.0677413162    -0.8760964625
   89      H      11.6055199697     4.2807350375    -1.7606047559
   90      H      12.9937171582     2.3484618772    -0.7290379863
   91      H      14.2024975750    -3.0757834227     1.7942439699
   92      H      15.8450651433    -1.8244661459     0.2589222263
   93      H      -1.2006450984     2.3040031899    -2.0079940273
   94      C      -1.6331360497     2.2892960800     0.1152893447
   95      H      -1.4985986275     0.7516738000    -1.4120182229
   96      H      -1.3578966533     1.7938430765     1.0542289572
   97      H      -2.7209997680     2.2256090535    -0.0109306739
   98      C      -1.4284491893     3.8316790762     0.1804121696
   99      H      -0.3696010896     4.0372451905     0.3809720718
  100      C      -2.3198907343     4.5982508818     1.2328857506
  101      H      -1.6090351612     4.2829037408    -0.8028172079
  102      H      -1.9585501439     5.6139565751     1.4338158933
  103      H      -2.1894510106     3.9830814442     2.1317500570
  104      C      -3.7549292680     4.8255009430     0.9994637798
  105      H      -3.8134117645     5.4612041365     0.1073464964
  106      C      -4.3940678139     5.5218573579     2.1208212887
  107      H      -4.2710091523     3.8895370003     0.7505440117
  108      H      -3.8688174379     6.4180665534     2.4734062012
  109      H      -4.4699696277     4.8735351395     3.0024210934
  110      H      -5.3893948186     5.9398460091     1.9257863142
 ----------------------------------------------------------------

   10   -5663.5153064495      6.67E-06 Convergence criterion met
 Total energy in the final basis set = -5663.5153064495

                    Orbital Energies (a.u.)
 --------------------------------------------------------------

 Alpha MOs
 -- Occupied --
-88.991 -88.985 -88.928 -88.922 -88.921 -88.920 -88.906 -88.904
-14.396 -14.393 -14.390 -14.390 -14.357 -14.354 -14.338 -14.335
-14.333 -14.330 -10.268 -10.267 -10.264 -10.262 -10.261 -10.259
-10.255 -10.254 -10.246 -10.242 -10.240 -10.239 -10.234 -10.231
-10.231 -10.230 -10.229 -10.228 -10.228 -10.226 -10.226 -10.225
-10.225 -10.224 -10.224 -10.223 -10.221 -10.221 -10.217 -10.215
-10.214 -10.210 -10.206 -10.202 -10.200 -10.200 -10.199 -10.193
-10.186 -10.183 -10.179 -10.178 -10.178 -10.177 -10.176 -10.176
-10.176 -10.171 -10.171 -10.169  -8.046  -8.041  -7.989  -7.981
 -7.980  -7.979  -7.966  -7.964  -6.011  -6.006  -6.006  -6.004
 -6.000  -5.999  -5.953  -5.950  -5.946  -5.945  -5.944  -5.944
 -5.942  -5.941  -5.940  -5.938  -5.936  -5.936  -5.931  -5.928
 -5.927  -5.925  -5.923  -5.920  -1.046  -1.033  -0.966  -0.964
 -0.955  -0.948  -0.947  -0.933  -0.925  -0.917  -0.908  -0.903
 -0.846  -0.837  -0.832  -0.829  -0.811  -0.809  -0.805  -0.803
 -0.802  -0.798  -0.797  -0.793  -0.793  -0.782  -0.769  -0.762
 -0.752  -0.743  -0.739  -0.735  -0.726  -0.723  -0.711  -0.708
 -0.694  -0.691  -0.677  -0.669  -0.659  -0.658  -0.647  -0.646
 -0.638  -0.634  -0.626  -0.625  -0.617  -0.614  -0.600  -0.597
 -0.596  -0.590  -0.583  -0.582  -0.577  -0.575  -0.564  -0.559
 -0.548  -0.542  -0.541  -0.535  -0.524  -0.520  -0.515  -0.511
 -0.509  -0.509  -0.498  -0.498  -0.486  -0.483  -0.477  -0.474
 -0.473  -0.471  -0.470  -0.468  -0.467  -0.459  -0.453  -0.447
 -0.445  -0.441  -0.441  -0.438  -0.436  -0.435  -0.434  -0.432
 -0.429  -0.424  -0.423  -0.421  -0.417  -0.413  -0.412  -0.410
 -0.408  -0.407  -0.405  -0.404  -0.400  -0.399  -0.396  -0.393
 -0.393  -0.392  -0.390  -0.389  -0.387  -0.384  -0.382  -0.382
 -0.378  -0.376  -0.374  -0.372  -0.364  -0.361  -0.361  -0.358
 -0.354  -0.352  -0.351  -0.348  -0.347  -0.346  -0.344  -0.341
 -0.339  -0.336  -0.334  -0.331  -0.329  -0.328  -0.327  -0.321
 -0.321  -0.316  -0.310  -0.306  -0.302  -0.302  -0.301  -0.298
 -0.297  -0.292  -0.288  -0.287  -0.286  -0.285  -0.281  -0.279
 -0.279  -0.274  -0.270  -0.266  -0.257  -0.254  -0.252  -0.247
 -0.243  -0.241  -0.231  -0.231  -0.194  -0.191

          Ground-State Mulliken Net Atomic Charges

     Atom                 Charge (a.u.)
  ----------------------------------------
      1 C                     0.247648
      2 C                    -0.106897
      3 N                    -0.477033
      4 C                    -0.087777
      5 C                     0.116705
      6 C                     0.036461
      7 C                     0.003259
      8 C                     0.057960
      9 C                     0.195464
     10 N                    -0.498790
     11 N                    -0.499385
     12 C                     0.189739
     13 C                     0.268099
     14 S                     0.597972
     15 N                    -0.545141
     16 C                    -0.216596
     17 S                     0.321431
     18 C                    -0.114083
     19 C                    -0.255750
     20 S                     0.259530
     21 C                     0.204479
     22 C                     0.108419
     23 C                    -0.304764
     24 C                    -0.053746
     25 N                    -0.445323
     26 S                     0.256266
     27 C                     0.150528
     28 C                    -0.327053
     29 C                    -0.218252
     30 H                     0.102023
     31 H                     0.100038
     32 H                     0.101938
     33 H                     0.114081
     34 H                     0.129206
     35 H                     0.124265
     36 H                     0.105927
     37 H                     0.128869
     38 H                     0.092376
     39 C                    -0.177544
     40 H                     0.113749
     41 H                     0.116291
     42 H                     0.097369
     43 C                    -0.182541
     44 H                     0.090616
     45 C                    -0.174576
     46 H                     0.088462
     47 H                     0.101278
     48 H                     0.094462
     49 C                    -0.182656
     50 H                     0.090227
     51 C                    -0.322733
     52 H                     0.089485
     53 H                     0.104415
     54 H                     0.104000
     55 H                     0.095563
     56 C                     0.287876
     57 C                    -0.114677
     58 N                    -0.496011
     59 C                    -0.088905
     60 C                     0.092403
     61 C                     0.053435
     62 C                     0.029155
     63 C                     0.065649
     64 C                     0.200332
     65 N                    -0.516174
     66 N                    -0.538740
     67 C                     0.223139
     68 C                     0.279208
     69 S                     0.599238
     70 N                    -0.554420
     71 C                    -0.228571
     72 S                     0.344263
     73 C                    -0.113639
     74 C                    -0.210268
     75 S                     0.287299
     76 C                     0.154271
     77 C                     0.043613
     78 C                    -0.300840
     79 C                    -0.086731
     80 N                    -0.437355
     81 S                     0.271673
     82 C                     0.126187
     83 C                    -0.300370
     84 C                    -0.240577
     85 H                     0.100476
     86 H                     0.101996
     87 H                     0.127678
     88 H                     0.107966
     89 H                     0.131992
     90 H                     0.102804
     91 H                     0.116709
     92 H                     0.128612
     93 H                     0.089935
     94 C                    -0.170787
     95 H                     0.122556
     96 H                     0.114863
     97 H                     0.109691
     98 C                    -0.193192
     99 H                     0.091951
    100 C                    -0.164868
    101 H                     0.077762
    102 H                     0.084952
    103 H                     0.085045
    104 C                    -0.168291
    105 H                     0.088709
    106 C                    -0.315443
    107 H                     0.092411
    108 H                     0.098898
    109 H                     0.101095
    110 H                     0.098057
  ----------------------------------------
  Sum of atomic charges =     0.000000

                    Cartesian Multipole Moments
 -----------------------------------------------------------------
    Charge (ESU x 10^10)
                 0.0000
    Dipole Moment (Debye)
         X       1.8378      Y       1.4239      Z      -2.8274
       Tot       3.6605
    Quadrupole Moments (Debye-Ang)
        XX    -382.8828     XY      -7.4024     YY    -437.4339
        XZ       7.2523     YZ      -5.0513     ZZ    -441.7246

 Total job time:  103.90s(wall), 1142.34s(cpu)
        *  Thank you very much for using Q-Chem.  Have a nice day.  *
