 Q-Chem 4.4, Q-Chem, Inc., Pleasanton, CA (2016)
 Q-Chem 4.4.2 for Intel X86 Linux

User input:
--------------------------------------------------------------
$comment
SP
$end

$rem
MEM_STATIC 5000
MEM_TOTAL 20000
JOBTYPE SP
EXCHANGE B3LYP
BASIS 6-31g(d,p)
$end

$molecule
0 1
C          23.084000     21.687000     -1.982000
C          23.206000     22.753000     -1.063000
N          21.850000     21.195000     -2.160000
C          22.077000     23.296000     -0.370000
C          20.795000     21.737000     -1.551000
C          20.793000     22.762000     -0.657000
C          19.594000     23.551000     -0.257000
C          19.518000     24.957000     -0.331000
C          18.468000     22.863000      0.309000
N          18.491000     25.678000      0.038000
N          18.381000     21.546000      0.546000
C          17.307000     23.655000      0.687000
C          17.406000     25.046000      0.594000
S          16.892000     21.414000      1.209000
N          16.295000     22.937000      1.219000
C          16.196000     25.808000      0.891000
S          14.534000     25.295000      0.762000
C          16.204000     27.103000      1.401000
C          13.872000     26.876000      1.292000
S          17.596000     28.083000      1.714000
C          14.932000     27.667000      1.598000
C          12.487000     27.286000      1.109000
C          16.432000     29.422000      1.863000
C          15.086000     29.038000      1.978000
N          12.231000     28.600000      1.209000
S          11.237000     26.220000      0.514000
C          10.957000     28.787000      0.662000
C          10.228000     27.600000      0.357000
C          24.317000     21.126000     -2.727000
H          24.202000     23.142000     -0.877000
H          22.210000     24.176000      0.251000
H          19.812000     21.454000     -1.923000
H          20.368000     25.478000     -0.769000
H          16.884000     30.403000      1.920000
H          14.209000     29.639000      2.192000
H          10.567000     29.796000      0.687000
H           9.174000     27.495000      0.137000
H          24.039000     20.822000     -3.744000
C          24.781000     19.836000     -1.930000
H          25.152000     21.837000     -2.698000
H          23.915000     19.187000     -1.748000
H          24.918000     20.230000     -0.915000
C          25.996000     19.139000     -2.631000
H          26.581000     19.963000     -3.056000
C          25.706000     18.145000     -3.788000
H          26.604000     18.513000     -1.966000
H          25.004000     17.370000     -3.455000
H          26.661000     17.640000     -3.975000
C          25.097000     18.675000     -5.102000
H          24.001000     18.702000     -5.072000
C          25.276000     17.602000     -6.215000
H          25.479000     19.680000     -5.321000
H          24.727000     17.901000     -7.116000
H          24.969000     16.582000     -5.949000
H          26.320000     17.600000     -6.552000
C          27.431000     30.342000      1.328000
C          26.153000     30.439000      1.857000
N          27.708000     29.654000      0.215000
C          25.130000     29.794000      1.136000
C          26.771000     29.023000     -0.428000
C          25.419000     29.025000     -0.009000
C          24.352000     28.249000     -0.714000
C          24.734000     27.131000     -1.427000
C          22.906000     28.564000     -0.816000
N          23.971000     26.368000     -2.201000
N          22.200000     29.444000     -0.080000
C          22.110000     27.754000     -1.613000
C          22.676000     26.679000     -2.398000
S          20.703000     29.213000     -0.460000
N          20.770000     27.944000     -1.435000
C          21.964000     25.787000     -3.343000
S          20.225000     25.552000     -3.656000
C          22.605000     24.793000     -4.042000
C          20.425000     24.188000     -4.665000
S          24.319000     24.527000     -4.364000
C          21.785000     23.936000     -4.826000
C          19.410000     23.690000     -5.485000
C          23.879000     23.138000     -5.363000
C          22.543000     23.000000     -5.565000
N          18.503000     24.606000     -5.867000
S          19.402000     22.112000     -6.130000
C          17.712000     24.012000     -6.811000
C          18.141000     22.760000     -7.166000
C          28.506000     31.039000      2.159000
H          26.000000     30.963000      2.796000
H          24.143000     29.905000      1.576000
H          27.119000     28.461000     -1.294000
H          25.760000     26.789000     -1.297000
H          24.602000     22.530000     -5.891000
H          22.122000     22.193000     -6.154000
H          16.953000     24.566000     -7.347000
H          17.778000     22.144000     -7.979000
H          29.022000     31.696000      1.447000
C          29.665000     30.136000      2.777000
H          28.227000     31.729000      2.965000
H          30.240000     29.655000      1.975000
H          29.223000     29.305000      3.339000
C          30.632000     30.994000      3.684000
H          31.295000     31.662000      3.120000
C          31.573000     30.159000      4.501000
H          30.149000     31.576000      4.479000
H          32.272000     29.546000      3.919000
H          31.061000     29.547000      5.254000
C          32.539000     30.916000      5.449000
H          33.479000     30.361000      5.553000
C          31.970000     31.046000      6.913000
H          32.745000     31.896000      5.000000
H          32.671000     31.668000      7.484000
H          31.873000     30.042000      7.343000
H          30.990000     31.540000      6.921000
$end

--------------------------------------------------------------

             Standard Nuclear Orientation (Angstroms)
    I     Atom           X                Y                Z
 ----------------------------------------------------------------
    1      C      -0.9244291087    -4.0797488141    -1.6691937048
    2      C      -1.4103263797    -2.7539390634    -1.7131635473
    3      N       0.4002573654    -4.2313232440    -1.8060693323
    4      C      -0.5413645106    -1.6278045553    -1.8758452609
    5      C       1.2101766128    -3.1769781543    -1.9063551466
    6      C       0.8565515801    -1.8644934387    -1.9532401936
    7      C       1.7808786840    -0.7170648908    -1.7315441572
    8      C       1.5539480460     0.3033372019    -0.7853042011
    9      C       2.9374652254    -0.5855257244    -2.5721278948
   10      N       2.3318826039     1.3359907476    -0.5873762388
   11      N       3.2784319086    -1.3967654249    -3.5839870101
   12      C       3.8276488972     0.5406413589    -2.3325663561
   13      C       3.4379822195     1.4922836366    -1.3860633948
   14      S       4.6482099352    -0.6967368078    -4.1387681320
   15      N       4.8858152487     0.5990507823    -3.1689659686
   16      C       4.3937403493     2.5592095431    -1.1011976242
   17      S       6.1288235503     2.5344447713    -1.2770583415
   18      C       4.0261318690     3.8339199243    -0.6802861739
   19      C       6.3413229504     4.2100280321    -0.6721040116
   20      S       2.4216754547     4.3900310005    -0.3448862847
   21      C       5.0998920897     4.7083617652    -0.4409549070
   22      C       7.6129177042     4.7660136721    -0.2319440973
   23      C       3.2268141393     5.7831613165     0.4173194758
   24      C       4.5934005985     5.9213979435     0.1245241814
   25      N       7.5548580309     5.8721520844     0.5264877633
   26      S       9.1400874953     3.9353455144    -0.4069407854
   27      C       8.8211838641     6.0094028392     1.1051371515
   28      C       9.8307779685     5.1302335464     0.6139995954
   29      C      -1.8822241243    -5.2785247026    -1.4805138775
   30      H      -2.4838325781    -2.6116143044    -1.6406300730
   31      H      -0.9537756315    -0.6263993081    -1.8063139851
   32      H       2.2745224452    -3.3581752683    -1.7681612433
   33      H       0.6820440651     0.1986619760    -0.1414008348
   34      H       2.5657036757     6.4293552532     0.9788177849
   35      H       5.2755394465     6.7301561388     0.3626896145
   36      H       8.9706283066     6.8777180732     1.7332303078
   37      H      10.9023289882     5.1935034994     0.7485964947
   38      H      -1.4002292129    -6.0567674684    -0.8755278421
   39      C      -2.1594250007    -5.8700976945    -2.9254381209
   40      H      -2.8490074872    -4.9509028748    -1.0785426508
   41      H      -1.2068736299    -6.0137816161    -3.4510632884
   42      H      -2.5250345037    -4.9891307261    -3.4680769438
   43      C      -3.0761292960    -7.1382794897    -2.8561332191
   44      H      -3.7613091346    -6.9400182851    -2.0236387245
   45      C      -2.4097970149    -8.5127153976    -2.5773640921
   46      H      -3.6200183170    -7.3548115766    -3.7840683397
   47      H      -1.6093378206    -8.7003647589    -3.3042552775
   48      H      -3.1922901496    -9.2539328817    -2.7781628356
   49      C      -1.7501408729    -8.7662110259    -1.2066085557
   50      H      -0.7033140285    -8.4400734250    -1.1814525759
   51      C      -1.5250472586   -10.2954492399    -1.0252185073
   52      H      -2.3092470553    -8.2534230317    -0.4139177270
   53      H      -0.9317298688   -10.4827041593    -0.1221608845
   54      H      -1.0417403539   -10.8101913615    -1.8659681633
   55      H      -2.4829827970   -10.7780250283    -0.7950248655
   56      C      -7.5083289030     3.2523737892     1.0973520890
   57      C      -6.3733838801     3.9850307349     0.7848659373
   58      N      -7.4628928532     1.9838238615     1.5187291723
   59      C      -5.1400893455     3.3305397970     0.9665833094
   60      C      -6.3268897383     1.3651181350     1.6463189331
   61      C      -5.0837025231     1.9789168815     1.3613528884
   62      C      -3.7813080638     1.2483537807     1.4493087202
   63      C      -3.7997359244    -0.1217924147     1.2862847431
   64      C      -2.4415488334     1.7994581394     1.7684860854
   65      N      -2.7834840502    -0.9648681625     1.4272436434
   66      N      -2.0613019047     3.0917139655     1.7728624897
   67      C      -1.3797583775     0.9159427272     1.8985881386
   68      C      -1.5747867137    -0.5147520038     1.8132503692
   69      S      -0.5115337887     3.0791681028     1.9647775432
   70      N      -0.1549693617     1.5183292717     1.9187454590
   71      C      -0.5545452118    -1.5722721452     2.0040157445
   72      S       1.2198629740    -1.4831095004     2.1483785262
   73      C      -0.8522241141    -2.9095362224     1.9009135666
   74      C       1.4740544197    -3.1704182768     2.0649950609
   75      S      -2.4001787088    -3.7551078929     1.9337939986
   76      C       0.2412336022    -3.8137275311     1.9919811233
   77      C       2.6814011554    -3.7784990169     2.4159661044
   78      C      -1.5246029665    -5.2869186388     1.8452222289
   79      C      -0.1763531372    -5.1631320724     1.9531262778
   80      N       3.4087536549    -3.0938372897     3.3158692440
   81      S       3.1310531514    -5.3467069697     1.9212844904
   82      C       4.4391529056    -3.9083261539     3.6960511403
   83      C       4.3534058941    -5.1704637687     3.1695284996
   84      C      -8.8191375607     3.9995080429     0.8616275252
   85      H      -6.4770688646     4.9920988245     0.3914586588
   86      H      -4.2760855205     3.9425475078     0.7236142737
   87      H      -6.4134102253     0.3234749566     1.9535610105
   88      H      -4.7324600599    -0.5655565294     0.9403958916
   89      H      -2.0113833130    -6.2534553545     1.8505768040
   90      H       0.4930859669    -6.0149872626     1.9130635665
   91      H       5.1260072530    -3.6264467125     4.4828599391
   92      H       4.9569640261    -6.0331226393     3.4219789983
   93      H      -9.3594564214     3.9152533606     1.8133657651
   94      C      -9.8264528389     3.4034322681    -0.2203260787
   95      H      -8.8188227907     5.0813887594     0.6796631987
   96      H     -10.1590601411     2.4018104875     0.0818596111
   97      H      -9.2974056217     3.2466374592    -1.1675818149
   98      C     -11.0796517486     4.3453871862    -0.4103666668
   99      H     -11.7855276323     4.3217001933     0.4293161085
  100      C     -11.9204288449     3.9794104285    -1.5975270970
  101      H     -10.8571055558     5.3936989651    -0.6460647919
  102      H     -12.3751690311     2.9822639344    -1.5527584434
  103      H     -11.3998302832     4.1212899605    -2.5527989620
  104      C     -13.1562409015     4.8716913491    -1.8830307215
  105      H     -13.9551668735     4.2760629486    -2.3406168880
  106      C     -12.8472540557     6.0174904624    -2.9201558446
  107      H     -13.5069000102     5.2707100171    -0.9226874015
  108      H     -13.7432572722     6.6471813606    -2.9908213153
  109      H     -12.5936819945     5.5603366074    -3.8840212723
  110      H     -12.0124066636     6.6470722579    -2.5867542930
 ----------------------------------------------------------------

   10   -5663.4947766505      5.99E-06 Convergence criterion met
 Total energy in the final basis set = -5663.4947766505

                    Orbital Energies (a.u.)
 --------------------------------------------------------------

 Alpha MOs
 -- Occupied --
-88.987 -88.985 -88.933 -88.929 -88.918 -88.918 -88.907 -88.907
-14.392 -14.386 -14.384 -14.380 -14.347 -14.347 -14.346 -14.342
-14.327 -14.321 -10.270 -10.267 -10.262 -10.260 -10.258 -10.256
-10.255 -10.253 -10.238 -10.236 -10.235 -10.235 -10.232 -10.231
-10.231 -10.231 -10.229 -10.228 -10.228 -10.227 -10.226 -10.226
-10.226 -10.226 -10.223 -10.220 -10.218 -10.217 -10.215 -10.208
-10.207 -10.206 -10.204 -10.202 -10.197 -10.195 -10.194 -10.193
-10.187 -10.187 -10.187 -10.183 -10.182 -10.181 -10.181 -10.177
-10.177 -10.175 -10.174 -10.170  -8.044  -8.041  -7.995  -7.991
 -7.977  -7.977  -7.967  -7.966  -6.009  -6.006  -6.003  -6.002
 -6.000  -5.998  -5.958  -5.955  -5.954  -5.952  -5.951  -5.948
 -5.942  -5.942  -5.938  -5.937  -5.934  -5.934  -5.932  -5.931
 -5.929  -5.927  -5.923  -5.923  -1.056  -1.038  -0.973  -0.961
 -0.961  -0.957  -0.951  -0.935  -0.917  -0.912  -0.909  -0.908
 -0.845  -0.840  -0.831  -0.827  -0.816  -0.813  -0.808  -0.807
 -0.804  -0.799  -0.798  -0.790  -0.787  -0.777  -0.766  -0.758
 -0.747  -0.744  -0.739  -0.738  -0.720  -0.714  -0.711  -0.707
 -0.694  -0.692  -0.673  -0.671  -0.650  -0.650  -0.648  -0.640
 -0.633  -0.632  -0.628  -0.620  -0.611  -0.608  -0.600  -0.594
 -0.593  -0.589  -0.584  -0.583  -0.578  -0.577  -0.562  -0.560
 -0.550  -0.545  -0.541  -0.537  -0.526  -0.521  -0.520  -0.511
 -0.507  -0.504  -0.501  -0.497  -0.489  -0.486  -0.480  -0.474
 -0.473  -0.468  -0.467  -0.466  -0.462  -0.459  -0.448  -0.443
 -0.441  -0.441  -0.438  -0.436  -0.434  -0.433  -0.431  -0.429
 -0.428  -0.426  -0.422  -0.420  -0.417  -0.416  -0.414  -0.412
 -0.407  -0.406  -0.405  -0.402  -0.398  -0.395  -0.395  -0.393
 -0.391  -0.391  -0.390  -0.386  -0.385  -0.385  -0.383  -0.381
 -0.380  -0.377  -0.374  -0.373  -0.366  -0.363  -0.360  -0.356
 -0.353  -0.352  -0.350  -0.349  -0.346  -0.345  -0.342  -0.340
 -0.336  -0.334  -0.332  -0.331  -0.328  -0.326  -0.320  -0.320
 -0.317  -0.316  -0.309  -0.308  -0.306  -0.303  -0.300  -0.300
 -0.298  -0.295  -0.293  -0.292  -0.290  -0.288  -0.285  -0.278
 -0.272  -0.271  -0.268  -0.260  -0.249  -0.247  -0.247  -0.242
 -0.241  -0.236  -0.231  -0.227  -0.194  -0.190

          Ground-State Mulliken Net Atomic Charges

     Atom                 Charge (a.u.)
  ----------------------------------------
      1 C                     0.282372
      2 C                    -0.117734
      3 N                    -0.499866
      4 C                    -0.093817
      5 C                     0.091010
      6 C                     0.057305
      7 C                     0.004490
      8 C                     0.100936
      9 C                     0.214084
     10 N                    -0.494402
     11 N                    -0.532867
     12 C                     0.201241
     13 C                     0.252861
     14 S                     0.599569
     15 N                    -0.542526
     16 C                    -0.198947
     17 S                     0.312319
     18 C                    -0.129177
     19 C                    -0.259649
     20 S                     0.269022
     21 C                     0.183479
     22 C                     0.066248
     23 C                    -0.308475
     24 C                    -0.055287
     25 N                    -0.432699
     26 S                     0.292023
     27 C                     0.105201
     28 C                    -0.311994
     29 C                    -0.218299
     30 H                     0.087162
     31 H                     0.098853
     32 H                     0.094928
     33 H                     0.108594
     34 H                     0.124951
     35 H                     0.129207
     36 H                     0.112026
     37 H                     0.138961
     38 H                     0.123902
     39 C                    -0.187170
     40 H                     0.108397
     41 H                     0.111183
     42 H                     0.092025
     43 C                    -0.185585
     44 H                     0.088989
     45 C                    -0.165975
     46 H                     0.093136
     47 H                     0.095180
     48 H                     0.091330
     49 C                    -0.180161
     50 H                     0.108669
     51 C                    -0.327509
     52 H                     0.087189
     53 H                     0.094395
     54 H                     0.108871
     55 H                     0.101330
     56 C                     0.286201
     57 C                    -0.110932
     58 N                    -0.485090
     59 C                    -0.088801
     60 C                     0.076757
     61 C                     0.027765
     62 C                     0.057165
     63 C                     0.043328
     64 C                     0.215539
     65 N                    -0.523825
     66 N                    -0.522068
     67 C                     0.149326
     68 C                     0.296852
     69 S                     0.625514
     70 N                    -0.524378
     71 C                    -0.238353
     72 S                     0.356711
     73 C                    -0.110741
     74 C                    -0.225253
     75 S                     0.278298
     76 C                     0.143852
     77 C                     0.051087
     78 C                    -0.314988
     79 C                    -0.057735
     80 N                    -0.417746
     81 S                     0.292631
     82 C                     0.129701
     83 C                    -0.303859
     84 C                    -0.241176
     85 H                     0.095579
     86 H                     0.116540
     87 H                     0.103034
     88 H                     0.107914
     89 H                     0.122899
     90 H                     0.109820
     91 H                     0.117959
     92 H                     0.123892
     93 H                     0.115795
     94 C                    -0.174609
     95 H                     0.100672
     96 H                     0.115104
     97 H                     0.096486
     98 C                    -0.174431
     99 H                     0.097139
    100 C                    -0.174466
    101 H                     0.091314
    102 H                     0.087496
    103 H                     0.087489
    104 C                    -0.188392
    105 H                     0.094249
    106 C                    -0.324353
    107 H                     0.086996
    108 H                     0.102297
    109 H                     0.106603
    110 H                     0.101890
  ----------------------------------------
  Sum of atomic charges =     0.000000

                    Cartesian Multipole Moments
 -----------------------------------------------------------------
    Charge (ESU x 10^10)
                 0.0000
    Dipole Moment (Debye)
         X       1.5381      Y      -0.4232      Z       0.1872
       Tot       1.6062
    Quadrupole Moments (Debye-Ang)
        XX    -407.4852     XY      -6.4768     YY    -409.0841
        XZ      16.3128     YZ      -2.8121     ZZ    -450.8823

 Total job time:  109.23s(wall), 1191.98s(cpu)
        *  Thank you very much for using Q-Chem.  Have a nice day.  *
