 Q-Chem 4.4, Q-Chem, Inc., Pleasanton, CA (2016)
 Q-Chem 4.4.2 for Intel X86 Linux

User input:
--------------------------------------------------------------
$comment
SP
$end

$rem
MEM_STATIC 5000
MEM_TOTAL 20000
JOBTYPE SP
EXCHANGE B3LYP
BASIS 6-31g(d,p)
$end

$molecule
0 1
C          27.952000     25.571000      3.414000
C          27.599000     24.604000      4.397000
N          27.133000     26.535000      2.951000
C          26.241000     24.589000      4.845000
C          25.829000     26.450000      3.314000
C          25.272000     25.424000      4.210000
C          23.851000     25.504000      4.519000
C          23.331000     25.193000      5.803000
C          22.794000     25.886000      3.576000
N          22.036000     25.238000      6.171000
N          23.099000     26.218000      2.379000
C          21.485000     26.022000      3.990000
C          21.093000     25.624000      5.324000
S          21.721000     26.751000      1.886000
N          20.707000     26.554000      3.102000
C          19.729000     25.628000      5.836000
S          18.209000     26.356000      5.031000
C          19.274000     24.953000      6.961000
C          17.118000     25.600000      6.238000
S          20.139000     23.926000      8.091000
C          17.860000     24.970000      7.172000
C          15.687000     25.774000      6.201000
C          18.598000     23.736000      8.959000
C          17.472000     24.223000      8.313000
N          14.838000     25.199000      7.018000
S          14.906000     26.837000      5.010000
C          13.466000     25.451000      6.702000
C          13.367000     26.361000      5.669000
C          29.487000     25.728000      2.993000
H          28.341000     23.987000      4.896000
H          25.926000     23.867000      5.593000
H          25.199000     27.196000      2.831000
H          23.997000     24.848000      6.593000
H          18.619000     23.140000      9.862000
H          16.446000     24.112000      8.644000
H          12.714000     24.945000      7.292000
H          12.478000     26.754000      5.193000
H          29.845000     24.864000      2.420000
C          30.486000     26.144000      4.085000
H          29.535000     26.559000      2.279000
H          30.442000     25.418000      4.907000
H          30.081000     27.071000      4.509000
C          31.989000     26.344000      3.696000
H          32.221000     25.447000      3.109000
C          32.986000     26.324000      4.833000
H          32.101000     27.221000      3.047000
H          32.970000     25.410000      5.439000
H          32.824000     27.166000      5.517000
C          34.413000     26.675000      4.232000
H          34.696000     26.035000      3.387000
C          35.427000     26.735000      5.345000
H          34.311000     27.642000      3.724000
H          35.238000     27.364000      6.224000
H          36.414000     26.954000      4.920000
H          35.439000     25.718000      5.757000
C          27.431000     30.342000      1.328000
C          26.153000     30.439000      1.857000
N          27.708000     29.654000      0.215000
C          25.130000     29.794000      1.136000
C          26.771000     29.023000     -0.428000
C          25.419000     29.025000     -0.009000
C          24.352000     28.249000     -0.714000
C          24.734000     27.131000     -1.427000
C          22.906000     28.564000     -0.816000
N          23.971000     26.368000     -2.201000
N          22.200000     29.444000     -0.080000
C          22.110000     27.754000     -1.613000
C          22.676000     26.679000     -2.398000
S          20.703000     29.213000     -0.460000
N          20.770000     27.944000     -1.435000
C          21.964000     25.787000     -3.343000
S          20.225000     25.552000     -3.656000
C          22.605000     24.793000     -4.042000
C          20.425000     24.188000     -4.665000
S          24.319000     24.527000     -4.364000
C          21.785000     23.936000     -4.826000
C          19.410000     23.690000     -5.485000
C          23.879000     23.138000     -5.363000
C          22.543000     23.000000     -5.565000
N          18.503000     24.606000     -5.867000
S          19.402000     22.112000     -6.130000
C          17.712000     24.012000     -6.811000
C          18.141000     22.760000     -7.166000
C          28.506000     31.039000      2.159000
H          26.000000     30.963000      2.796000
H          24.143000     29.905000      1.576000
H          27.119000     28.461000     -1.294000
H          25.760000     26.789000     -1.297000
H          24.602000     22.530000     -5.891000
H          22.122000     22.193000     -6.154000
H          16.953000     24.566000     -7.347000
H          17.778000     22.144000     -7.979000
H          29.022000     31.696000      1.447000
C          29.665000     30.136000      2.777000
H          28.227000     31.729000      2.965000
H          30.240000     29.655000      1.975000
H          29.223000     29.305000      3.339000
C          30.632000     30.994000      3.684000
H          31.295000     31.662000      3.120000
C          31.573000     30.159000      4.501000
H          30.149000     31.576000      4.479000
H          32.272000     29.546000      3.919000
H          31.061000     29.547000      5.254000
C          32.539000     30.916000      5.449000
H          33.479000     30.361000      5.553000
C          31.970000     31.046000      6.913000
H          32.745000     31.896000      5.000000
H          32.671000     31.668000      7.484000
H          31.873000     30.042000      7.343000
H          30.990000     31.540000      6.921000
$end

--------------------------------------------------------------

             Standard Nuclear Orientation (Angstroms)
    I     Atom           X                Y                Z
 ----------------------------------------------------------------
    1      C      -4.6117669473     0.2640980013    -2.0339087875
    2      C      -4.2995412732     1.2579519564    -3.0038347870
    3      N      -3.9592793315     0.0918091915    -0.8681461714
    4      C      -3.1393932118     2.0609681340    -2.7707800852
    5      C      -2.8110292217     0.7949441342    -0.7052568289
    6      C      -2.2713366351     1.7585083183    -1.6778908686
    7      C      -1.0395674059     2.4500193035    -1.3233783535
    8      C      -0.8063840373     3.8107905049    -1.6545946785
    9      C       0.0990282859     1.8539620147    -0.6157502315
   10      N       0.3007858952     4.5225842293    -1.3682409909
   11      N       0.0397655962     0.6368962147    -0.2267813740
   12      C       1.1855666712     2.6182090820    -0.2432804241
   13      C       1.3071324185     3.9875376866    -0.6924852123
   14      S       1.3272212982     0.5685841618     0.6471827437
   15      N       2.0127169928     2.0055169205     0.5423929563
   16      C       2.4519305922     4.8545817062    -0.4468680109
   17      S       3.9051013278     4.5352583541     0.6821742424
   18      C       2.7528167610     6.0270681382    -1.1273223299
   19      C       4.7998941813     5.9574969472     0.0534858191
   20      S       1.9017575527     6.8240730793    -2.4389378787
   21      C       4.0183215116     6.6194863119    -0.8244288938
   22      C       6.1068950622     6.3241163981     0.5400501782
   23      C       3.1679461648     8.0721820582    -2.3824102281
   24      C       4.2697726988     7.7853959623    -1.5911498258
   25      N       6.8312922809     7.3141290041     0.0774070010
   26      S       6.8862479628     5.4471860065     1.8749708293
   27      C       8.1356486311     7.4004275280     0.6578818726
   28      C       8.2730841653     6.4801327977     1.6772733986
   29      C      -5.9787831803    -0.5547676309    -2.1711701993
   30      H      -4.9729141972     1.5028963107    -3.8204284243
   31      H      -2.8617219253     2.8306626744    -3.4852602957
   32      H      -2.2777264699     0.5408364870     0.2100149769
   33      H      -1.5487436595     4.3693071493    -2.2234904064
   34      H       3.0610133570     8.9044097127    -3.0658050669
   35      H       5.1722589120     8.3800604860    -1.5108333324
   36      H       8.8106932752     8.1491562719     0.2662698240
   37      H       9.1322364158     6.2867987420     2.3064199263
   38      H      -5.9587125501    -1.2455321126    -3.0228923375
   39      C      -7.2938214526     0.2391920164    -2.1093363845
   40      H      -6.0415315187    -1.2130536184    -1.2963083790
   41      H      -7.2878017394     1.0051928130    -2.8954041568
   42      H      -7.2469654062     0.8028888129    -1.1695595852
   43      C      -8.6494516878    -0.5380496175    -2.2014890187
   44      H      -8.4998874862    -1.2092017853    -3.0559990053
   45      C      -9.8689060357     0.2784258033    -2.5668340345
   46      H      -8.7998477457    -1.1492891286    -1.3033569094
   47      H      -9.7884375818     0.8201652404    -3.5170609602
   48      H     -10.0955482087     1.0207787491    -1.7918440802
   49      C     -11.1355776154    -0.6741094742    -2.4722261373
   50      H     -11.0297462230    -1.5944968489    -3.0599342254
   51      C     -12.3841106732     0.1185426289    -2.7610735834
   52      H     -11.1434635363    -1.0867071757    -1.4557331718
   53      H     -12.5839806504     1.0451807627    -2.2084464385
   54      H     -13.2520967926    -0.5503880079    -2.7176351254
   55      H     -12.2553392422     0.4612859911    -3.7955405506
   56      C      -4.7416535145    -1.3630607602     2.9380889845
   57      C      -3.7041547934    -0.4988212153     3.2530817030
   58      N      -4.5500267427    -2.5414644555     2.3351910566
   59      C      -2.4063377495    -0.9411088023     2.9330073195
   60      C      -3.3560551717    -2.9318345164     2.0010921144
   61      C      -2.1982040657    -2.1574859028     2.2525559111
   62      C      -0.8316777065    -2.5786886966     1.8133703968
   63      C      -0.7369368408    -3.4228560542     0.7258858494
   64      C       0.4719703223    -2.2634847345     2.4471631699
   65      N       0.3595449698    -3.9933084084     0.2403698861
   66      N       0.7320733203    -1.3196964172     3.3724426101
   67      C       1.6165730102    -2.8492328285     1.9259061726
   68      C       1.5471258417    -3.8110566033     0.8478161407
   69      S       2.2863929091    -1.2839943262     3.5193642781
   70      N       2.7795004728    -2.3004292224     2.3839436369
   71      C       2.6707692090    -4.5660149523     0.2452412704
   72      S       4.4354363076    -4.3996013901     0.4338455056
   73      C       2.4895552540    -5.4619493209    -0.7804200332
   74      C       4.8356763010    -5.4898992933    -0.8190054152
   75      S       1.0317342680    -6.2556092326    -1.3779967375
   76      C       3.6646400040    -6.0309025704    -1.3434236122
   77      C       6.1158648401    -6.0222834755    -0.9872712372
   78      C       2.0345377938    -7.1614591489    -2.5158644880
   79      C       3.3701445569    -6.9946050455    -2.3340451198
   80      N       6.8415803367    -6.0949274864     0.1421927355
   81      S       6.6692931107    -6.7162812953    -2.4426946036
   82      C       7.9669949675    -6.8126737467    -0.1543459881
   83      C       7.9584520376    -7.3325549768    -1.4221080024
   84      C      -6.1288511202    -0.8269250551     3.2848400600
   85      H      -3.9277384621     0.4704083699     3.6893274529
   86      H      -1.6218369721    -0.2416973959     3.2077293877
   87      H      -3.3245193199    -3.8864669275     1.4770821434
   88      H      -1.6480826122    -3.5969483043     0.1548821088
   89      H       1.6396366188    -7.8969544650    -3.2045419901
   90      H       4.1097571975    -7.4836521217    -2.9579177823
   91      H       8.6809564388    -7.0915375117     0.6090588967
   92      H       8.6550063283    -8.0433324488    -1.8484898800
   93      H      -6.5882001130    -1.6205151692     3.8882157586
   94      C      -7.1539992649    -0.5963704244     2.0862868306
   95      H      -6.2405124481     0.0573509610     3.9244998721
   96      H      -7.3708830350    -1.5480526460     1.5838404362
   97      H      -6.6835325540     0.0243577076     1.3148423024
   98      C      -8.4984102578     0.0502939611     2.6042503958
   99      H      -9.1358977088    -0.6410932978     3.1694781445
  100      C      -9.3868391923     0.5352093836     1.4971162299
  101      H      -8.3902304681     0.9748665524     3.1851984627
  102      H      -9.7442465778    -0.2457768624     0.8149033274
  103      H      -8.9525892046     1.3692589483     0.9318859478
  104      C     -10.7164314297     1.2165953949     1.9128163451
  105      H     -11.4890119907     1.0308194281     1.1571394520
  106      C     -10.5898870923     2.7851650935     1.9996070795
  107      H     -11.0308675332     0.7765507979     2.8677653958
  108      H     -11.5423441026     3.1708873682     2.3847953067
  109      H     -10.3668279157     3.1758110152     0.9996243958
  110      H      -9.7938071507     3.0865132507     2.6923884408
 ----------------------------------------------------------------

    9   -5663.5015929296      8.21E-06 Convergence criterion met
 Total energy in the final basis set = -5663.5015929296

                    Orbital Energies (a.u.)
 --------------------------------------------------------------

 Alpha MOs
 -- Occupied --
-88.989 -88.981 -88.934 -88.921 -88.921 -88.918 -88.910 -88.906
-14.388 -14.385 -14.384 -14.380 -14.346 -14.345 -14.343 -14.343
-14.334 -14.322 -10.271 -10.266 -10.263 -10.261 -10.261 -10.256
-10.253 -10.252 -10.247 -10.241 -10.238 -10.237 -10.237 -10.236
-10.234 -10.233 -10.231 -10.231 -10.229 -10.228 -10.227 -10.225
-10.225 -10.225 -10.224 -10.223 -10.223 -10.223 -10.220 -10.218
-10.214 -10.207 -10.207 -10.206 -10.204 -10.195 -10.195 -10.190
-10.183 -10.183 -10.183 -10.180 -10.179 -10.179 -10.179 -10.178
-10.177 -10.174 -10.171 -10.169  -8.045  -8.040  -7.996  -7.982
 -7.979  -7.977  -7.969  -7.965  -6.010  -6.005  -6.004  -6.003
 -5.999  -5.997  -5.960  -5.957  -5.953  -5.946  -5.943  -5.943
 -5.942  -5.940  -5.939  -5.938  -5.935  -5.934  -5.934  -5.930
 -5.930  -5.926  -5.925  -5.922  -1.089  -1.057  -0.974  -0.962
 -0.960  -0.958  -0.947  -0.946  -0.932  -0.912  -0.909  -0.903
 -0.845  -0.835  -0.833  -0.830  -0.817  -0.807  -0.805  -0.802
 -0.801  -0.800  -0.796  -0.794  -0.787  -0.778  -0.765  -0.763
 -0.748  -0.745  -0.740  -0.737  -0.720  -0.715  -0.711  -0.710
 -0.694  -0.693  -0.674  -0.673  -0.657  -0.648  -0.646  -0.646
 -0.633  -0.633  -0.626  -0.626  -0.612  -0.609  -0.599  -0.595
 -0.593  -0.592  -0.581  -0.581  -0.580  -0.576  -0.571  -0.559
 -0.558  -0.545  -0.544  -0.541  -0.527  -0.525  -0.521  -0.509
 -0.505  -0.504  -0.500  -0.500  -0.495  -0.487  -0.482  -0.480
 -0.474  -0.471  -0.470  -0.466  -0.464  -0.463  -0.447  -0.445
 -0.443  -0.439  -0.438  -0.435  -0.432  -0.429  -0.429  -0.427
 -0.426  -0.424  -0.423  -0.421  -0.420  -0.420  -0.413  -0.413
 -0.412  -0.410  -0.403  -0.401  -0.400  -0.398  -0.393  -0.393
 -0.392  -0.391  -0.391  -0.390  -0.388  -0.386  -0.383  -0.381
 -0.381  -0.379  -0.372  -0.371  -0.366  -0.362  -0.361  -0.356
 -0.355  -0.354  -0.353  -0.350  -0.347  -0.346  -0.344  -0.340
 -0.336  -0.334  -0.333  -0.333  -0.325  -0.323  -0.321  -0.320
 -0.318  -0.315  -0.314  -0.310  -0.306  -0.305  -0.299  -0.297
 -0.296  -0.295  -0.294  -0.290  -0.288  -0.285  -0.284  -0.274
 -0.271  -0.269  -0.268  -0.266  -0.255  -0.251  -0.250  -0.244
 -0.243  -0.241  -0.230  -0.229  -0.193  -0.193

          Ground-State Mulliken Net Atomic Charges

     Atom                 Charge (a.u.)
  ----------------------------------------
      1 C                     0.249560
      2 C                    -0.108376
      3 N                    -0.460760
      4 C                    -0.089327
      5 C                     0.077808
      6 C                     0.035666
      7 C                     0.042237
      8 C                     0.041375
      9 C                     0.193588
     10 N                    -0.527997
     11 N                    -0.499238
     12 C                     0.198865
     13 C                     0.313512
     14 S                     0.579932
     15 N                    -0.533183
     16 C                    -0.215106
     17 S                     0.285509
     18 C                    -0.102027
     19 C                    -0.230137
     20 S                     0.283655
     21 C                     0.162473
     22 C                     0.088792
     23 C                    -0.314676
     24 C                    -0.046586
     25 N                    -0.463950
     26 S                     0.256883
     27 C                     0.119727
     28 C                    -0.309641
     29 C                    -0.239275
     30 H                     0.101977
     31 H                     0.102226
     32 H                     0.121505
     33 H                     0.102661
     34 H                     0.123797
     35 H                     0.133690
     36 H                     0.124555
     37 H                     0.136180
     38 H                     0.098727
     39 C                    -0.189809
     40 H                     0.124169
     41 H                     0.079696
     42 H                     0.105720
     43 C                    -0.173260
     44 H                     0.091038
     45 C                    -0.175174
     46 H                     0.100415
     47 H                     0.091143
     48 H                     0.097620
     49 C                    -0.182784
     50 H                     0.094992
     51 C                    -0.316915
     52 H                     0.094295
     53 H                     0.104904
     54 H                     0.098030
     55 H                     0.101557
     56 C                     0.299959
     57 C                    -0.105620
     58 N                    -0.487547
     59 C                    -0.095626
     60 C                     0.088057
     61 C                     0.032338
     62 C                     0.057213
     63 C                     0.050180
     64 C                     0.205326
     65 N                    -0.521505
     66 N                    -0.523153
     67 C                     0.154683
     68 C                     0.304243
     69 S                     0.615512
     70 N                    -0.528403
     71 C                    -0.230388
     72 S                     0.352548
     73 C                    -0.118328
     74 C                    -0.230041
     75 S                     0.288889
     76 C                     0.139759
     77 C                     0.056774
     78 C                    -0.311839
     79 C                    -0.065472
     80 N                    -0.419801
     81 S                     0.283611
     82 C                     0.129496
     83 C                    -0.302944
     84 C                    -0.242550
     85 H                     0.094321
     86 H                     0.112710
     87 H                     0.101863
     88 H                     0.117753
     89 H                     0.122371
     90 H                     0.106365
     91 H                     0.117812
     92 H                     0.123756
     93 H                     0.113452
     94 C                    -0.182465
     95 H                     0.099133
     96 H                     0.113403
     97 H                     0.113520
     98 C                    -0.176001
     99 H                     0.095688
    100 C                    -0.181790
    101 H                     0.090839
    102 H                     0.092286
    103 H                     0.092991
    104 C                    -0.193277
    105 H                     0.095809
    106 C                    -0.324751
    107 H                     0.087445
    108 H                     0.102040
    109 H                     0.106100
    110 H                     0.102995
  ----------------------------------------
  Sum of atomic charges =     0.000000

                    Cartesian Multipole Moments
 -----------------------------------------------------------------
    Charge (ESU x 10^10)
                 0.0000
    Dipole Moment (Debye)
         X       1.9167      Y       0.0895      Z      -1.8652
       Tot       2.6759
    Quadrupole Moments (Debye-Ang)
        XX    -396.2750     XY     -15.0760     YY    -422.6429
        XZ       4.4848     YZ      14.7031     ZZ    -428.3652

 Total job time:  90.05s(wall), 990.09s(cpu)
        *  Thank you very much for using Q-Chem.  Have a nice day.  *
