 Q-Chem 4.4, Q-Chem, Inc., Pleasanton, CA (2016)
 Q-Chem 4.4.2 for Intel X86 Linux

User input:
--------------------------------------------------------------
$comment
SP
$end

$rem
MEM_STATIC 5000
MEM_TOTAL 20000
JOBTYPE SP
EXCHANGE B3LYP
BASIS 6-31g(d,p)
$end

$molecule
0 1
C          25.495000     -9.059000     -1.841000
C          24.974000     -7.779000     -2.202000
N          25.087000     -9.671000     -0.747000
C          24.078000     -7.074000     -1.368000
C          24.238000     -8.954000      0.065000
C          23.664000     -7.715000     -0.224000
C          22.789000     -7.080000      0.820000
C          23.270000     -6.668000      2.079000
C          21.415000     -6.815000      0.575000
N          22.448000     -6.214000      3.048000
N          20.782000     -7.306000     -0.535000
C          20.638000     -6.209000      1.517000
C          21.185000     -5.868000      2.813000
S          19.300000     -6.790000     -0.290000
N          19.315000     -6.212000      1.216000
C          20.331000     -5.662000      3.956000
S          18.555000     -5.768000      3.977000
C          20.745000     -5.213000      5.224000
C          18.489000     -5.626000      5.753000
S          22.318000     -4.540000      5.770000
C          19.735000     -5.209000      6.146000
C          17.363000     -5.792000      6.663000
C          21.570000     -4.410000      7.399000
C          20.214000     -4.753000      7.425000
N          16.236000     -6.038000      6.052000
S          17.474000     -6.133000      8.369000
C          15.215000     -6.332000      6.932000
C          15.726000     -6.367000      8.230000
C          26.530000     -9.823000     -2.627000
H          25.363000     -7.364000     -3.127000
H          23.566000     -6.159000     -1.648000
H          23.945000     -9.516000      0.951000
H          24.297000     -6.936000      2.322000
H          22.116000     -3.878000      8.167000
H          19.613000     -4.603000      8.315000
H          14.209000     -6.524000      6.583000
H          15.298000     -6.565000      9.204000
H          26.684000    -10.834000     -2.230000
C          27.869000     -9.039000     -2.712000
H          26.200000     -9.896000     -3.671000
H          28.202000     -8.832000     -1.687000
H          27.688000     -8.002000     -3.021000
C          29.000000     -9.671000     -3.441000
H          29.164000    -10.706000     -3.113000
C          30.249000     -8.753000     -3.275000
H          28.785000     -9.719000     -4.515000
H          30.467000     -8.730000     -2.200000
H          30.070000     -7.722000     -3.602000
C          31.627000     -9.241000     -3.954000
H          31.899000    -10.278000     -3.721000
C          32.786000     -8.324000     -3.647000
H          31.500000     -9.175000     -5.042000
H          32.903000     -8.251000     -2.559000
H          32.674000     -7.296000     -4.013000
H          33.617000     -8.747000     -4.225000
C          16.893000      1.020000     12.750000
C          18.058000      1.711000     12.337000
N          16.821000     -0.321000     12.790000
C          19.198000      1.033000     11.911000
C          17.899000     -0.979000     12.462000
C          19.122000     -0.389000     11.937000
C          20.275000     -1.236000     11.501000
C          20.898000     -0.932000     10.234000
C          20.948000     -2.143000     12.350000
N          22.062000     -1.412000      9.806000
N          20.575000     -2.461000     13.571000
C          22.166000     -2.604000     11.960000
C          22.796000     -2.246000     10.660000
S          21.717000     -3.494000     14.090000
N          22.722000     -3.461000     12.840000
C          24.047000     -2.895000     10.144000
S          24.984000     -4.141000     11.071000
C          24.728000     -2.610000      9.003000
C          26.296000     -4.131000      9.883000
S          24.247000     -1.596000      7.656000
C          25.923000     -3.300000      8.888000
C          27.328000     -5.099000      9.731000
C          25.767000     -2.108000      6.826000
C          26.531000     -2.988000      7.620000
N          27.348000     -6.116000     10.592000
S          28.831000     -4.803000      8.859000
C          28.487000     -6.851000     10.522000
C          29.364000     -6.299000      9.618000
C          15.600000      1.712000     13.050000
H          18.016000      2.794000     12.275000
H          20.081000      1.544000     11.538000
H          17.800000     -2.059000     12.357000
H          20.611000     -0.038000      9.682000
H          26.000000     -1.633000      5.883000
H          27.431000     -3.530000      7.351000
H          28.602000     -7.683000     11.204000
H          30.405000     -6.512000      9.414000
H          15.078000      1.889000     12.102000
C          15.796000      2.951000     13.822000
H          14.898000      1.025000     13.539000
H          16.509000      3.613000     13.315000
H          16.263000      2.716000     14.786000
C          14.481000      3.744000     13.997000
H          13.753000      3.195000     14.607000
C          13.772000      4.182000     12.726000
H          14.877000      4.619000     14.528000
H          13.362000      3.277000     12.261000
H          14.438000      4.650000     11.991000
C          12.623000      5.197000     12.960000
H          11.751000      4.658000     13.350000
C          12.159000      5.885000     11.771000
H          12.771000      5.913000     13.778000
H          12.973000      6.465000     11.320000
H          11.415000      6.624000     12.093000
H          11.635000      5.303000     11.002000
$end

--------------------------------------------------------------

             Standard Nuclear Orientation (Angstroms)
    I     Atom           X                Y                Z
 ----------------------------------------------------------------
    1      C     -10.2169593461     1.9277261691    -0.1185123013
    2      C      -9.6030348944     2.5006581292    -1.2739376502
    3      N      -9.5173622453     1.6973694203     0.9748054315
    4      C      -8.2154610604     2.7585732090    -1.3332307085
    5      C      -8.1634138011     1.9275363400     0.8849121645
    6      C      -7.4907105065     2.5071758465    -0.1919380200
    7      C      -5.9957760591     2.6357133027    -0.1057108762
    8      C      -5.1311242633     1.5245492297    -0.0434398957
    9      C      -5.3579869073     3.9049222101    -0.1271525883
   10      N      -3.8035471302     1.6584334944     0.1574953165
   11      N      -6.0770236336     5.0650307519    -0.0222509320
   12      C      -3.9995310710     4.0089047333    -0.0811702448
   13      C      -3.1752541728     2.8256744736     0.0438887311
   14      S      -4.9115684192     6.1440289635    -0.0313064597
   15      N      -3.5561018860     5.2787939593     0.0968491684
   16      C      -1.8250821608     2.9025195437     0.5432196567
   17      S      -0.9722078138     4.3789802256     1.0516704439
   18      C      -0.9026845019     1.8406332237     0.5922196776
   19      C       0.4094723315     3.4538093182     1.6948770734
   20      S      -0.9733685073     0.1962593893    -0.1263987638
   21      C       0.2693538631     2.1783687450     1.2106538201
   22      C       1.5494043182     3.9029575777     2.4837705432
   23      C       0.6377730333    -0.0782753014     0.6211964741
   24      C       1.1705186798     1.0558472980     1.2432969529
   25      N       1.5547650969     5.1905221470     2.6985139758
   26      S       2.5605313331     2.8910104074     3.4800752578
   27      C       2.5591767690     5.5744412330     3.5628289232
   28      C       3.2226718484     4.4378062925     4.0264939873
   29      C     -11.6677466252     1.5301951300    -0.0190017810
   30      H     -10.2656996033     2.6634700074    -2.1186498946
   31      H      -7.7225960654     3.2966998825    -2.1365194362
   32      H      -7.6473637600     1.7128353324     1.8199441599
   33      H      -5.5981874523     0.5463307646     0.0592373264
   34      H       1.1733890576    -0.9801708559     0.3553696822
   35      H       2.1848430719     1.0627547243     1.6265714171
   36      H       2.7188015872     6.6148043255     3.8135589638
   37      H       4.0441987139     4.2705227113     4.7107262669
   38      H     -11.9431562127     1.2313677966     0.9999671999
   39      C     -12.0231367070     0.4219336638    -1.0486893124
   40      H     -12.2904188626     2.3815091262    -0.3218363309
   41      H     -11.3514327558    -0.4277527260    -0.8720262408
   42      H     -11.6583030263     0.6938448584    -2.0469736845
   43      C     -13.4175792792    -0.0931973161    -1.0626888265
   44      H     -13.7592490321    -0.3614229058    -0.0542138328
   45      C     -13.4827245344    -1.2701911049    -2.0828470087
   46      H     -14.1074346092     0.6773629998    -1.4264764339
   47      H     -12.8056327734    -2.0426324390    -1.6974133145
   48      H     -13.1347465330    -0.9898008036    -3.0839581861
   49      C     -14.8956637786    -2.0257358633    -2.2584141194
   50      H     -15.3608254180    -2.3319701557    -1.3131695969
   51      C     -14.8145921969    -3.2048284500    -3.1973428018
   52      H     -15.5849950818    -1.3263282318    -2.7481899043
   53      H     -14.0536284308    -3.9024036384    -2.8270928819
   54      H     -14.5296938488    -2.9588638311    -4.2276914504
   55      H     -15.8498800390    -3.5620323256    -3.2618290427
   56      C       9.4389260163     0.6390351388    -0.7992266678
   57      C       8.8895039352    -0.1397578672    -1.8465527062
   58      N       8.8609842237     0.7401087357     0.4094223351
   59      C       7.6869880576    -0.8263552476    -1.6939106368
   60      C       7.7697375966     0.0506202849     0.6002585873
   61      C       7.0621255203    -0.7104684493    -0.4192918470
   62      C       5.7648852719    -1.3945145088    -0.1257569661
   63      C       4.6853407640    -1.2344049893    -1.0716864546
   64      C       5.6055857483    -2.3793876524     0.8747566784
   65      N       3.5642863890    -1.9492308682    -1.0989087104
   66      N       6.5201744286    -2.7223789774     1.7562205159
   67      C       4.4940225411    -3.1610277978     0.8346204177
   68      C       3.4130659040    -2.9912045537    -0.1742189226
   69      S       5.8278856692    -3.9120603137     2.6199384049
   70      N       4.4395788937    -4.0675422219     1.8312409513
   71      C       2.1040222895    -3.7225103771    -0.1105431187
   72      S       1.7063852187    -4.9546944624     1.1596620379
   73      C       1.0772052753    -3.6790160083    -0.9997124272
   74      C       0.1981649192    -5.3994393980     0.3470972894
   75      S       0.8326512820    -2.5864753410    -2.3489767582
   76      C       0.0656682998    -4.5814708711    -0.7173683676
   77      C      -0.8917600295    -6.1324659109     0.8947173561
   78      C      -0.7717149506    -3.3766881694    -2.6000079863
   79      C      -1.0032578894    -4.4086629040    -1.6672979484
   80      N      -0.7684355130    -6.5734889181     2.1462363414
   81      S      -2.1305919709    -6.9233460665    -0.0783258087
   82      C      -1.7410785883    -7.4517418832     2.4999073432
   83      C      -2.5670796830    -7.7143582063     1.4322913738
   84      C      10.6338467110     1.5218094083    -0.9824945660
   85      H       9.3849455497    -0.1214802815    -2.8123169303
   86      H       7.2212117062    -1.3831596258    -2.5019702106
   87      H       7.2258610709     0.2414917774     1.5249165771
   88      H       4.8594438575    -0.7340604354    -2.0233441873
   89      H      -1.3405500372    -3.0765581654    -3.4692097033
   90      H      -1.9073034806    -4.9873008779    -1.5123635620
   91      H      -1.7056724273    -7.8826370430     3.4916980293
   92      H      -3.3370942916    -8.4617953512     1.2941565951
   93      H      10.2962914650     2.4690970399    -1.4197811984
   94      C      11.6863531892     0.8768277511    -1.7860801403
   95      H      11.0083447250     1.8721346231    -0.0124855550
   96      H      11.2813891272     0.5283573485    -2.7443256657
   97      H      12.0351599265    -0.0305852886    -1.2785907953
   98      C      12.8505629907     1.8417630620    -2.1057899833
   99      H      13.3914665878     2.1409943765    -1.1994959256
  100      C      12.4987742682     3.1100341252    -2.8658552471
  101      H      13.4547514524     1.1789638090    -2.7382893533
  102      H      11.9347992274     3.7497484599    -2.1758931298
  103      H      11.8599306314     2.9348989088    -3.7399327400
  104      C      13.7288908199     3.8936012314    -3.3931292359
  105      H      14.1879999807     4.4332136833    -2.5558466191
  106      C      13.4334906890     4.9006153822    -4.3936402367
  107      H      14.5878813493     3.2880067886    -3.7078904809
  108      H      12.9790682281     4.4409527250    -5.2794209480
  109      H      14.3921360566     5.3106969281    -4.7344821136
  110      H      12.8621794708     5.7870331507    -4.0894560300
 ----------------------------------------------------------------

    9   -5663.4805030813      9.36E-06 Convergence criterion met
 Total energy in the final basis set = -5663.4805030813

                    Orbital Energies (a.u.)
 --------------------------------------------------------------

 Alpha MOs
 -- Occupied --
-88.990 -88.982 -88.933 -88.927 -88.922 -88.916 -88.915 -88.904
-14.388 -14.383 -14.381 -14.379 -14.356 -14.343 -14.341 -14.336
-14.327 -14.325 -10.277 -10.270 -10.262 -10.258 -10.257 -10.251
-10.248 -10.247 -10.247 -10.241 -10.238 -10.238 -10.235 -10.234
-10.234 -10.233 -10.233 -10.231 -10.231 -10.230 -10.228 -10.226
-10.226 -10.226 -10.223 -10.221 -10.219 -10.218 -10.216 -10.216
-10.211 -10.211 -10.207 -10.207 -10.201 -10.200 -10.197 -10.196
-10.184 -10.182 -10.180 -10.180 -10.179 -10.179 -10.179 -10.178
-10.177 -10.175 -10.171 -10.169  -8.046  -8.039  -7.994  -7.988
 -7.980  -7.975  -7.973  -7.963  -6.011  -6.006  -6.004  -6.004
 -5.998  -5.997  -5.958  -5.955  -5.952  -5.951  -5.949  -5.945
 -5.945  -5.941  -5.939  -5.938  -5.937  -5.936  -5.934  -5.931
 -5.930  -5.927  -5.924  -5.919  -1.055  -1.049  -0.972  -0.968
 -0.954  -0.950  -0.947  -0.937  -0.918  -0.913  -0.910  -0.901
 -0.840  -0.834  -0.832  -0.828  -0.819  -0.814  -0.808  -0.807
 -0.803  -0.801  -0.800  -0.794  -0.793  -0.777  -0.770  -0.764
 -0.753  -0.749  -0.743  -0.734  -0.723  -0.715  -0.713  -0.709
 -0.696  -0.688  -0.678  -0.664  -0.660  -0.648  -0.640  -0.640
 -0.637  -0.632  -0.630  -0.625  -0.616  -0.606  -0.604  -0.598
 -0.598  -0.589  -0.588  -0.584  -0.578  -0.574  -0.570  -0.565
 -0.548  -0.541  -0.541  -0.534  -0.527  -0.523  -0.521  -0.515
 -0.509  -0.504  -0.497  -0.491  -0.490  -0.488  -0.481  -0.476
 -0.475  -0.474  -0.469  -0.469  -0.468  -0.461  -0.456  -0.452
 -0.444  -0.442  -0.441  -0.438  -0.435  -0.433  -0.432  -0.431
 -0.429  -0.425  -0.424  -0.421  -0.419  -0.418  -0.412  -0.410
 -0.409  -0.407  -0.405  -0.404  -0.402  -0.400  -0.398  -0.398
 -0.393  -0.393  -0.390  -0.388  -0.387  -0.386  -0.385  -0.384
 -0.379  -0.377  -0.376  -0.376  -0.374  -0.363  -0.357  -0.354
 -0.352  -0.351  -0.351  -0.348  -0.347  -0.345  -0.343  -0.342
 -0.339  -0.339  -0.333  -0.332  -0.329  -0.321  -0.320  -0.317
 -0.313  -0.313  -0.311  -0.310  -0.307  -0.305  -0.304  -0.303
 -0.298  -0.296  -0.291  -0.291  -0.288  -0.283  -0.281  -0.277
 -0.276  -0.264  -0.263  -0.258  -0.256  -0.251  -0.250  -0.248
 -0.247  -0.240  -0.233  -0.230  -0.198  -0.187

          Ground-State Mulliken Net Atomic Charges

     Atom                 Charge (a.u.)
  ----------------------------------------
      1 C                     0.288767
      2 C                    -0.125614
      3 N                    -0.478208
      4 C                    -0.054348
      5 C                     0.051663
      6 C                     0.053077
      7 C                    -0.028805
      8 C                     0.070707
      9 C                     0.198496
     10 N                    -0.481814
     11 N                    -0.506975
     12 C                     0.170816
     13 C                     0.278578
     14 S                     0.602475
     15 N                    -0.530904
     16 C                    -0.230288
     17 S                     0.353401
     18 C                    -0.116146
     19 C                    -0.207531
     20 S                     0.276984
     21 C                     0.144084
     22 C                     0.066337
     23 C                    -0.300802
     24 C                    -0.092490
     25 N                    -0.431987
     26 S                     0.276374
     27 C                     0.132292
     28 C                    -0.318813
     29 C                    -0.227502
     30 H                     0.084871
     31 H                     0.106287
     32 H                     0.102813
     33 H                     0.112874
     34 H                     0.139590
     35 H                     0.109192
     36 H                     0.125617
     37 H                     0.129138
     38 H                     0.120059
     39 C                    -0.184267
     40 H                     0.102592
     41 H                     0.098971
     42 H                     0.090129
     43 C                    -0.168995
     44 H                     0.096363
     45 C                    -0.178759
     46 H                     0.090905
     47 H                     0.091990
     48 H                     0.092819
     49 C                    -0.186721
     50 H                     0.094989
     51 C                    -0.309954
     52 H                     0.090452
     53 H                     0.102015
     54 H                     0.100030
     55 H                     0.100707
     56 C                     0.265620
     57 C                    -0.112156
     58 N                    -0.470495
     59 C                    -0.063297
     60 C                     0.106488
     61 C                     0.003761
     62 C                    -0.029711
     63 C                     0.062535
     64 C                     0.280172
     65 N                    -0.501971
     66 N                    -0.549399
     67 C                     0.176346
     68 C                     0.284812
     69 S                     0.604530
     70 N                    -0.536680
     71 C                    -0.252442
     72 S                     0.353661
     73 C                    -0.105163
     74 C                    -0.214089
     75 S                     0.290689
     76 C                     0.148869
     77 C                     0.055350
     78 C                    -0.316853
     79 C                    -0.069421
     80 N                    -0.427472
     81 S                     0.277897
     82 C                     0.140456
     83 C                    -0.320110
     84 C                    -0.220797
     85 H                     0.088825
     86 H                     0.105790
     87 H                     0.096718
     88 H                     0.113676
     89 H                     0.136872
     90 H                     0.100812
     91 H                     0.126357
     92 H                     0.131090
     93 H                     0.118494
     94 C                    -0.189141
     95 H                     0.117770
     96 H                     0.091368
     97 H                     0.101619
     98 C                    -0.178181
     99 H                     0.094417
    100 C                    -0.169047
    101 H                     0.087660
    102 H                     0.097431
    103 H                     0.085092
    104 C                    -0.174268
    105 H                     0.090798
    106 C                    -0.313671
    107 H                     0.094566
    108 H                     0.097732
    109 H                     0.096985
    110 H                     0.103578
  ----------------------------------------
  Sum of atomic charges =     0.000000

                    Cartesian Multipole Moments
 -----------------------------------------------------------------
    Charge (ESU x 10^10)
                 0.0000
    Dipole Moment (Debye)
         X       0.9258      Y      -2.5565      Z      -3.0472
       Tot       4.0839
    Quadrupole Moments (Debye-Ang)
        XX    -409.8051     XY      18.0022     YY    -422.4930
        XZ      15.1389     YZ      -4.1779     ZZ    -428.8723

 Total job time:  84.63s(wall), 918.78s(cpu)
        *  Thank you very much for using Q-Chem.  Have a nice day.  *
