 Q-Chem 4.4, Q-Chem, Inc., Pleasanton, CA (2016)
 Q-Chem 4.4.2 for Intel X86 Linux

User input:
--------------------------------------------------------------
$comment
SP
$end

$rem
MEM_STATIC 5000
MEM_TOTAL 20000
JOBTYPE SP
EXCHANGE B3LYP
BASIS 6-31g(d,p)
$end

$molecule
0 1
C          13.813000     -3.860000     11.567000
C          15.206000     -3.992000     11.763000
N          13.315000     -3.317000     10.492000
C          16.069000     -3.574000     10.726000
C          14.169000     -2.945000      9.553000
C          15.556000     -3.024000      9.587000
C          16.486000     -2.640000      8.434000
C          17.819000     -2.292000      8.663000
C          16.096000     -2.710000      7.073000
N          18.692000     -1.964000      7.709000
N          14.882000     -3.001000      6.644000
C          16.999000     -2.497000      6.078000
C          18.299000     -2.077000      6.400000
S          14.960000     -3.017000      5.006000
N          16.519000     -2.664000      4.806000
C          19.302000     -1.782000      5.349000
S          19.245000     -2.281000      3.667000
C          20.356000     -0.893000      5.509000
C          20.699000     -1.453000      3.290000
S          20.877000      0.043000      6.919000
C          21.132000     -0.755000      4.393000
C          21.156000     -1.160000      1.977000
C          22.185000      0.600000      5.912000
C          22.210000      0.152000      4.590000
N          20.669000     -2.050000      1.113000
S          22.175000      0.064000      1.384000
C          21.085000     -1.759000     -0.130000
C          21.905000     -0.690000     -0.186000
C          12.765000     -4.455000     12.596000
H          15.665000     -4.430000     12.645000
H          17.155000     -3.592000     10.747000
H          13.656000     -2.554000      8.676000
H          18.196000     -2.210000      9.682000
H          22.907000      1.315000      6.284000
H          22.912000      0.523000      3.852000
H          20.811000     -2.455000     -0.912000
H          22.525000     -0.234000     -0.946000
H          13.077000     -4.155000     13.604000
C          12.587000     -6.028000     12.567000
H          11.783000     -3.970000     12.529000
H          13.494000     -6.517000     12.941000
H          12.473000     -6.295000     11.509000
C          11.401000     -6.530000     13.322000
H          11.380000     -7.623000     13.410000
C           9.962000     -6.026000     12.821000
H          11.550000     -6.209000     14.361000
H           9.954000     -6.033000     11.724000
H           9.891000     -4.993000     13.184000
C           8.829000     -6.852000     13.353000
H           9.062000     -7.222000     14.360000
C           8.531000     -8.038000     12.489000
H           7.887000     -6.322000     13.539000
H           7.698000     -8.540000     12.996000
H           9.426000     -8.655000     12.344000
H           8.194000     -7.747000     11.486000
C          16.893000      1.020000     12.750000
C          18.058000      1.711000     12.337000
N          16.821000     -0.321000     12.790000
C          19.198000      1.033000     11.911000
C          17.899000     -0.979000     12.462000
C          19.122000     -0.389000     11.937000
C          20.275000     -1.236000     11.501000
C          20.898000     -0.932000     10.234000
C          20.948000     -2.143000     12.350000
N          22.062000     -1.412000      9.806000
N          20.575000     -2.461000     13.571000
C          22.166000     -2.604000     11.960000
C          22.796000     -2.246000     10.660000
S          21.717000     -3.494000     14.090000
N          22.722000     -3.461000     12.840000
C          24.047000     -2.895000     10.144000
S          24.984000     -4.141000     11.071000
C          24.728000     -2.610000      9.003000
C          26.296000     -4.131000      9.883000
S          24.247000     -1.596000      7.656000
C          25.923000     -3.300000      8.888000
C          27.328000     -5.099000      9.731000
C          25.767000     -2.108000      6.826000
C          26.531000     -2.988000      7.620000
N          27.348000     -6.116000     10.592000
S          28.831000     -4.803000      8.859000
C          28.487000     -6.851000     10.522000
C          29.364000     -6.299000      9.618000
C          15.600000      1.712000     13.050000
H          18.016000      2.794000     12.275000
H          20.081000      1.544000     11.538000
H          17.800000     -2.059000     12.357000
H          20.611000     -0.038000      9.682000
H          26.000000     -1.633000      5.883000
H          27.431000     -3.530000      7.351000
H          28.602000     -7.683000     11.204000
H          30.405000     -6.512000      9.414000
H          15.078000      1.889000     12.102000
C          15.796000      2.951000     13.822000
H          14.898000      1.025000     13.539000
H          16.509000      3.613000     13.315000
H          16.263000      2.716000     14.786000
C          14.481000      3.744000     13.997000
H          13.753000      3.195000     14.607000
C          13.772000      4.182000     12.726000
H          14.877000      4.619000     14.528000
H          13.362000      3.277000     12.261000
H          14.438000      4.650000     11.991000
C          12.623000      5.197000     12.960000
H          11.751000      4.658000     13.350000
C          12.159000      5.885000     11.771000
H          12.771000      5.913000     13.778000
H          12.973000      6.465000     11.320000
H          11.415000      6.624000     12.093000
H          11.635000      5.303000     11.002000
$end

--------------------------------------------------------------

             Standard Nuclear Orientation (Angstroms)
    I     Atom           X                Y                Z
 ----------------------------------------------------------------
    1      C       5.9400573505     0.8276735375    -2.0859095600
    2      C       4.7169156238     1.5176590339    -1.9305604970
    3      N       6.0373809304    -0.4576826531    -1.8939054352
    4      C       3.5618569168     0.7674121216    -1.6177810956
    5      C       4.9239651402    -1.1103674237    -1.6045460247
    6      C       3.6495329071    -0.5825166957    -1.4361355372
    7      C       2.3864609019    -1.4047296153    -1.1708431995
    8      C       1.2673393301    -0.8369463366    -0.5579622519
    9      C       2.2303921582    -2.7424046347    -1.6130977525
   10      N       0.1274211645    -1.4845605811    -0.3109574618
   11      N       3.1687873474    -3.4646950147    -2.1963893397
   12      C       1.0386923089    -3.3851222018    -1.4805511635
   13      C      -0.0095937453    -2.7647741347    -0.7831641661
   14      S       2.4804640990    -4.9055585878    -2.5698960592
   15      N       0.9918640689    -4.6471544776    -2.0109799060
   16      C      -1.3085115626    -3.4459468248    -0.5676385988
   17      S      -1.9250805486    -4.8405506882    -1.4372918340
   18      C      -2.1550116245    -3.1838206408     0.5008016236
   19      C      -3.3473231762    -4.9071314027    -0.4809331581
   20      S      -2.0362370575    -1.9940343564     1.8069173151
   21      C      -3.2804872556    -3.9583188598     0.5123390694
   22      C      -4.2404048016    -6.0104616777    -0.4198224829
   23      C      -3.5806153819    -2.6027195361     2.3356515992
   24      C      -4.1339062773    -3.6596344578     1.6105219328
   25      N      -4.1820959922    -6.7105046321    -1.5522115260
   26      S      -5.3120556040    -6.5286460195     0.7931225058
   27      C      -5.0111699502    -7.7644438171    -1.4841338756
   28      C      -5.7090435442    -7.8259096769    -0.3319657478
   29      C       7.2496555984     1.5556924958    -2.6017688676
   30      H       4.5910669431     2.5874824889    -2.0722957599
   31      H       2.5651927277     1.1636649409    -1.4451392773
   32      H       5.0980288261    -2.1813631497    -1.5159515094
   33      H       1.3079019577     0.1856494429    -0.1839748926
   34      H      -4.0539491217    -2.2163541414     3.2287193192
   35      H      -5.0315126789    -4.1835472542     1.9185919405
   36      H      -5.1041966773    -8.3708051510    -2.3755866005
   37      H      -6.5327523308    -8.4209632752     0.0386432782
   38      H       7.3625740307     2.4864875380    -2.0323147281
   39      C       7.2845507845     1.8987993475    -4.1470565478
   40      H       8.1682002427     1.0260454912    -2.3193015474
   41      H       6.5502632178     2.6797040299    -4.3765247295
   42      H       6.9724441095     0.9819529841    -4.6624507361
   43      C       8.6257547875     2.3078234516    -4.6594002844
   44      H       8.5957582249     2.6786378252    -5.6911128929
   45      C       9.8049203574     1.2262310892    -4.5350438592
   46      H       8.9024687130     3.2048301674    -4.0905669562
   47      H       9.3998622352     0.2395814868    -4.7918949442
   48      H      10.0847255245     1.2455657832    -3.4742732723
   49      C      10.9889922630     1.5416469642    -5.3996105415
   50      H      11.1239769620     2.6276941287    -5.4863209076
   51      C      10.8503867455     0.9873800187    -6.7836165615
   52      H      11.9689817577     1.2407697603    -5.0097984092
   53      H      11.7723839247     1.2946046647    -7.2920221264
   54      H       9.9226469172     1.3327771313    -7.2555685142
   55      H      10.8070154453    -0.1091342392    -6.7894827860
   56      C       3.9071935067     1.6124258252     3.3869249377
   57      C       2.7280634382     1.4518467463     4.1544805651
   58      N       3.8875790280     1.9904417650     2.0978228388
   59      C       1.4638894380     1.6454323624     3.6020778981
   60      C       2.7189846897     2.2453614801     1.5762528902
   61      C       1.4366036116     2.0316488166     2.2314472644
   62      C       0.1439191491     2.2669279117     1.5169372029
   63      C      -0.8844023679     1.2588590034     1.6273271207
   64      C      -0.2273774431     3.5087614351     0.9544717900
   65      N      -2.1565632895     1.4047254733     1.2684266300
   66      N       0.5516778898     4.5650622100     0.8628450413
   67      C      -1.5337188888     3.7021001735     0.6316139892
   68      C      -2.5768251258     2.6520075280     0.7874947584
   69      S      -0.3862747136     5.7056515944     0.1846748783
   70      N      -1.7815251539     4.9179901879     0.1041781846
   71      C      -3.9751427361     2.7948519658     0.2614136550
   72      S      -4.5865893636     4.2900390332    -0.5634273328
   73      C      -5.0111621770     1.9251014800     0.3920460030
   74      C      -6.2438848618     3.6696742323    -0.5995817972
   75      S      -4.9961525442     0.2723241204     0.9769115521
   76      C      -6.2102679464     2.4203126066    -0.0919594660
   77      C      -7.3272808707     4.1517651931    -1.3863431292
   78      C      -6.7505316531     0.1877797274     0.5568518090
   79      C      -7.2245053210     1.4040125990     0.0233177762
   80      N      -7.0991597610     5.2105124738    -2.1628899435
   81      S      -9.0207840726     3.8026592240    -1.0440261305
   82      C      -8.2330322993     5.7392644522    -2.6893881982
   83      C      -9.3409755165     5.0766906643    -2.2155667096
   84      C       5.2664445129     1.2493077720     3.8980951457
   85      H       2.8252648959     1.0855256147     5.1717601260
   86      H       0.5467001939     1.4733136474     4.1580257720
   87      H       2.6895501990     2.4124295320     0.4999407250
   88      H      -0.7591310190     0.4198642265     2.3104843892
   89      H      -7.2840322481    -0.7096503398     0.8382045941
   90      H      -8.1977686765     1.6191792903    -0.4039839155
   91      H      -8.1459278053     6.6191372120    -3.3129342941
   92      H     -10.3952655765     5.3086460726    -2.2886088747
   93      H       5.4060208078     0.1699500991     3.7638473452
   94      C       5.4687242643     1.6714210579     5.2946710570
   95      H       6.0467180177     1.6358823540     3.2305418891
   96      H       4.6696449560     1.2792808455     5.9360448270
   97      H       5.3815875204     2.7621571578     5.3675541698
   98      C       6.8089785218     1.1608029278     5.8705934914
   99      H       7.6691132323     1.6094542880     5.3583774855
  100      C       7.0196962727    -0.3443366797     5.8814926420
  101      H       6.7085590688     1.5344878606     6.8975684203
  102      H       7.1555682808    -0.6553071235     4.8383310148
  103      H       6.1637875262    -0.9044296832     6.2771200490
  104      C       8.2455066791    -0.8057194376     6.7119725023
  105      H       9.1568062390    -0.6068930607     6.1349056224
  106      C       8.2795526835    -2.2215185885     7.0229622672
  107      H       8.4699522271    -0.2156900320     7.6092871051
  108      H       7.4020176890    -2.5062680540     7.6156232793
  109      H       9.1434710878    -2.3894339526     7.6777831750
  110      H       8.4309431965    -2.9331172609     6.2011537481
 ----------------------------------------------------------------

    9   -5663.4914626892      7.01E-06 Convergence criterion met
 Total energy in the final basis set = -5663.4914626892

                    Orbital Energies (a.u.)
 --------------------------------------------------------------

 Alpha MOs
 -- Occupied --
-88.989 -88.986 -88.930 -88.930 -88.918 -88.918 -88.910 -88.909
-14.385 -14.384 -14.375 -14.375 -14.349 -14.347 -14.340 -14.331
-14.325 -14.317 -10.272 -10.267 -10.259 -10.259 -10.253 -10.247
-10.247 -10.246 -10.243 -10.235 -10.234 -10.233 -10.233 -10.233
-10.233 -10.231 -10.226 -10.225 -10.225 -10.224 -10.224 -10.224
-10.223 -10.223 -10.222 -10.221 -10.221 -10.215 -10.213 -10.209
-10.206 -10.204 -10.202 -10.201 -10.201 -10.198 -10.197 -10.195
-10.181 -10.177 -10.177 -10.177 -10.176 -10.174 -10.174 -10.173
-10.172 -10.169 -10.167 -10.165  -8.044  -8.042  -7.992  -7.992
 -7.977  -7.976  -7.970  -7.968  -6.009  -6.007  -6.004  -6.002
 -6.002  -6.000  -5.956  -5.955  -5.953  -5.952  -5.949  -5.949
 -5.941  -5.940  -5.937  -5.936  -5.934  -5.934  -5.933  -5.932
 -5.931  -5.929  -5.926  -5.925  -1.051  -1.044  -0.977  -0.970
 -0.954  -0.947  -0.946  -0.943  -0.916  -0.914  -0.909  -0.905
 -0.847  -0.835  -0.830  -0.829  -0.817  -0.813  -0.811  -0.810
 -0.805  -0.801  -0.797  -0.796  -0.791  -0.775  -0.766  -0.766
 -0.750  -0.749  -0.741  -0.739  -0.722  -0.719  -0.711  -0.704
 -0.692  -0.688  -0.675  -0.674  -0.657  -0.654  -0.644  -0.637
 -0.636  -0.634  -0.622  -0.622  -0.612  -0.609  -0.603  -0.600
 -0.594  -0.590  -0.586  -0.581  -0.579  -0.576  -0.563  -0.557
 -0.545  -0.544  -0.539  -0.537  -0.527  -0.523  -0.520  -0.519
 -0.507  -0.504  -0.500  -0.493  -0.485  -0.482  -0.477  -0.475
 -0.473  -0.471  -0.469  -0.466  -0.464  -0.453  -0.450  -0.448
 -0.443  -0.442  -0.440  -0.436  -0.434  -0.433  -0.433  -0.432
 -0.430  -0.423  -0.422  -0.416  -0.415  -0.415  -0.411  -0.410
 -0.409  -0.407  -0.405  -0.401  -0.401  -0.400  -0.397  -0.396
 -0.395  -0.393  -0.393  -0.390  -0.389  -0.388  -0.384  -0.383
 -0.380  -0.377  -0.376  -0.373  -0.372  -0.359  -0.356  -0.353
 -0.350  -0.350  -0.349  -0.346  -0.344  -0.344  -0.340  -0.335
 -0.334  -0.332  -0.329  -0.329  -0.327  -0.325  -0.320  -0.317
 -0.310  -0.309  -0.307  -0.304  -0.303  -0.302  -0.299  -0.298
 -0.296  -0.294  -0.293  -0.292  -0.289  -0.286  -0.281  -0.278
 -0.275  -0.272  -0.260  -0.260  -0.253  -0.252  -0.247  -0.244
 -0.243  -0.242  -0.230  -0.229  -0.193  -0.190

          Ground-State Mulliken Net Atomic Charges

     Atom                 Charge (a.u.)
  ----------------------------------------
      1 C                     0.261355
      2 C                    -0.118562
      3 N                    -0.465084
      4 C                    -0.078156
      5 C                     0.059826
      6 C                     0.077842
      7 C                     0.046201
      8 C                     0.054719
      9 C                     0.269388
     10 N                    -0.530903
     11 N                    -0.571157
     12 C                     0.194978
     13 C                     0.272469
     14 S                     0.610019
     15 N                    -0.549224
     16 C                    -0.232093
     17 S                     0.370636
     18 C                    -0.118565
     19 C                    -0.208147
     20 S                     0.321173
     21 C                     0.138558
     22 C                     0.059629
     23 C                    -0.309151
     24 C                    -0.096145
     25 N                    -0.434041
     26 S                     0.275368
     27 C                     0.144818
     28 C                    -0.327077
     29 C                    -0.229796
     30 H                     0.091778
     31 H                     0.089170
     32 H                     0.110654
     33 H                     0.106611
     34 H                     0.121429
     35 H                     0.110676
     36 H                     0.115332
     37 H                     0.128684
     38 H                     0.095111
     39 C                    -0.172839
     40 H                     0.116025
     41 H                     0.090261
     42 H                     0.102778
     43 C                    -0.186092
     44 H                     0.089687
     45 C                    -0.166396
     46 H                     0.088837
     47 H                     0.096387
     48 H                     0.093487
     49 C                    -0.179002
     50 H                     0.090945
     51 C                    -0.308875
     52 H                     0.089021
     53 H                     0.096119
     54 H                     0.102855
     55 H                     0.101642
     56 C                     0.263930
     57 C                    -0.111474
     58 N                    -0.469873
     59 C                    -0.063554
     60 C                     0.107693
     61 C                     0.010761
     62 C                    -0.053355
     63 C                     0.096321
     64 C                     0.278526
     65 N                    -0.504452
     66 N                    -0.551546
     67 C                     0.173431
     68 C                     0.288625
     69 S                     0.598688
     70 N                    -0.536838
     71 C                    -0.240260
     72 S                     0.349578
     73 C                    -0.109279
     74 C                    -0.216284
     75 S                     0.313409
     76 C                     0.146315
     77 C                     0.054676
     78 C                    -0.325643
     79 C                    -0.071201
     80 N                    -0.428435
     81 S                     0.274396
     82 C                     0.139536
     83 C                    -0.321299
     84 C                    -0.220567
     85 H                     0.088222
     86 H                     0.104350
     87 H                     0.085471
     88 H                     0.110427
     89 H                     0.131224
     90 H                     0.097520
     91 H                     0.124639
     92 H                     0.129059
     93 H                     0.119726
     94 C                    -0.188902
     95 H                     0.118923
     96 H                     0.090685
     97 H                     0.100862
     98 C                    -0.177969
     99 H                     0.094644
    100 C                    -0.169708
    101 H                     0.086834
    102 H                     0.099261
    103 H                     0.084626
    104 C                    -0.173700
    105 H                     0.091109
    106 C                    -0.313866
    107 H                     0.093759
    108 H                     0.097159
    109 H                     0.096454
    110 H                     0.104201
  ----------------------------------------
  Sum of atomic charges =     0.000000

                    Cartesian Multipole Moments
 -----------------------------------------------------------------
    Charge (ESU x 10^10)
                 0.0000
    Dipole Moment (Debye)
         X      -4.3770      Y      -0.4489      Z       2.6479
       Tot       5.1352
    Quadrupole Moments (Debye-Ang)
        XX    -399.7975     XY       9.4397     YY    -420.3137
        XZ       2.4161     YZ     -10.8524     ZZ    -432.4353

 Total job time:  91.86s(wall), 993.51s(cpu)
        *  Thank you very much for using Q-Chem.  Have a nice day.  *
