 Q-Chem 4.4, Q-Chem, Inc., Pleasanton, CA (2016)
 Q-Chem 4.4.2 for Intel X86 Linux

User input:
--------------------------------------------------------------
$comment
SP
$end

$rem
MEM_STATIC 5000
MEM_TOTAL 20000
JOBTYPE SP
EXCHANGE B3LYP
BASIS 6-31g(d,p)
$end

$molecule
0 1
C          16.843000      7.190000     12.151000
C          17.307000      7.861000     11.064000
N          17.443000      6.092000     12.654000
C          18.516000      7.509000     10.475000
C          18.638000      5.724000     12.101000
C          19.313000      6.488000     11.179000
C          20.698000      6.083000     10.620000
C          21.049000      4.731000     10.680000
C          21.599000      7.037000     10.149000
N          22.248000      4.325000     10.221000
N          21.373000      8.367000     10.122000
C          22.816000      6.636000      9.631000
C          23.177000      5.286000      9.773000
S          22.576000      8.965000      9.345000
N          23.514000      7.653000      9.034000
C          24.479000      4.715000      9.245000
S          25.575000      5.634000      8.358000
C          24.943000      3.383000      9.392000
C          26.697000      4.244000      8.064000
S          24.293000      2.054000     10.392000
C          26.139000      3.172000      8.762000
C          27.998000      4.124000      7.418000
C          25.780000      1.149000      9.948000
C          26.531000      1.828000      9.010000
N          28.505000      5.269000      7.110000
S          28.890000      2.689000      6.980000
C          29.586000      5.081000      6.286000
C          30.006000      3.768000      6.224000
C          15.516000      7.576000     12.807000
H          16.704000      8.650000     10.627000
H          18.889000      7.984000      9.573000
H          19.179000      4.870000     12.506000
H          20.334000      4.001000     11.057000
H          25.908000      0.178000     10.409000
H          27.374000      1.346000      8.528000
H          30.032000      5.970000      5.860000
H          30.919000      3.390000      5.783000
H          14.862000      7.889000     11.984000
C          15.565000      8.574000     13.975000
H          15.269000      6.627000     13.298000
H          15.898000      9.569000     13.656000
H          16.257000      8.230000     14.753000
C          14.139000      8.723000     14.604000
H          13.775000      7.699000     14.754000
C          13.210000      9.530000     13.712000
H          14.270000      9.188000     15.589000
H          13.259000      9.057000     12.723000
H          13.638000     10.518000     13.499000
C          11.777000      9.671000     14.296000
H          11.239000     10.282000     13.560000
C          11.791000     10.238000     15.698000
H          11.195000      8.751000     14.427000
H          10.814000     10.654000     15.972000
H          12.622000     10.951000     15.765000
H          11.914000      9.532000     16.529000
C          16.893000      1.020000     12.750000
C          18.058000      1.711000     12.337000
N          16.821000     -0.321000     12.790000
C          19.198000      1.033000     11.911000
C          17.899000     -0.979000     12.462000
C          19.122000     -0.389000     11.937000
C          20.275000     -1.236000     11.501000
C          20.898000     -0.932000     10.234000
C          20.948000     -2.143000     12.350000
N          22.062000     -1.412000      9.806000
N          20.575000     -2.461000     13.571000
C          22.166000     -2.604000     11.960000
C          22.796000     -2.246000     10.660000
S          21.717000     -3.494000     14.090000
N          22.722000     -3.461000     12.840000
C          24.047000     -2.895000     10.144000
S          24.984000     -4.141000     11.071000
C          24.728000     -2.610000      9.003000
C          26.296000     -4.131000      9.883000
S          24.247000     -1.596000      7.656000
C          25.923000     -3.300000      8.888000
C          27.328000     -5.099000      9.731000
C          25.767000     -2.108000      6.826000
C          26.531000     -2.988000      7.620000
N          27.348000     -6.116000     10.592000
S          28.831000     -4.803000      8.859000
C          28.487000     -6.851000     10.522000
C          29.364000     -6.299000      9.618000
C          15.600000      1.712000     13.050000
H          18.016000      2.794000     12.275000
H          20.081000      1.544000     11.538000
H          17.800000     -2.059000     12.357000
H          20.611000     -0.038000      9.682000
H          26.000000     -1.633000      5.883000
H          27.431000     -3.530000      7.351000
H          28.602000     -7.683000     11.204000
H          30.405000     -6.512000      9.414000
H          15.078000      1.889000     12.102000
C          15.796000      2.951000     13.822000
H          14.898000      1.025000     13.539000
H          16.509000      3.613000     13.315000
H          16.263000      2.716000     14.786000
C          14.481000      3.744000     13.997000
H          13.753000      3.195000     14.607000
C          13.772000      4.182000     12.726000
H          14.877000      4.619000     14.528000
H          13.362000      3.277000     12.261000
H          14.438000      4.650000     11.991000
C          12.623000      5.197000     12.960000
H          11.751000      4.658000     13.350000
C          12.159000      5.885000     11.771000
H          12.771000      5.913000     13.778000
H          12.973000      6.465000     11.320000
H          11.415000      6.624000     12.093000
H          11.635000      5.303000     11.002000
$end

--------------------------------------------------------------

             Standard Nuclear Orientation (Angstroms)
    I     Atom           X                Y                Z
 ----------------------------------------------------------------
    1      C       7.1332670177     0.9325219204    -0.0168687330
    2      C       6.9054566453     2.1025659364     0.6359753791
    3      N       6.1482711478     0.1699191623    -0.5334277031
    4      C       5.6256621247     2.6413383401     0.7019775164
    5      C       4.8786918113     0.6754878156    -0.4906884327
    6      C       4.5872938378     1.9577583507    -0.0903454600
    7      C       3.1493827599     2.5290910894    -0.1172087032
    8      C       2.0906603417     1.6163393194    -0.0908259911
    9      C       2.9130773705     3.8970374990    -0.2462063125
   10      N       0.8191115552     2.0579127760    -0.1268060707
   11      N       3.8717855254     4.8406894789    -0.3515847470
   12      C       1.6158945321     4.3739744325    -0.2383421235
   13      C       0.5714608504     3.4361375545    -0.2893840158
   14      S       3.1157557728     6.1940077033    -0.2774848366
   15      N       1.5399894520     5.7409657096    -0.1793907277
   16      C      -0.8944091710     3.8249405187    -0.2800923293
   17      S      -1.4052318031     5.4202604330    -0.1171180686
   18      C      -2.0053097874     2.9494356525    -0.3826596223
   19      C      -3.1634058694     4.9890595403    -0.0995185601
   20      S      -2.0502817816     1.2061533781    -0.7669582453
   21      C      -3.2014497589     3.6082441227    -0.2986502878
   22      C      -4.3892959754     5.7765086196    -0.0616451463
   23      C      -3.8351030943     1.3907177310    -0.8545874717
   24      C      -4.2391442212     2.6494556428    -0.4580832005
   25      N      -4.1703369405     7.0398439906    -0.1994082817
   26      S      -6.0354706747     5.2534126449     0.1897757377
   27      C      -5.3141542581     7.7352936239     0.1021091332
   28      C      -6.4329963928     6.9336170908     0.2006992649
   29      C       8.5401620372     0.3372288314    -0.0976990631
   30      H       7.7250886134     2.5959522269     1.1477100810
   31      H       5.3969937435     3.5422274012     1.2627516876
   32      H       4.0594358971     0.1132372790    -0.9364642521
   33      H       2.2951407593     0.5507711194     0.0040748513
   34      H      -4.3953741537     0.5141386318    -1.1536717790
   35      H      -5.2906308854     2.8669741965    -0.3085556984
   36      H      -5.2312386649     8.8134865219     0.1386888975
   37      H      -7.4654162922     7.2510264994     0.2662310791
   38      H       9.0172012078     0.5807890381     0.8594456780
   39      C       9.3931962994     0.6949417197    -1.3252995832
   40      H       8.2862738207    -0.7161538226    -0.2668639468
   41      H       9.6524563421     1.7601495129    -1.3534347492
   42      H       8.8573489039     0.4628590751    -2.2534640163
   43      C      10.7273179709    -0.1240671506    -1.2995734072
   44      H      10.4316846571    -1.1621473312    -1.1032000833
   45      C      11.6911026455     0.3996657008    -0.2475387113
   46      H      11.1537162202    -0.0741900370    -2.3091811560
   47      H      11.1217948236     0.4326645726     0.6900383140
   48      H      11.9005909928     1.4648759892    -0.4092133033
   49      C      13.0144175811    -0.4117274040    -0.1775043579
   50      H      13.6028228068     0.0886083328     0.6021779113
   51      C      13.6961301068    -0.4990862096    -1.5246960560
   52      H      12.9420978272    -1.4670342413     0.1112556332
   53      H      14.7577880648    -0.7536432799    -1.4210424113
   54      H      13.5052963716     0.4389323337    -2.0605343692
   55      H      13.3912083107    -1.3124586561    -2.1951988238
   56      C       3.5660235673    -4.1132640918     0.4781248881
   57      C       2.9863677157    -2.8454153017     0.2294613824
   58      N       2.8310591822    -5.2155913277     0.7012101133
   59      C       1.6058515632    -2.6586069878     0.2356100959
   60      C       1.5344614999    -5.0809445800     0.6434459066
   61      C       0.8220806409    -3.8210374115     0.4865974490
   62      C      -0.6716753604    -3.7566241309     0.5247804013
   63      C      -1.2850032152    -2.7278764099     1.3318374433
   64      C      -1.5109480145    -4.4668755123    -0.3626560119
   65      N      -2.5661992665    -2.3733025524     1.2958644301
   66      N      -1.1080455329    -5.3672366691    -1.2333530761
   67      C      -2.8123493809    -4.0857210532    -0.4586808099
   68      C      -3.4071345059    -2.9985220920     0.3655115668
   69      S      -2.4631313540    -5.8211881171    -2.0068416024
   70      N      -3.5248330990    -4.8256170261    -1.3321256568
   71      C      -4.8776483182    -2.7003405538     0.3991998178
   72      S      -6.1005540060    -3.5779935155    -0.6127492705
   73      C      -5.5146665884    -1.7067009860     1.0728133069
   74      C      -7.3941915762    -2.4748672435    -0.1204056255
   75      S      -4.8836352317    -0.6276274998     2.3021895059
   76      C      -6.8656795869    -1.6220854169     0.7813444692
   77      C      -8.7962046170    -2.6734360926    -0.2621160545
   78      C      -6.5566750172     0.0296570139     2.4764276878
   79      C      -7.4630607171    -0.5939790816     1.5943421005
   80      N      -9.2005955353    -3.7924294739    -0.8623924890
   81      S      -9.9849232054    -1.3744708054    -0.1805912107
   82      C     -10.5244223421    -3.7876686587    -1.1622356484
   83      C     -11.0916204623    -2.5802921644    -0.8282037737
   84      C       5.0396202021    -4.3151269135     0.6468772483
   85      H       3.6487223455    -1.9924998170     0.1184725523
   86      H       1.1437606917    -1.6845913173     0.1025518378
   87      H       0.9391269978    -5.9359415776     0.9624803321
   88      H      -0.6725218634    -1.9541086218     1.7927701973
   89      H      -6.6890459611     0.8781627674     3.1334504572
   90      H      -8.5399559494    -0.4776599990     1.5405691557
   91      H     -10.9360484764    -4.6464951614    -1.6756107198
   92      H     -12.0632606475    -2.1622550479    -1.0558577210
   93      H       5.3033981574    -4.0659467235     1.6816948280
   94      C       5.8243932904    -3.5445927552    -0.3328825747
   95      H       5.2881390554    -5.3836910363     0.6294676254
   96      H       5.5480347560    -2.4833656029    -0.2999448798
   97      H       5.5719594403    -3.8721905965    -1.3485433476
   98      C       7.3434213344    -3.6298867561    -0.0608940915
   99      H       7.7246313862    -4.6493696582    -0.1980746609
  100      C       7.8237556022    -3.1428307335     1.2963168066
  101      H       7.6978228610    -2.9548903546    -0.8503124951
  102      H       7.4787963749    -3.8735449570     2.0382129280
  103      H       7.4098848694    -2.1690129261     1.5847520586
  104      C       9.3636510771    -2.9958644887     1.4072440325
  105      H       9.8049540316    -3.9930246307     1.5252624785
  106      C       9.8271814974    -2.2249731752     2.5444454800
  107      H       9.8846367796    -2.6766276860     0.4960109330
  108      H       9.4391117169    -1.2004341233     2.4984174811
  109      H      10.9161339371    -2.1312034657     2.4510065938
  110      H       9.6849491034    -2.6409491142     3.5501268233
 ----------------------------------------------------------------

    9   -5663.4741902153      8.48E-06 Convergence criterion met
 Total energy in the final basis set = -5663.4741902153

                    Orbital Energies (a.u.)
 --------------------------------------------------------------

 Alpha MOs
 -- Occupied --
-88.998 -88.986 -88.932 -88.930 -88.925 -88.920 -88.911 -88.907
-14.392 -14.389 -14.383 -14.375 -14.358 -14.351 -14.341 -14.338
-14.335 -14.322 -10.272 -10.272 -10.268 -10.265 -10.259 -10.258
-10.253 -10.247 -10.245 -10.245 -10.241 -10.239 -10.235 -10.235
-10.234 -10.234 -10.233 -10.231 -10.229 -10.228 -10.227 -10.227
-10.227 -10.226 -10.226 -10.223 -10.223 -10.221 -10.221 -10.220
-10.213 -10.211 -10.208 -10.204 -10.202 -10.200 -10.198 -10.195
-10.186 -10.184 -10.181 -10.180 -10.177 -10.172 -10.171 -10.170
-10.169 -10.169 -10.166 -10.165  -8.054  -8.042  -7.993  -7.992
 -7.984  -7.978  -7.970  -7.965  -6.019  -6.013  -6.012  -6.007
 -6.001  -6.000  -5.957  -5.956  -5.954  -5.952  -5.950  -5.949
 -5.948  -5.944  -5.942  -5.941  -5.938  -5.935  -5.934  -5.931
 -5.930  -5.927  -5.926  -5.922  -1.060  -1.050  -0.978  -0.971
 -0.952  -0.945  -0.942  -0.942  -0.917  -0.915  -0.909  -0.909
 -0.842  -0.837  -0.836  -0.827  -0.814  -0.813  -0.811  -0.810
 -0.808  -0.805  -0.797  -0.796  -0.790  -0.787  -0.770  -0.765
 -0.751  -0.749  -0.738  -0.738  -0.722  -0.721  -0.710  -0.709
 -0.692  -0.691  -0.678  -0.674  -0.659  -0.656  -0.653  -0.636
 -0.635  -0.632  -0.631  -0.620  -0.612  -0.611  -0.603  -0.603
 -0.594  -0.594  -0.587  -0.584  -0.580  -0.577  -0.563  -0.556
 -0.545  -0.543  -0.541  -0.537  -0.529  -0.524  -0.521  -0.520
 -0.509  -0.503  -0.503  -0.495  -0.494  -0.484  -0.483  -0.477
 -0.476  -0.472  -0.471  -0.468  -0.464  -0.461  -0.457  -0.450
 -0.448  -0.447  -0.441  -0.440  -0.437  -0.435  -0.434  -0.432
 -0.430  -0.428  -0.424  -0.421  -0.420  -0.417  -0.416  -0.412
 -0.412  -0.409  -0.408  -0.402  -0.401  -0.400  -0.397  -0.397
 -0.396  -0.394  -0.393  -0.390  -0.389  -0.387  -0.387  -0.384
 -0.380  -0.377  -0.372  -0.371  -0.370  -0.365  -0.359  -0.356
 -0.353  -0.352  -0.348  -0.348  -0.347  -0.346  -0.342  -0.342
 -0.337  -0.335  -0.334  -0.333  -0.329  -0.322  -0.321  -0.319
 -0.312  -0.311  -0.309  -0.307  -0.304  -0.303  -0.303  -0.301
 -0.298  -0.297  -0.295  -0.294  -0.286  -0.284  -0.281  -0.280
 -0.279  -0.273  -0.272  -0.262  -0.258  -0.254  -0.249  -0.246
 -0.245  -0.243  -0.235  -0.229  -0.194  -0.193

          Ground-State Mulliken Net Atomic Charges

     Atom                 Charge (a.u.)
  ----------------------------------------
      1 C                     0.277510
      2 C                    -0.097544
      3 N                    -0.506787
      4 C                    -0.063435
      5 C                     0.066622
      6 C                     0.037066
      7 C                     0.013804
      8 C                     0.085767
      9 C                     0.209670
     10 N                    -0.524543
     11 N                    -0.517773
     12 C                     0.218234
     13 C                     0.279083
     14 S                     0.621907
     15 N                    -0.563493
     16 C                    -0.235801
     17 S                     0.365545
     18 C                    -0.130101
     19 C                    -0.215174
     20 S                     0.274869
     21 C                     0.157008
     22 C                     0.053039
     23 C                    -0.295167
     24 C                    -0.096164
     25 N                    -0.413959
     26 S                     0.283197
     27 C                     0.112936
     28 C                    -0.320122
     29 C                    -0.239374
     30 H                     0.090157
     31 H                     0.113062
     32 H                     0.099731
     33 H                     0.115415
     34 H                     0.141717
     35 H                     0.104867
     36 H                     0.113643
     37 H                     0.133018
     38 H                     0.102040
     39 C                    -0.185941
     40 H                     0.139334
     41 H                     0.088224
     42 H                     0.102635
     43 C                    -0.176038
     44 H                     0.100869
     45 C                    -0.182588
     46 H                     0.092858
     47 H                     0.090479
     48 H                     0.090792
     49 C                    -0.169789
     50 H                     0.092825
     51 C                    -0.320322
     52 H                     0.096574
     53 H                     0.097884
     54 H                     0.102198
     55 H                     0.107387
     56 C                     0.265197
     57 C                    -0.116528
     58 N                    -0.471826
     59 C                    -0.072673
     60 C                     0.106275
     61 C                     0.001401
     62 C                    -0.028777
     63 C                     0.063657
     64 C                     0.281984
     65 N                    -0.498945
     66 N                    -0.548477
     67 C                     0.174372
     68 C                     0.283096
     69 S                     0.602769
     70 N                    -0.538466
     71 C                    -0.243684
     72 S                     0.349350
     73 C                    -0.104770
     74 C                    -0.216404
     75 S                     0.298320
     76 C                     0.144862
     77 C                     0.055402
     78 C                    -0.319472
     79 C                    -0.074708
     80 N                    -0.428088
     81 S                     0.271637
     82 C                     0.139573
     83 C                    -0.321422
     84 C                    -0.218689
     85 H                     0.086461
     86 H                     0.114296
     87 H                     0.097317
     88 H                     0.118225
     89 H                     0.134293
     90 H                     0.097764
     91 H                     0.125182
     92 H                     0.129296
     93 H                     0.115325
     94 C                    -0.204407
     95 H                     0.113752
     96 H                     0.123630
     97 H                     0.095279
     98 C                    -0.179599
     99 H                     0.088086
    100 C                    -0.171409
    101 H                     0.091824
    102 H                     0.092721
    103 H                     0.093049
    104 C                    -0.181666
    105 H                     0.088000
    106 C                    -0.316325
    107 H                     0.100990
    108 H                     0.095533
    109 H                     0.097669
    110 H                     0.101899
  ----------------------------------------
  Sum of atomic charges =     0.000000

                    Cartesian Multipole Moments
 -----------------------------------------------------------------
    Charge (ESU x 10^10)
                 0.0000
    Dipole Moment (Debye)
         X      -1.8159      Y       4.2839      Z       0.4383
       Tot       4.6735
    Quadrupole Moments (Debye-Ang)
        XX    -362.5390     XY       1.8940     YY    -446.2094
        XZ       8.5008     YZ      13.8612     ZZ    -449.5883

 Total job time:  91.64s(wall), 1033.07s(cpu)
        *  Thank you very much for using Q-Chem.  Have a nice day.  *
