 Q-Chem 4.4, Q-Chem, Inc., Pleasanton, CA (2016)
 Q-Chem 4.4.2 for Intel X86 Linux

User input:
--------------------------------------------------------------
$comment
SP
$end

$rem
MEM_STATIC 5000
MEM_TOTAL 20000
JOBTYPE SP
EXCHANGE B3LYP
BASIS 6-31g(d,p)
$end

$molecule
0 1
C          16.843000      7.190000     12.151000
C          17.307000      7.861000     11.064000
N          17.443000      6.092000     12.654000
C          18.516000      7.509000     10.475000
C          18.638000      5.724000     12.101000
C          19.313000      6.488000     11.179000
C          20.698000      6.083000     10.620000
C          21.049000      4.731000     10.680000
C          21.599000      7.037000     10.149000
N          22.248000      4.325000     10.221000
N          21.373000      8.367000     10.122000
C          22.816000      6.636000      9.631000
C          23.177000      5.286000      9.773000
S          22.576000      8.965000      9.345000
N          23.514000      7.653000      9.034000
C          24.479000      4.715000      9.245000
S          25.575000      5.634000      8.358000
C          24.943000      3.383000      9.392000
C          26.697000      4.244000      8.064000
S          24.293000      2.054000     10.392000
C          26.139000      3.172000      8.762000
C          27.998000      4.124000      7.418000
C          25.780000      1.149000      9.948000
C          26.531000      1.828000      9.010000
N          28.505000      5.269000      7.110000
S          28.890000      2.689000      6.980000
C          29.586000      5.081000      6.286000
C          30.006000      3.768000      6.224000
C          15.516000      7.576000     12.807000
H          16.704000      8.650000     10.627000
H          18.889000      7.984000      9.573000
H          19.179000      4.870000     12.506000
H          20.334000      4.001000     11.057000
H          25.908000      0.178000     10.409000
H          27.374000      1.346000      8.528000
H          30.032000      5.970000      5.860000
H          30.919000      3.390000      5.783000
H          14.862000      7.889000     11.984000
C          15.565000      8.574000     13.975000
H          15.269000      6.627000     13.298000
H          15.898000      9.569000     13.656000
H          16.257000      8.230000     14.753000
C          14.139000      8.723000     14.604000
H          13.775000      7.699000     14.754000
C          13.210000      9.530000     13.712000
H          14.270000      9.188000     15.589000
H          13.259000      9.057000     12.723000
H          13.638000     10.518000     13.499000
C          11.777000      9.671000     14.296000
H          11.239000     10.282000     13.560000
C          11.791000     10.238000     15.698000
H          11.195000      8.751000     14.427000
H          10.814000     10.654000     15.972000
H          12.622000     10.951000     15.765000
H          11.914000      9.532000     16.529000
C          20.981000      5.424000     14.755000
C          21.893000      6.483000     14.643000
N          21.240000      4.215000     14.196000
C          23.151000      6.242000     14.075000
C          22.395000      4.029000     13.604000
C          23.417000      5.017000     13.441000
C          24.776000      4.755000     12.982000
C          25.361000      3.471000     13.084000
C          25.489000      5.760000     12.233000
N          26.632000      3.176000     12.618000
N          25.005000      7.010000     12.037000
C          26.775000      5.428000     11.744000
C          27.302000      4.119000     11.915000
S          26.308000      7.767000     11.369000
N          27.318000      6.494000     11.217000
C          28.652000      3.802000     11.410000
S          29.514000      4.680000     10.222000
C          29.221000      2.597000     11.604000
C          30.915000      3.491000     10.236000
S          28.911000      1.366000     12.767000
C          30.549000      2.519000     11.117000
C          32.047000      3.595000      9.425000
C          30.590000      0.738000     12.549000
C          31.357000      1.510000     11.662000
N          32.541000      2.468000      9.050000
S          32.313000      4.925000      8.331000
C          33.366000      2.545000      7.977000
C          33.469000      3.839000      7.490000
C          19.556000      5.598000     15.275000
H          21.690000      7.462000     15.069000
H          23.890000      7.032000     14.170000
H          22.579000      3.037000     13.193000
H          24.830000      2.626000     13.518000
H          30.781000     -0.149000     13.139000
H          32.406000      1.429000     11.402000
H          33.883000      1.659000      7.632000
H          34.051000      4.151000      6.632000
H          19.249000      6.651000     15.257000
C          19.624000      5.166000     16.795000
H          18.797000      5.073000     14.682000
H          20.328000      5.813000     17.333000
H          20.056000      4.158000     16.838000
C          18.210000      4.997000     17.480000
H          17.610000      5.887000     17.253000
C          18.273000      4.921000     19.035000
H          17.620000      4.162000     17.082000
H          17.295000      5.241000     19.415000
H          19.002000      5.543000     19.568000
C          18.578000      3.459000     19.524000
H          17.850000      2.721000     19.165000
C          18.507000      3.488000     21.109000
H          19.558000      3.100000     19.186000
H          18.453000      2.428000     21.386000
H          17.686000      4.125000     21.461000
H          19.438000      3.964000     21.443000
$end

--------------------------------------------------------------

             Standard Nuclear Orientation (Angstroms)
    I     Atom           X                Y                Z
 ----------------------------------------------------------------
    1      C       7.2337234707     1.9549486660     0.9199389188
    2      C       6.5870272391     3.1183133692     0.6452162383
    3      N       6.6059297470     0.8464815880     1.3624191755
    4      C       5.1995867248     3.1885644067     0.6960061097
    5      C       5.2402405177     0.8811975930     1.4166937370
    6      C       4.4883860072     1.9155292682     0.9124341008
    7      C       2.9410203451     1.8990633415     0.9233602639
    8      C       2.3100516075     1.0733065787     1.8586191697
    9      C       2.1998555510     2.6149843416    -0.0157296518
   10      N       0.9657723585     1.0093636686     1.9026941618
   11      N       2.7254508207     3.3776430113    -0.9969566215
   12      C       0.8190434493     2.5991227809     0.0418928311
   13      C       0.2097207934     1.7044485366     0.9370290763
   14      S       1.5122594139     4.1025288290    -1.6382437350
   15      N       0.2292522138     3.4918683101    -0.8142927321
   16      C      -1.2934785344     1.5914004358     1.1032846267
   17      S      -2.3708160863     2.5963634209     0.2896881679
   18      C      -1.9887290774     0.6820641413     1.9404603466
   19      C      -3.8319479461     1.8951300193     1.0964008832
   20      S      -1.3721184877    -0.7177021004     2.8619736940
   21      C      -3.3442673512     0.8626865151     1.8988845578
   22      C      -5.2646351024     2.1163544812     0.9454563587
   23      C      -3.0938471301    -1.1111656421     3.1908610958
   24      C      -3.9409439798    -0.1227868612     2.7321451566
   25      N      -5.5451723932     2.8733485533    -0.0601264590
   26      S      -6.5838585682     1.5555474576     1.9413870438
   27      C      -6.8631509675     3.2492256975     0.0071777027
   28      C      -7.5909544311     2.5317484411     0.9344001707
   29      C       8.7599832705     1.8697627425     0.8604798396
   30      H       7.1643606514     4.0107863778     0.4277833521
   31      H       4.6532471392     4.1134234332     0.5394595086
   32      H       4.6904242402    -0.0067644050     1.7253157568
   33      H       2.9061747320     0.5166674731     2.5804530332
   34      H      -3.2824237047    -2.0269030250     3.7363974566
   35      H      -4.9937813863    -0.1385288180     2.9901811743
   36      H      -7.1964678555     3.9818599818    -0.7159127879
   37      H      -8.6654054940     2.5229039909     1.0625043822
   38      H       9.1221005796     2.8430668056     1.2134164560
   39      C       9.3947920070     1.4139210663    -0.4630968429
   40      H       8.9238670355     1.0132562454     1.5254833975
   41      H       9.2285296329     2.1351732600    -1.2723107182
   42      H       8.9743499449     0.4543589476    -0.7870613666
   43      C      10.9404793929     1.2461865878    -0.2786147305
   44      H      11.0652078739     0.6559547890     0.6377046623
   45      C      11.6473238704     2.5886756166    -0.1889035697
   46      H      11.3011773348     0.6471644637    -1.1240025051
   47      H      11.1219040392     3.1519795032     0.5926805476
   48      H      11.4331187823     3.1999306032    -1.0750076954
   49      C      13.1807585262     2.4554397305     0.0238224399
   50      H      13.5455212700     3.4901690028     0.0511074859
   51      C      13.8248989450     1.5865327028    -1.0332360723
   52      H      13.5198465199     1.9776382191     0.9506503895
   53      H      14.9048905245     1.7662141209    -1.0964324022
   54      H      13.2836020199     1.7434603830    -1.9744004267
   55      H      13.8429942165     0.5035811835    -0.8571265387
   56      C       4.0405062296    -1.9313171268    -0.3926607305
   57      C       3.4475756118    -1.4603721961    -1.5726663045
   58      N       3.3005178027    -2.1508403159     0.7233454063
   59      C       2.0517445036    -1.3588999062    -1.6406949137
   60      C       2.0019194882    -1.9807138879     0.6618277984
   61      C       1.2739448579    -1.5259357299    -0.4829109336
   62      C      -0.1776083957    -1.5454427283    -0.6200919420
   63      C      -0.9857553068    -2.4157340869     0.1485279390
   64      C      -0.8396438819    -0.5357830432    -1.4085659968
   65      N      -2.3693086084    -2.4296790619     0.0763628550
   66      N      -0.1649992381     0.3751340875    -2.1503588153
   67      C      -2.2543436565    -0.5529271657    -1.4469277870
   68      C      -2.9914614396    -1.4823260361    -0.6637763881
   69      S      -1.3879426626     1.0734982233    -3.0069677775
   70      N      -2.6673122064     0.3374129869    -2.3104585563
   71      C      -4.4656122711    -1.4907310107    -0.7332219218
   72      S      -5.4540938153    -0.2122220482    -1.2932139482
   73      C      -5.2058684653    -2.3928785237    -0.0612303803
   74      C      -7.0017583548    -1.1177303431    -0.8913343631
   75      S      -4.8094609103    -3.9423739403     0.5759156032
   76      C      -6.5938541973    -2.2867959101    -0.3240593873
   77      C      -8.2875314210    -0.6095944718    -1.0876671380
   78      C      -6.5508569027    -4.4154402941     0.5073793172
   79      C      -7.3702757431    -3.4237666301    -0.0549178536
   80      N      -9.1499574594    -0.9843203567    -0.2098335322
   81      S      -8.5944003440     0.9430205241    -1.8168517090
   82      C     -10.2636552937    -0.2135295936    -0.1511672437
   83      C     -10.2106780993     0.8482088750    -1.0411778286
   84      C       5.5515423443    -1.9957243129    -0.1830835975
   85      H       4.0309758400    -1.2617992564    -2.4678416848
   86      H       1.6224253639    -1.1670667629    -2.6195366381
   87      H       1.4377914957    -2.1948607791     1.5688789089
   88      H      -0.5623374324    -3.1155073971     0.8664252978
   89      H      -6.7274782524    -5.4064054082     0.9050513447
   90      H      -8.4257394636    -3.4535658247    -0.2991929910
   91      H     -11.0753225325    -0.4913877639     0.5086063013
   92      H     -10.9689111178     1.6107418072    -1.1671072414
   93      H       6.0836398914    -1.3699128249    -0.9101421796
   94      C       5.9404652076    -3.4961460143    -0.4979196253
   95      H       5.8823132615    -1.6317568280     0.7974638365
   96      H       5.6693240782    -3.7399465467    -1.5326721505
   97      H       5.3168349100    -4.1433314697     0.1319797621
   98      C       7.4163298871    -3.8791954891    -0.0828551154
   99      H       8.0933620598    -3.1086310457    -0.4720682650
  100      C       7.9117279523    -5.2212526737    -0.7002960196
  101      H       7.5896647292    -3.8720652863     1.0004884094
  102      H       9.0074901474    -5.1795916010    -0.7295118853
  103      H       7.6100950694    -5.4788372161    -1.7225884472
  104      C       7.4519153811    -6.4516171344     0.1624702831
  105      H       7.7874829145    -6.3993281201     1.2056238143
  106      C       8.1046620503    -7.7376337914    -0.4994888876
  107      H       6.3600143362    -6.5489333397     0.2049751566
  108      H       7.9892909963    -8.5120948684     0.2687197820
  109      H       9.1288798704    -7.5371284505    -0.8378518071
  110      H       7.5124541518    -7.9456886990    -1.3999865058
 ----------------------------------------------------------------

   10   -5663.4670796622      8.89E-06 Convergence criterion met
 Total energy in the final basis set = -5663.4670796622

                    Orbital Energies (a.u.)
 --------------------------------------------------------------

 Alpha MOs
 -- Occupied --
-88.993 -88.978 -88.927 -88.926 -88.924 -88.912 -88.905 -88.900
-14.387 -14.383 -14.377 -14.377 -14.352 -14.347 -14.338 -14.331
-14.328 -14.323 -10.266 -10.262 -10.261 -10.258 -10.253 -10.252
-10.249 -10.246 -10.239 -10.237 -10.236 -10.236 -10.236 -10.235
-10.231 -10.227 -10.224 -10.224 -10.224 -10.224 -10.223 -10.223
-10.221 -10.220 -10.220 -10.220 -10.216 -10.215 -10.214 -10.213
-10.204 -10.201 -10.200 -10.198 -10.197 -10.196 -10.191 -10.191
-10.182 -10.181 -10.179 -10.178 -10.177 -10.177 -10.175 -10.174
-10.174 -10.173 -10.170 -10.169  -8.049  -8.034  -7.988  -7.986
 -7.983  -7.971  -7.963  -7.960  -6.014  -6.009  -6.008  -5.999
 -5.993  -5.991  -5.952  -5.950  -5.948  -5.947  -5.947  -5.945
 -5.943  -5.943  -5.940  -5.935  -5.932  -5.928  -5.928  -5.925
 -5.925  -5.921  -5.920  -5.917  -1.055  -1.034  -0.983  -0.975
 -0.946  -0.944  -0.938  -0.934  -0.912  -0.909  -0.907  -0.903
 -0.840  -0.835  -0.829  -0.827  -0.810  -0.809  -0.806  -0.803
 -0.799  -0.792  -0.791  -0.790  -0.786  -0.777  -0.766  -0.762
 -0.747  -0.747  -0.735  -0.731  -0.720  -0.713  -0.706  -0.702
 -0.689  -0.686  -0.674  -0.669  -0.655  -0.650  -0.644  -0.640
 -0.631  -0.629  -0.624  -0.619  -0.607  -0.604  -0.599  -0.596
 -0.592  -0.590  -0.584  -0.581  -0.578  -0.573  -0.562  -0.560
 -0.550  -0.539  -0.536  -0.533  -0.524  -0.518  -0.516  -0.509
 -0.503  -0.499  -0.498  -0.496  -0.489  -0.486  -0.480  -0.471
 -0.471  -0.470  -0.467  -0.459  -0.456  -0.453  -0.449  -0.447
 -0.444  -0.443  -0.438  -0.438  -0.434  -0.432  -0.431  -0.427
 -0.425  -0.422  -0.420  -0.417  -0.416  -0.414  -0.413  -0.411
 -0.409  -0.406  -0.402  -0.398  -0.396  -0.396  -0.394  -0.393
 -0.392  -0.390  -0.387  -0.386  -0.386  -0.383  -0.383  -0.380
 -0.375  -0.373  -0.367  -0.363  -0.362  -0.360  -0.355  -0.353
 -0.350  -0.347  -0.346  -0.344  -0.342  -0.340  -0.338  -0.337
 -0.336  -0.331  -0.331  -0.328  -0.328  -0.325  -0.322  -0.318
 -0.315  -0.309  -0.308  -0.306  -0.302  -0.299  -0.298  -0.296
 -0.293  -0.288  -0.286  -0.283  -0.280  -0.277  -0.277  -0.276
 -0.271  -0.268  -0.266  -0.264  -0.255  -0.254  -0.248  -0.242
 -0.239  -0.231  -0.230  -0.223  -0.192  -0.185

          Ground-State Mulliken Net Atomic Charges

     Atom                 Charge (a.u.)
  ----------------------------------------
      1 C                     0.272101
      2 C                    -0.099268
      3 N                    -0.508381
      4 C                    -0.066571
      5 C                     0.062230
      6 C                     0.036562
      7 C                     0.015302
      8 C                     0.087820
      9 C                     0.216698
     10 N                    -0.524271
     11 N                    -0.517331
     12 C                     0.239934
     13 C                     0.280982
     14 S                     0.613630
     15 N                    -0.579216
     16 C                    -0.244193
     17 S                     0.358523
     18 C                    -0.135942
     19 C                    -0.215941
     20 S                     0.274345
     21 C                     0.158428
     22 C                     0.054280
     23 C                    -0.289422
     24 C                    -0.093449
     25 N                    -0.410272
     26 S                     0.290355
     27 C                     0.109453
     28 C                    -0.311581
     29 C                    -0.228498
     30 H                     0.085467
     31 H                     0.109519
     32 H                     0.118770
     33 H                     0.128457
     34 H                     0.137321
     35 H                     0.107286
     36 H                     0.109691
     37 H                     0.131603
     38 H                     0.100525
     39 C                    -0.185677
     40 H                     0.124390
     41 H                     0.087285
     42 H                     0.101372
     43 C                    -0.167114
     44 H                     0.094096
     45 C                    -0.181827
     46 H                     0.091083
     47 H                     0.088515
     48 H                     0.090456
     49 C                    -0.167392
     50 H                     0.091970
     51 C                    -0.319742
     52 H                     0.095413
     53 H                     0.097167
     54 H                     0.101696
     55 H                     0.106883
     56 C                     0.249023
     57 C                    -0.119103
     58 N                    -0.480056
     59 C                    -0.059493
     60 C                     0.072939
     61 C                     0.033260
     62 C                     0.035240
     63 C                     0.050468
     64 C                     0.206256
     65 N                    -0.537679
     66 N                    -0.580947
     67 C                     0.277780
     68 C                     0.338888
     69 S                     0.592399
     70 N                    -0.575641
     71 C                    -0.200824
     72 S                     0.325838
     73 C                    -0.129224
     74 C                    -0.232033
     75 S                     0.268273
     76 C                     0.155737
     77 C                     0.032041
     78 C                    -0.337544
     79 C                    -0.012432
     80 N                    -0.410751
     81 S                     0.267556
     82 C                     0.122699
     83 C                    -0.323979
     84 C                    -0.219582
     85 H                     0.088229
     86 H                     0.111032
     87 H                     0.103492
     88 H                     0.117463
     89 H                     0.129235
     90 H                     0.117299
     91 H                     0.120199
     92 H                     0.128423
     93 H                     0.099121
     94 C                    -0.188820
     95 H                     0.138246
     96 H                     0.092990
     97 H                     0.113666
     98 C                    -0.184350
     99 H                     0.083021
    100 C                    -0.173603
    101 H                     0.101149
    102 H                     0.087197
    103 H                     0.089925
    104 C                    -0.182893
    105 H                     0.091443
    106 C                    -0.320836
    107 H                     0.098824
    108 H                     0.099718
    109 H                     0.104237
    110 H                     0.102964
  ----------------------------------------
  Sum of atomic charges =     0.000000

                    Cartesian Multipole Moments
 -----------------------------------------------------------------
    Charge (ESU x 10^10)
                 0.0000
    Dipole Moment (Debye)
         X      -2.4960      Y       2.5478      Z      -1.5204
       Tot       3.8772
    Quadrupole Moments (Debye-Ang)
        XX    -385.3034     XY       4.8457     YY    -434.6095
        XZ     -13.5749     YZ      -7.4260     ZZ    -444.2548

 Total job time:  134.42s(wall), 1427.01s(cpu)
        *  Thank you very much for using Q-Chem.  Have a nice day.  *
