 Q-Chem 4.4, Q-Chem, Inc., Pleasanton, CA (2016)
 Q-Chem 4.4.2 for Intel X86 Linux

User input:
--------------------------------------------------------------
$comment
SP
$end

$rem
MEM_STATIC 5000
MEM_TOTAL 20000
JOBTYPE SP
EXCHANGE B3LYP
BASIS 6-31g(d,p)
$end

$molecule
0 1
C          27.952000     25.571000      3.414000
C          27.599000     24.604000      4.397000
N          27.133000     26.535000      2.951000
C          26.241000     24.589000      4.845000
C          25.829000     26.450000      3.314000
C          25.272000     25.424000      4.210000
C          23.851000     25.504000      4.519000
C          23.331000     25.193000      5.803000
C          22.794000     25.886000      3.576000
N          22.036000     25.238000      6.171000
N          23.099000     26.218000      2.379000
C          21.485000     26.022000      3.990000
C          21.093000     25.624000      5.324000
S          21.721000     26.751000      1.886000
N          20.707000     26.554000      3.102000
C          19.729000     25.628000      5.836000
S          18.209000     26.356000      5.031000
C          19.274000     24.953000      6.961000
C          17.118000     25.600000      6.238000
S          20.139000     23.926000      8.091000
C          17.860000     24.970000      7.172000
C          15.687000     25.774000      6.201000
C          18.598000     23.736000      8.959000
C          17.472000     24.223000      8.313000
N          14.838000     25.199000      7.018000
S          14.906000     26.837000      5.010000
C          13.466000     25.451000      6.702000
C          13.367000     26.361000      5.669000
C          29.487000     25.728000      2.993000
H          28.341000     23.987000      4.896000
H          25.926000     23.867000      5.593000
H          25.199000     27.196000      2.831000
H          23.997000     24.848000      6.593000
H          18.619000     23.140000      9.862000
H          16.446000     24.112000      8.644000
H          12.714000     24.945000      7.292000
H          12.478000     26.754000      5.193000
H          29.845000     24.864000      2.420000
C          30.486000     26.144000      4.085000
H          29.535000     26.559000      2.279000
H          30.442000     25.418000      4.907000
H          30.081000     27.071000      4.509000
C          31.989000     26.344000      3.696000
H          32.221000     25.447000      3.109000
C          32.986000     26.324000      4.833000
H          32.101000     27.221000      3.047000
H          32.970000     25.410000      5.439000
H          32.824000     27.166000      5.517000
C          34.413000     26.675000      4.232000
H          34.696000     26.035000      3.387000
C          35.427000     26.735000      5.345000
H          34.311000     27.642000      3.724000
H          35.238000     27.364000      6.224000
H          36.414000     26.954000      4.920000
H          35.439000     25.718000      5.757000
C          23.084000     21.687000     -1.982000
C          23.206000     22.753000     -1.063000
N          21.850000     21.195000     -2.160000
C          22.077000     23.296000     -0.370000
C          20.795000     21.737000     -1.551000
C          20.793000     22.762000     -0.657000
C          19.594000     23.551000     -0.257000
C          19.518000     24.957000     -0.331000
C          18.468000     22.863000      0.309000
N          18.491000     25.678000      0.038000
N          18.381000     21.546000      0.546000
C          17.307000     23.655000      0.687000
C          17.406000     25.046000      0.594000
S          16.892000     21.414000      1.209000
N          16.295000     22.937000      1.219000
C          16.196000     25.808000      0.891000
S          14.534000     25.295000      0.762000
C          16.204000     27.103000      1.401000
C          13.872000     26.876000      1.292000
S          17.596000     28.083000      1.714000
C          14.932000     27.667000      1.598000
C          12.487000     27.286000      1.109000
C          16.432000     29.422000      1.863000
C          15.086000     29.038000      1.978000
N          12.231000     28.600000      1.209000
S          11.237000     26.220000      0.514000
C          10.957000     28.787000      0.662000
C          10.228000     27.600000      0.357000
C          24.317000     21.126000     -2.727000
H          24.202000     23.142000     -0.877000
H          22.210000     24.176000      0.251000
H          19.812000     21.454000     -1.923000
H          20.368000     25.478000     -0.769000
H          16.884000     30.403000      1.920000
H          14.209000     29.639000      2.192000
H          10.567000     29.796000      0.687000
H           9.174000     27.495000      0.137000
H          24.039000     20.822000     -3.744000
C          24.781000     19.836000     -1.930000
H          25.152000     21.837000     -2.698000
H          23.915000     19.187000     -1.748000
H          24.918000     20.230000     -0.915000
C          25.996000     19.139000     -2.631000
H          26.581000     19.963000     -3.056000
C          25.706000     18.145000     -3.788000
H          26.604000     18.513000     -1.966000
H          25.004000     17.370000     -3.455000
H          26.661000     17.640000     -3.975000
C          25.097000     18.675000     -5.102000
H          24.001000     18.702000     -5.072000
C          25.276000     17.602000     -6.215000
H          25.479000     19.680000     -5.321000
H          24.727000     17.901000     -7.116000
H          24.969000     16.582000     -5.949000
H          26.320000     17.600000     -6.552000
$end

--------------------------------------------------------------

             Standard Nuclear Orientation (Angstroms)
    I     Atom           X                Y                Z
 ----------------------------------------------------------------
    1      C      -7.3187683709     2.0377340139     0.8395312162
    2      C      -7.0754431932     2.3410076322    -0.5297039610
    3      N      -6.3848048163     2.0491835616     1.8101016600
    4      C      -5.7187252715     2.5681576018    -0.9206161917
    5      C      -5.0948874411     2.1738801717     1.4101342603
    6      C      -4.6617964775     2.3507610766     0.0148255624
    7      C      -3.2340001597     2.5014261684    -0.2297551097
    8      C      -2.7181446392     3.3793820544    -1.2191304399
    9      C      -2.1679953250     1.7799202841     0.4741518099
   10      N      -1.4178511648     3.5759662880    -1.5107903784
   11      N      -2.4650270650     0.9636012219     1.4130092720
   12      C      -0.8387999472     2.0608304347     0.2339391231
   13      C      -0.4603921736     2.9505934633    -0.8415855441
   14      S      -1.0429006750     0.6681087408     1.9753816792
   15      N      -0.0245191797     1.4932255014     1.0655781502
   16      C       0.9074145419     3.2413471008    -1.2505147694
   17      S       2.4869892170     2.7647614839    -0.3751754092
   18      C       1.2996913319     3.8042646424    -2.4577917722
   19      C       3.4990744436     3.2872697184    -1.7612975679
   20      S       0.3356901815     4.3335770368    -3.8254116650
   21      C       2.7076919124     3.8399150648    -2.7036970641
   22      C       4.9377534821     3.1903584505    -1.7465724117
   23      C       1.8631455694     4.8089451023    -4.6032999860
   24      C       3.0237618532     4.3867816915    -3.9731342170
   25      N       5.7227726008     3.4996512967    -2.7500652709
   26      S       5.8217515908     2.6366260720    -0.3077052195
   27      C       7.1042600267     3.2114799884    -2.5172696758
   28      C       7.2975040157     2.7875570090    -1.2180637382
   29      C      -8.8285971496     1.9255142171     1.3552237372
   30      H      -7.8810139679     2.5298221563    -1.2337343598
   31      H      -5.4856857889     2.8010058225    -1.9557429016
   32      H      -4.3804927536     2.0769382339     2.2268027923
   33      H      -3.3978868542     3.9473005486    -1.8532440773
   34      H       1.7882948378     5.2747187144    -5.5772190331
   35      H       4.0338829597     4.5009290986    -4.3488784381
   36      H       7.7951284796     3.3732931217    -3.3334542693
   37      H       8.2163420883     2.4875945758    -0.7311293124
   38      H      -9.3305301889     1.0331515439     0.9618523050
   39      C      -9.7145903502     3.1768281796     1.2423059985
   40      H      -8.7804530134     1.7486648363     2.4364579573
   41      H      -9.7472752056     3.4999331222     0.1938638702
   42      H      -9.1624628944     3.9695097808     1.7618646108
   43      C     -11.1852904497     3.1104537555     1.7742511583
   44      H     -11.5680395709     2.1756326226     1.3469169100
   45      C     -12.1316573959     4.1763227941     1.2687901849
   46      H     -11.1912491290     3.0194671081     2.8672104092
   47      H     -12.2276155736     4.2220866524     0.1771924122
   48      H     -11.8225871340     5.1731227883     1.6063243975
   49      C     -13.5129080962     3.9985972318     2.0312146910
   50      H     -13.9178822218     2.9813187605     1.9615406676
   51      C     -14.4652211066     5.0868813414     1.6077732818
   52      H     -13.2889022648     4.0507274058     3.1039032909
   53      H     -14.1535200873     6.1376343904     1.6603423263
   54      H     -15.4244131624     4.9438350662     2.1198703071
   55      H     -14.6111583448     4.9176250441     0.5334215571
   56      C      -3.2768428539    -5.0755928210    -0.1418532418
   57      C      -3.2069131100    -3.7330997515     0.2924544709
   58      N      -2.1358957867    -5.6127978135    -0.5958957353
   59      C      -1.9855601152    -2.9864258828     0.2697829969
   60      C      -0.9909447790    -4.9301853669    -0.5676567924
   61      C      -0.8053897106    -3.6434054859    -0.1681172396
   62      C       0.5104329122    -3.0277128667     0.1630253642
   63      C       0.7892548591    -2.3780344230     1.3829697243
   64      C       1.5433788097    -3.0200697247    -0.8342410773
   65      N       1.9239293703    -1.8050274771     1.6910408094
   66      N       1.4447766775    -3.5028959458    -2.0813912125
   67      C       2.8212659487    -2.4174708473    -0.4850304632
   68      C       2.9242001765    -1.7727579518     0.7507206554
   69      S       2.9217615700    -3.1667721255    -2.6975489884
   70      N       3.7358633479    -2.4418510031    -1.4778089910
   71      C       4.2431202152    -1.2598246696     1.1116948645
   72      S       5.8058623338    -1.8123072517     0.5688743904
   73      C       4.4442237085    -0.1605826103     1.9414016079
   74      C       6.7119728974    -0.6217777201     1.5589794762
   75      S       3.2237448052     0.7588941592     2.7544371035
   76      C       5.7916569976     0.1589569977     2.1805813946
   77      C       8.1344304558    -0.7170619707     1.8545288058
   78      C       4.5764368281     1.4465964715     3.6857307311
   79      C       5.8547920129     1.2022193017     3.1580141211
   80      N       8.5841078536     0.0141942487     2.8866075719
   81      S       9.1914843507    -1.9054759284     1.1312098386
   82      C       9.8506335171    -0.4934631841     3.1955584977
   83      C      10.3856599766    -1.4406289887     2.2735722580
   84      C      -4.6055638233    -5.8645484265    -0.0961954074
   85      H      -4.1274312990    -3.2676087437     0.6299413380
   86      H      -1.9648404248    -1.9919259248     0.7036845157
   87      H      -0.0745960481    -5.4983401681    -0.7168785243
   88      H       0.0093434169    -2.3921069722     2.1427888512
   89      H       4.2757933956     2.0469825986     4.5337071605
   90      H       6.8178412673     1.5978881035     3.4615076677
   91      H      10.3852087978     0.0030493598     3.9946270574
   92      H      11.4039496954    -1.7957259818     2.1879383033
   93      H      -4.4130377090    -6.9166546353     0.1487438111
   94      C      -5.2241261015    -5.7970357532    -1.5547658538
   95      H      -5.3254702634    -5.3850690653     0.5786536570
   96      H      -4.4566659566    -6.0683623993    -2.2907466804
   97      H      -5.2641376647    -4.7157206962    -1.7374864668
   98      C      -6.5533946703    -6.6201937769    -1.6490576344
   99      H      -7.0263923947    -6.4964652411    -0.6678387993
  100      C      -6.4554971017    -8.1466296317    -1.9158808854
  101      H      -7.2216891395    -6.3090873597    -2.4616831937
  102      H      -5.8630583576    -8.3362331118    -2.8199742737
  103      H      -7.4805526523    -8.4616510917    -2.1440071614
  104      C      -5.8243253496    -9.0598311671    -0.8453379506
  105      H      -4.7358877985    -9.1388550078    -0.9544430833
  106      C      -6.1999912241   -10.5386242406    -1.1522340184
  107      H      -6.0624653237    -8.6897761157     0.1597782674
  108      H      -5.6467614738   -11.2120279200    -0.4866009905
  109      H      -6.0364496688   -10.8682362693    -2.1866493461
  110      H      -7.2447180922   -10.7138770862    -0.8670302118
 ----------------------------------------------------------------

   10   -5663.4916990458      3.17E-06 Convergence criterion met
 Total energy in the final basis set = -5663.4916990458

                    Orbital Energies (a.u.)
 --------------------------------------------------------------

 Alpha MOs
 -- Occupied --
-88.987 -88.984 -88.932 -88.920 -88.919 -88.917 -88.909 -88.906
-14.394 -14.390 -14.389 -14.387 -14.352 -14.350 -14.346 -14.340
-14.336 -14.325 -10.273 -10.267 -10.263 -10.262 -10.259 -10.256
-10.256 -10.254 -10.246 -10.240 -10.239 -10.239 -10.238 -10.238
-10.237 -10.237 -10.235 -10.234 -10.233 -10.233 -10.232 -10.230
-10.227 -10.226 -10.226 -10.224 -10.224 -10.222 -10.222 -10.219
-10.213 -10.210 -10.208 -10.206 -10.204 -10.199 -10.198 -10.194
-10.193 -10.186 -10.184 -10.183 -10.181 -10.181 -10.181 -10.181
-10.178 -10.176 -10.172 -10.172  -8.043  -8.043  -7.993  -7.979
 -7.978  -7.977  -7.969  -7.966  -6.008  -6.007  -6.002  -6.002
 -6.001  -6.000  -5.957  -5.954  -5.951  -5.944  -5.942  -5.941
 -5.940  -5.938  -5.938  -5.936  -5.935  -5.933  -5.933  -5.931
 -5.930  -5.928  -5.925  -5.922  -1.092  -1.041  -0.964  -0.963
 -0.961  -0.955  -0.950  -0.940  -0.934  -0.919  -0.909  -0.903
 -0.841  -0.835  -0.833  -0.832  -0.816  -0.811  -0.806  -0.804
 -0.801  -0.798  -0.793  -0.790  -0.780  -0.779  -0.764  -0.761
 -0.747  -0.746  -0.740  -0.740  -0.716  -0.714  -0.711  -0.709
 -0.694  -0.694  -0.674  -0.674  -0.658  -0.652  -0.648  -0.643
 -0.635  -0.634  -0.628  -0.624  -0.612  -0.610  -0.596  -0.595
 -0.591  -0.590  -0.585  -0.583  -0.580  -0.580  -0.574  -0.562
 -0.557  -0.552  -0.545  -0.541  -0.527  -0.523  -0.514  -0.509
 -0.507  -0.506  -0.501  -0.499  -0.495  -0.490  -0.481  -0.478
 -0.476  -0.472  -0.470  -0.466  -0.464  -0.460  -0.446  -0.444
 -0.441  -0.440  -0.437  -0.436  -0.432  -0.431  -0.430  -0.427
 -0.426  -0.424  -0.422  -0.421  -0.419  -0.415  -0.413  -0.411
 -0.409  -0.409  -0.405  -0.404  -0.402  -0.399  -0.396  -0.392
 -0.391  -0.390  -0.390  -0.388  -0.387  -0.386  -0.384  -0.382
 -0.377  -0.377  -0.375  -0.374  -0.368  -0.368  -0.364  -0.361
 -0.356  -0.355  -0.353  -0.351  -0.348  -0.347  -0.345  -0.340
 -0.338  -0.337  -0.335  -0.332  -0.331  -0.325  -0.322  -0.321
 -0.319  -0.317  -0.317  -0.311  -0.309  -0.306  -0.301  -0.300
 -0.300  -0.297  -0.294  -0.290  -0.288  -0.282  -0.281  -0.276
 -0.274  -0.270  -0.269  -0.264  -0.255  -0.252  -0.247  -0.246
 -0.243  -0.238  -0.230  -0.230  -0.193  -0.191

          Ground-State Mulliken Net Atomic Charges

     Atom                 Charge (a.u.)
  ----------------------------------------
      1 C                     0.249188
      2 C                    -0.108656
      3 N                    -0.460341
      4 C                    -0.089198
      5 C                     0.079799
      6 C                     0.033263
      7 C                     0.044262
      8 C                     0.042658
      9 C                     0.193608
     10 N                    -0.527830
     11 N                    -0.508411
     12 C                     0.205242
     13 C                     0.314667
     14 S                     0.577148
     15 N                    -0.530453
     16 C                    -0.226334
     17 S                     0.309170
     18 C                    -0.101071
     19 C                    -0.240903
     20 S                     0.281851
     21 C                     0.165453
     22 C                     0.078245
     23 C                    -0.315224
     24 C                    -0.045935
     25 N                    -0.464894
     26 S                     0.279560
     27 C                     0.118964
     28 C                    -0.315736
     29 C                    -0.234049
     30 H                     0.102511
     31 H                     0.103092
     32 H                     0.119645
     33 H                     0.103448
     34 H                     0.123302
     35 H                     0.134098
     36 H                     0.122583
     37 H                     0.138529
     38 H                     0.098286
     39 C                    -0.184422
     40 H                     0.116754
     41 H                     0.081735
     42 H                     0.101416
     43 C                    -0.173247
     44 H                     0.092399
     45 C                    -0.172374
     46 H                     0.096489
     47 H                     0.091876
     48 H                     0.096041
     49 C                    -0.180118
     50 H                     0.094267
     51 C                    -0.315881
     52 H                     0.093237
     53 H                     0.105646
     54 H                     0.098054
     55 H                     0.101198
     56 C                     0.278070
     57 C                    -0.134514
     58 N                    -0.490676
     59 C                    -0.095948
     60 C                     0.092551
     61 C                     0.056985
     62 C                    -0.000071
     63 C                     0.076111
     64 C                     0.217804
     65 N                    -0.488652
     66 N                    -0.532292
     67 C                     0.200654
     68 C                     0.261319
     69 S                     0.606092
     70 N                    -0.539212
     71 C                    -0.199103
     72 S                     0.312095
     73 C                    -0.130133
     74 C                    -0.258611
     75 S                     0.299025
     76 C                     0.182324
     77 C                     0.061414
     78 C                    -0.311431
     79 C                    -0.057339
     80 N                    -0.433061
     81 S                     0.291633
     82 C                     0.104914
     83 C                    -0.313173
     84 C                    -0.223150
     85 H                     0.086460
     86 H                     0.100097
     87 H                     0.098211
     88 H                     0.111054
     89 H                     0.127397
     90 H                     0.126971
     91 H                     0.112828
     92 H                     0.139730
     93 H                     0.127381
     94 C                    -0.181339
     95 H                     0.103290
     96 H                     0.113628
     97 H                     0.092850
     98 C                    -0.186867
     99 H                     0.090044
    100 C                    -0.165854
    101 H                     0.093286
    102 H                     0.094790
    103 H                     0.091108
    104 C                    -0.180142
    105 H                     0.110111
    106 C                    -0.327526
    107 H                     0.091073
    108 H                     0.097325
    109 H                     0.107532
    110 H                     0.100331
  ----------------------------------------
  Sum of atomic charges =     0.000000

                    Cartesian Multipole Moments
 -----------------------------------------------------------------
    Charge (ESU x 10^10)
                 0.0000
    Dipole Moment (Debye)
         X       1.0774      Y       0.2719      Z      -0.8535
       Tot       1.4011
    Quadrupole Moments (Debye-Ang)
        XX    -370.8215     XY      -5.7788     YY    -457.9191
        XZ       8.6287     YZ      -2.8301     ZZ    -439.7549

 Total job time:  97.96s(wall), 1053.09s(cpu)
        *  Thank you very much for using Q-Chem.  Have a nice day.  *
