 Q-Chem 4.4, Q-Chem, Inc., Pleasanton, CA (2016)
 Q-Chem 4.4.2 for Intel X86 Linux

User input:
--------------------------------------------------------------
$comment
SP
$end

$rem
MEM_STATIC 5000
MEM_TOTAL 20000
JOBTYPE SP
EXCHANGE B3LYP
BASIS 6-31g(d,p)
$end

$molecule
0 1
C           1.660000     19.364000     10.275000
C           2.955000     19.706000     10.345000
N           1.173000     18.657000      9.271000
C           3.882000     19.380000      9.378000
C           2.051000     18.337000      8.292000
C           3.432000     18.658000      8.255000
C           4.375000     18.176000      7.140000
C           5.651000     17.692000      7.391000
C           3.960000     18.113000      5.781000
N           6.467000     17.141000      6.471000
N           2.748000     18.528000      5.360000
C           4.885000     17.685000      4.809000
C           6.156000     17.148000      5.145000
S           2.842000     18.124000      3.727000
N           4.347000     17.690000      3.592000
C           7.163000     16.507000      4.237000
S           8.390000     15.417000      4.873000
C           7.484000     16.860000      2.960000
C           9.404000     15.772000      3.430000
S           6.761000     18.063000      1.924000
C           8.671000     16.406000      2.506000
C          10.763000     15.306000      3.380000
C           7.988000     17.745000      0.658000
C           9.066000     16.951000      1.226000
N          11.425000     15.278000      2.245000
S          11.665000     14.717000      4.801000
C          12.717000     14.700000      2.391000
C          12.991000     14.298000      3.686000
C           0.655000     19.571000     11.391000
H           3.318000     20.161000     11.262000
H           4.925000     19.631000      9.552000
H           1.688000     17.706000      7.482000
H           6.012000     17.683000      8.418000
H           7.943000     18.337000     -0.246000
H           9.941000     16.695000      0.641000
H          13.384000     14.538000      1.554000
H          13.977000     13.989000      4.007000
H           0.360000     20.616000     11.547000
C           1.039000     19.002000     12.785000
H          -0.354000     19.252000     11.100000
H           0.273000     19.385000     13.470000
H           2.058000     19.280000     13.082000
C           0.848000     17.468000     12.710000
H          -0.163000     17.234000     12.354000
C           0.949000     16.914000     14.164000
H           1.606000     17.066000     12.027000
H           0.127000     17.360000     14.738000
H           1.874000     17.171000     14.695000
C           0.736000     15.443000     14.309000
H          -0.196000     15.067000     13.870000
C           0.715000     15.030000     15.805000
H           1.559000     14.903000     13.825000
H           0.835000     13.943000     15.890000
H          -0.240000     15.336000     16.250000
H           1.589000     15.541000     16.228000
C          11.328000     11.840000      1.095000
C          10.312000     11.926000      0.187000
N          11.141000     12.005000      2.438000
C           9.016000     12.333000      0.537000
C           9.938000     12.457000      2.786000
C           8.830000     12.589000      1.905000
C           7.421000     12.860000      2.384000
C           6.559000     13.745000      1.718000
C           6.961000     12.158000      3.493000
N           5.321000     14.039000      2.204000
N           7.626000     11.126000      4.131000
C           5.775000     12.457000      4.058000
C           4.976000     13.496000      3.428000
S           6.606000     10.576000      5.303000
N           5.439000     11.655000      5.083000
C           3.683000     13.955000      3.967000
S           2.165000     14.399000      3.044000
C           3.533000     14.158000      5.313000
C           1.413000     14.827000      4.561000
S           4.670000     14.044000      6.619000
C           2.362000     14.832000      5.582000
C           0.025000     15.255000      4.656000
C           3.463000     14.908000      7.697000
C           2.265000     15.130000      7.013000
N          -0.770000     14.951000      3.645000
S          -0.431000     16.602000      5.639000
C          -1.911000     15.722000      3.661000
C          -1.971000     16.612000      4.694000
C          12.628000     11.248000      0.740000
H          10.419000     11.521000     -0.816000
H           8.193000     12.298000     -0.171000
H           9.868000     12.548000      3.869000
H           6.918000     14.228000      0.810000
H           3.710000     14.854000      8.749000
H           1.330000     15.371000      7.506000
H          -2.746000     15.524000      3.001000
H          -2.675000     17.370000      5.014000
H          12.766000     11.483000     -0.323000
C          12.493000      9.684000      0.920000
H          13.425000     11.743000      1.310000
H          11.653000      9.319000      0.318000
H          12.290000      9.493000      1.981000
C          13.868000      8.960000      0.683000
H          14.326000      9.353000     -0.233000
C          13.629000      7.454000      0.608000
H          14.487000      9.197000      1.557000
H          12.904000      7.246000     -0.189000
H          13.278000      6.954000      1.519000
C          15.043000      6.823000      0.174000
H          15.420000      7.360000     -0.706000
C          15.018000      5.354000     -0.330000
H          15.768000      6.942000      0.989000
H          14.483000      5.182000     -1.272000
H          14.547000      4.676000      0.392000
H          16.041000      4.976000     -0.453000
$end

--------------------------------------------------------------

             Standard Nuclear Orientation (Angstroms)
    I     Atom           X                Y                Z
 ----------------------------------------------------------------
    1      C      -7.8750784184     1.2223312099    -1.7539114827
    2      C      -7.1188575031     1.7188632816    -2.7441007723
    3      N      -7.3872521490     0.4019571109    -0.8406503653
    4      C      -5.7874967498     1.4049067416    -2.9161584239
    5      C      -6.0876701154     0.0550858666    -0.9906232889
    6      C      -5.2026750204     0.5048681265    -2.0035648473
    7      C      -3.7132809922     0.1243479670    -2.0448908324
    8      C      -2.7115462972     1.0376597578    -2.3412388940
    9      C      -3.2609325243    -1.1769995081    -1.6914072932
   10      N      -1.3889811352     0.7903261757    -2.2670466338
   11      N      -4.0954947829    -2.1837036179    -1.3620705783
   12      C      -1.8843754395    -1.4624020549    -1.7764306924
   13      C      -0.9088811104    -0.4620818600    -2.0303525734
   14      S      -2.9796959669    -3.3873969467    -0.9814705621
   15      N      -1.6266707919    -2.7187033489    -1.4216725022
   16      C       0.5848726300    -0.5884792432    -1.9843366583
   17      S       1.6063729394     0.8283468353    -1.7669292503
   18      C       1.3488831620    -1.6450838136    -2.3821477805
   19      C       2.9619139978    -0.0744207429    -2.5311210710
   20      S       0.8588472467    -3.2222504852    -2.9439698979
   21      C       2.6500308396    -1.3738654494    -2.6159346924
   22      C       4.1771772157     0.6144495284    -2.8704292797
   23      C       2.5646768864    -3.6634642410    -3.2678289138
   24      C       3.3866450859    -2.4648405653    -3.2147858830
   25      N       5.2773226470    -0.0519669738    -3.1402849369
   26      S       4.3266857687     2.3898930625    -2.9426335036
   27      C       6.3873643388     0.8105994912    -3.3603997618
   28      C       6.0672526147     2.1513425812    -3.2436031409
   29      C      -9.2915016675     1.6679913268    -1.4481955368
   30      H      -7.5416245407     2.4962597252    -3.3738672381
   31      H      -5.2307942400     1.9120421632    -3.6997539699
   32      H      -5.6462454784    -0.5740884314    -0.2190573535
   33      H      -2.9945464733     2.0598829937    -2.5863950815
   34      H       2.7601901180    -4.6398762460    -3.6898468907
   35      H       4.4457479505    -2.5018971637    -3.4390935525
   36      H       7.3895488445     0.4417196234    -3.5371930302
   37      H       6.7453541798     2.9427722353    -3.5343528097
   38      H     -10.0398481584     1.3297388836    -2.1754842101
   39      C      -9.5126183386     3.1939836855    -1.2560816674
   40      H      -9.7316082677     1.0990717765    -0.6192445577
   41      H     -10.6007415413     3.3198050404    -1.2029132335
   42      H      -9.0507766866     3.7857244614    -2.0563310927
   43      C      -8.9499509971     3.5552039921     0.1396931543
   44      H      -9.3933963756     2.9026166635     0.9019916358
   45      C      -9.4152841664     5.0065935902     0.4685795725
   46      H      -7.8605195648     3.4339321153     0.1066888169
   47      H     -10.5119038977     4.9942712144     0.5053127192
   48      H      -9.1378407971     5.7626027426    -0.2764776993
   49      C      -9.0134195222     5.5231846908     1.8109183683
   50      H      -9.2938452610     4.8809895692     2.6545224405
   51      C      -9.6506639310     6.9116738750     2.0848587794
   52      H      -7.9236772039     5.6427940127     1.8475283358
   53      H      -9.1402698351     7.3926016158     2.9283043172
   54      H     -10.7145910376     6.7802240153     2.3182383978
   55      H      -9.4620347548     7.4712392765     1.1600714550
   56      C       7.3040807912     0.0704148549    -0.1354509793
   57      C       7.0142411624    -1.1551638600     0.3918684715
   58      N       6.3788266994     1.0688669034    -0.2487707588
   59      C       5.7097621212    -1.5448874933     0.7298254521
   60      C       5.1236012357     0.7021401858     0.0013043296
   61      C       4.7326317162    -0.5549265983     0.5381236056
   62      C       3.3356799825    -0.8390768610     1.0440361297
   63      C       2.6838594860    -2.0585414477     0.8034926573
   64      C       2.7109658143     0.1318563518     1.8194752984
   65      N       1.3975175086    -2.2717138541     1.1973934600
   66      N       3.2979731545     1.2924611370     2.2913989310
   67      C       1.4180094586     0.0057358287     2.1766579912
   68      C       0.7263251766    -1.2073671624     1.7707319057
   69      S       2.1670706640     2.0284698132     3.2378844225
   70      N       0.9714444913     0.9914951432     2.9738927771
   71      C      -0.6994676141    -1.4536083187     2.0527446909
   72      S      -1.5004462237    -3.0231277981     2.5511730917
   73      C      -1.6158205252    -0.4494307017     1.8873673773
   74      C      -3.0427397289    -2.2047257043     2.5121121572
   75      S      -1.4388212603     1.1723452880     1.2958313265
   76      C      -2.9012547913    -0.9423376249     1.9381562796
   77      C      -4.2867601606    -2.8554532967     2.8964554489
   78      C      -3.2649764621     1.2835907849     1.1608846022
   79      C      -3.8655062935     0.1247113073     1.6595892020
   80      N      -4.1927682915    -3.9454258513     3.6378644850
   81      S      -5.7245811546    -2.6644045310     1.9558146256
   82      C      -5.3629198006    -4.6708630908     3.6052415300
   83      C      -6.3426694380    -4.1187731427     2.8318875765
   84      C       8.6939007525     0.5185987390    -0.3198979393
   85      H       7.8030022937    -1.8218471239     0.7307966401
   86      H       5.5053896467    -2.4799586415     1.2433347894
   87      H       4.4543223880     1.5554877748    -0.0983637011
   88      H       3.2221011712    -2.8307420275     0.2551896818
   89      H      -3.6247914841     2.2932857634     1.0136494146
   90      H      -4.9125449569     0.0636524990     1.9340648098
   91      H      -5.5314076285    -5.5168388996     4.2594324675
   92      H      -7.3522142912    -4.3979424723     2.5571810518
   93      H       9.2613506923    -0.3964438696    -0.5318781047
   94      C       9.1738277287     1.1284932169     1.0564813047
   95      H       8.7548567575     1.1746574860    -1.1979670060
   96      H       9.0426882649     0.3843364734     1.8503718400
   97      H       8.5412404930     1.9997290300     1.2667015394
   98      C      10.6119567752     1.7515380436     0.9357750934
   99      H      11.2652244062     1.0443212579     0.4100804859
  100      C      11.1276696827     2.0831345890     2.3339402939
  101      H      10.4922139013     2.6733069267     0.3533579145
  102      H      11.1166984888     1.1716876386     2.9448757156
  103      H      10.6009667134     2.8668668608     2.8920350066
  104      C      12.6593984163     2.5260054943     2.1251690122
  105      H      13.1724657112     1.7672615244     1.5202165025
  106      C      13.5441016112     2.5746416835     3.4009185088
  107      H      12.6991145061     3.4819628523     1.5879733665
  108      H      13.7332308384     1.6098086425     3.8872315134
  109      H      13.1080090591     3.2067085747     4.1839406867
  110      H      14.5162859382     3.0301958016     3.1731684706
 ----------------------------------------------------------------

   10   -5663.4707417196      4.51E-06 Convergence criterion met
 Total energy in the final basis set = -5663.4707417196

                    Orbital Energies (a.u.)
 --------------------------------------------------------------

 Alpha MOs
 -- Occupied --
-88.989 -88.980 -88.925 -88.923 -88.920 -88.919 -88.907 -88.902
-14.380 -14.377 -14.375 -14.372 -14.347 -14.342 -14.340 -14.339
-14.325 -14.321 -10.265 -10.265 -10.263 -10.260 -10.251 -10.249
-10.247 -10.242 -10.238 -10.237 -10.235 -10.235 -10.235 -10.233
-10.233 -10.233 -10.231 -10.230 -10.228 -10.227 -10.224 -10.224
-10.221 -10.220 -10.219 -10.217 -10.216 -10.214 -10.213 -10.211
-10.210 -10.210 -10.207 -10.206 -10.205 -10.203 -10.189 -10.187
-10.184 -10.182 -10.181 -10.181 -10.180 -10.179 -10.179 -10.177
-10.173 -10.171 -10.171 -10.170  -8.044  -8.036  -7.983  -7.983
 -7.979  -7.979  -7.966  -7.963  -6.009  -6.003  -6.002  -6.001
 -5.995  -5.994  -5.947  -5.947  -5.944  -5.944  -5.943  -5.943
 -5.940  -5.940  -5.940  -5.939  -5.936  -5.935  -5.931  -5.927
 -5.927  -5.923  -5.922  -5.919  -1.041  -1.033  -0.967  -0.953
 -0.948  -0.945  -0.941  -0.934  -0.917  -0.910  -0.905  -0.887
 -0.836  -0.836  -0.827  -0.824  -0.808  -0.807  -0.803  -0.803
 -0.798  -0.796  -0.791  -0.788  -0.784  -0.781  -0.767  -0.760
 -0.749  -0.745  -0.740  -0.735  -0.725  -0.722  -0.707  -0.704
 -0.689  -0.688  -0.668  -0.668  -0.649  -0.649  -0.643  -0.641
 -0.632  -0.626  -0.624  -0.621  -0.610  -0.603  -0.597  -0.596
 -0.591  -0.586  -0.581  -0.578  -0.575  -0.574  -0.572  -0.570
 -0.550  -0.541  -0.539  -0.537  -0.518  -0.516  -0.514  -0.509
 -0.502  -0.499  -0.497  -0.494  -0.485  -0.484  -0.477  -0.474
 -0.472  -0.471  -0.469  -0.465  -0.461  -0.459  -0.445  -0.443
 -0.442  -0.442  -0.438  -0.437  -0.436  -0.433  -0.432  -0.427
 -0.424  -0.422  -0.419  -0.417  -0.414  -0.413  -0.413  -0.412
 -0.407  -0.403  -0.402  -0.400  -0.398  -0.397  -0.394  -0.392
 -0.390  -0.389  -0.386  -0.383  -0.382  -0.382  -0.380  -0.379
 -0.372  -0.371  -0.370  -0.365  -0.362  -0.361  -0.355  -0.354
 -0.353  -0.350  -0.348  -0.347  -0.343  -0.341  -0.340  -0.338
 -0.335  -0.332  -0.329  -0.328  -0.327  -0.326  -0.322  -0.321
 -0.319  -0.314  -0.309  -0.301  -0.299  -0.297  -0.295  -0.291
 -0.290  -0.287  -0.285  -0.284  -0.281  -0.280  -0.277  -0.273
 -0.272  -0.269  -0.267  -0.258  -0.255  -0.252  -0.250  -0.245
 -0.244  -0.240  -0.232  -0.224  -0.192  -0.189

          Ground-State Mulliken Net Atomic Charges

     Atom                 Charge (a.u.)
  ----------------------------------------
      1 C                     0.293747
      2 C                    -0.110927
      3 N                    -0.494927
      4 C                    -0.081199
      5 C                     0.091733
      6 C                     0.030614
      7 C                     0.049675
      8 C                     0.057604
      9 C                     0.231805
     10 N                    -0.517899
     11 N                    -0.574871
     12 C                     0.197997
     13 C                     0.294502
     14 S                     0.612416
     15 N                    -0.513749
     16 C                    -0.214924
     17 S                     0.291080
     18 C                    -0.095844
     19 C                    -0.222576
     20 S                     0.273922
     21 C                     0.173222
     22 C                     0.069487
     23 C                    -0.304143
     24 C                    -0.084485
     25 N                    -0.448419
     26 S                     0.240814
     27 C                     0.118784
     28 C                    -0.267409
     29 C                    -0.248217
     30 H                     0.081660
     31 H                     0.100029
     32 H                     0.110885
     33 H                     0.102605
     34 H                     0.135234
     35 H                     0.132099
     36 H                     0.116254
     37 H                     0.127834
     38 H                     0.095294
     39 C                    -0.180336
     40 H                     0.115447
     41 H                     0.095740
     42 H                     0.095017
     43 C                    -0.165071
     44 H                     0.100184
     45 C                    -0.164217
     46 H                     0.096987
     47 H                     0.086834
     48 H                     0.085033
     49 C                    -0.179546
     50 H                     0.088649
     51 C                    -0.315416
     52 H                     0.086647
     53 H                     0.098814
     54 H                     0.103572
     55 H                     0.098713
     56 C                     0.254072
     57 C                    -0.112303
     58 N                    -0.461394
     59 C                    -0.072595
     60 C                     0.093101
     61 C                     0.032766
     62 C                     0.005792
     63 C                     0.071204
     64 C                     0.251563
     65 N                    -0.507125
     66 N                    -0.568061
     67 C                     0.225493
     68 C                     0.233200
     69 S                     0.617646
     70 N                    -0.547735
     71 C                    -0.197319
     72 S                     0.343105
     73 C                    -0.101906
     74 C                    -0.203894
     75 S                     0.263860
     76 C                     0.093801
     77 C                     0.049510
     78 C                    -0.305400
     79 C                    -0.083549
     80 N                    -0.433239
     81 S                     0.289607
     82 C                     0.126448
     83 C                    -0.315981
     84 C                    -0.226252
     85 H                     0.081607
     86 H                     0.104673
     87 H                     0.113362
     88 H                     0.121815
     89 H                     0.140814
     90 H                     0.128069
     91 H                     0.120870
     92 H                     0.137824
     93 H                     0.088272
     94 C                    -0.181935
     95 H                     0.102024
     96 H                     0.094838
     97 H                     0.119133
     98 C                    -0.172008
     99 H                     0.093706
    100 C                    -0.175331
    101 H                     0.098642
    102 H                     0.093146
    103 H                     0.098322
    104 C                    -0.177920
    105 H                     0.094308
    106 C                    -0.327586
    107 H                     0.094815
    108 H                     0.101565
    109 H                     0.097155
    110 H                     0.098651
  ----------------------------------------
  Sum of atomic charges =     0.000000

                    Cartesian Multipole Moments
 -----------------------------------------------------------------
    Charge (ESU x 10^10)
                 0.0000
    Dipole Moment (Debye)
         X       0.3732      Y       0.7246      Z      -1.1483
       Tot       1.4081
    Quadrupole Moments (Debye-Ang)
        XX    -398.9381     XY      -4.7135     YY    -426.3175
        XZ      -2.1940     YZ      -1.9445     ZZ    -446.7441

 Total job time:  126.58s(wall), 1328.79s(cpu)
        *  Thank you very much for using Q-Chem.  Have a nice day.  *
