 Q-Chem 4.4, Q-Chem, Inc., Pleasanton, CA (2016)
 Q-Chem 4.4.2 for Intel X86 Linux

User input:
--------------------------------------------------------------
$comment
SP
$end

$rem
MEM_STATIC 5000
MEM_TOTAL 20000
JOBTYPE SP
EXCHANGE B3LYP
BASIS 6-31g(d,p)
$end

$molecule
0 1
C          15.497000     16.387000    -14.884000
C          15.357000     17.572000    -14.182000
N          14.467000     15.598000    -15.203000
C          14.045000     18.072000    -13.882000
C          13.231000     16.033000    -14.818000
C          12.979000     17.166000    -14.067000
C          11.583000     17.598000    -13.664000
C          11.399000     18.370000    -12.519000
C          10.367000     17.150000    -14.141000
N          10.268000     18.908000    -12.080000
N          10.282000     16.213000    -15.114000
C           9.119000     17.653000    -13.677000
C           9.127000     18.555000    -12.563000
S           8.705000     16.249000    -15.505000
N           8.068000     17.190000    -14.333000
C           7.865000     19.155000    -12.040000
S           6.254000     18.412000    -12.097000
C           7.781000     20.411000    -11.462000
C           5.566000     19.828000    -11.296000
S           9.057000     21.675000    -11.271000
C           6.515000     20.791000    -11.107000
C           4.155000     20.029000    -11.035000
C           7.753000     22.736000    -10.714000
C           6.482000     22.159000    -10.704000
N           3.545000     19.035000    -10.413000
S           3.049000     21.384000    -11.536000
C           2.258000     19.398000    -10.083000
C           1.771000     20.456000    -10.829000
C          16.915000     15.786000    -15.033000
H          16.232000     18.156000    -13.910000
H          14.001000     19.006000    -13.330000
H          12.433000     15.322000    -15.028000
H          12.316000     18.670000    -12.014000
H           8.166000     23.679000    -10.381000
H           5.559000     22.653000    -10.424000
H           1.690000     18.791000     -9.391000
H           0.741000     20.789000    -10.835000
H          16.976000     15.349000    -16.037000
C          17.205000     14.716000    -13.933000
H          17.701000     16.514000    -14.795000
H          18.125000     14.129000    -14.040000
H          16.358000     14.020000    -13.880000
C          17.266000     15.286000    -12.468000
H          17.920000     16.164000    -12.394000
C          17.942000     14.258000    -11.460000
H          16.292000     15.661000    -12.131000
H          18.811000     13.750000    -11.895000
H          17.172000     13.513000    -11.225000
C          18.452000     14.761000    -10.098000
H          18.689000     13.927000     -9.426000
C          17.455000     15.512000     -9.235000
H          19.355000     15.360000    -10.273000
H          17.333000     16.602000     -9.272000
H          17.607000     15.276000     -8.175000
H          16.439000     15.115000     -9.351000
C          -0.081000     14.269000     -5.115000
C           0.389000     14.377000     -6.429000
N           0.438000     14.974000     -4.054000
C           1.316000     15.435000     -6.619000
C           1.460000     15.843000     -4.246000
C           1.948000     16.139000     -5.559000
C           2.817000     17.328000     -5.857000
C           2.493000     18.178000     -6.903000
C           3.801000     17.869000     -5.025000
N           3.109000     19.325000     -7.187000
N           4.258000     17.265000     -3.975000
C           4.454000     19.081000     -5.248000
C           4.031000     19.813000     -6.374000
S           5.330000     18.250000     -3.268000
N           5.354000     19.456000     -4.337000
C           4.431000     21.268000     -6.767000
S           3.890000     22.024000     -8.277000
C           4.957000     22.249000     -6.000000
C           4.615000     23.567000     -7.909000
S           5.259000     22.316000     -4.297000
C           5.000000     23.503000     -6.599000
C           4.712000     24.687000     -8.817000
C           5.432000     24.116000     -4.422000
C           5.368000     24.547000     -5.698000
N           5.754000     25.468000     -8.663000
S           3.756000     24.913000    -10.210000
C           5.719000     26.492000     -9.528000
C           4.691000     26.408000    -10.449000
C          -1.236000     13.327000     -4.871000
H          -0.057000     13.723000     -7.173000
H           1.639000     15.682000     -7.626000
H           1.918000     16.248000     -3.344000
H           1.622000     17.937000     -7.510000
H           5.528000     24.678000     -3.502000
H           5.276000     25.574000     -6.032000
H           6.406000     27.320000     -9.412000
H           4.397000     27.158000    -11.171000
H          -1.640000     13.092000     -5.863000
C          -2.372000     14.103000     -4.217000
H          -0.966000     12.397000     -4.354000
H          -2.754000     14.864000     -4.909000
H          -2.040000     14.599000     -3.296000
C          -3.546000     13.097000     -3.918000
H          -3.956000     12.664000     -4.839000
C          -4.605000     13.883000     -3.126000
H          -3.188000     12.283000     -3.275000
H          -4.843000     14.812000     -3.658000
H          -4.212000     14.236000     -2.164000
C          -5.794000     13.024000     -2.880000
H          -6.407000     12.769000     -3.753000
C          -6.821000     13.702000     -2.009000
H          -5.464000     12.054000     -2.490000
H          -6.287000     14.061000     -1.121000
H          -7.608000     12.994000     -1.722000
H          -7.306000     14.575000     -2.464000
$end

--------------------------------------------------------------

             Standard Nuclear Orientation (Angstroms)
    I     Atom           X                Y                Z
 ----------------------------------------------------------------
    1      C      10.8621382524    -2.2410441207    -0.4367313753
    2      C      10.3748601426    -1.1282124596     0.2271923686
    3      N      10.1449810809    -2.9384751519    -1.3224274564
    4      C       9.0899314115    -0.5936078314    -0.1256532738
    5      C       8.8824894830    -2.4810886402    -1.5715429800
    6      C       8.2742690161    -1.4190661447    -0.9286043494
    7      C       6.8650282707    -0.9581402439    -1.2439404169
    8      C       6.1167895504    -0.2985097954    -0.2713708879
    9      C       6.0661077575    -1.2909760493    -2.3199679910
   10      N       4.9162787417     0.2502002921    -0.4092731647
   11      N       6.4964371358    -2.1180263094    -3.3011547690
   12      C       4.7524820707    -0.7734760603    -2.4999410906
   13      C       4.1842251471     0.0084329183    -1.4414674641
   14      S       5.3396941881    -1.9599784027    -4.4316735049
   15      N       4.1869178189    -1.1115579376    -3.6467382484
   16      C       2.8277439881     0.6170012553    -1.5670717813
   17      S       1.4769247312    -0.0311327283    -2.5188221028
   18      C       2.4513978691     1.8100981450    -0.9724631618
   19      C       0.4662198913     1.3296918674    -2.0222003692
   20      S       3.4419840419     2.9796136372    -0.0167824892
   21      C       1.1788201276     2.2174769907    -1.2687221160
   22      C      -0.8817675248     1.5764211733    -2.4928356588
   23      C       2.0286954919     4.0448638059    -0.0819250429
   24      C       0.9348410127     3.5370361628    -0.7848215241
   25      N      -1.7165877234     0.5573426538    -2.3852521692
   26      S      -1.5869028160     3.0313962853    -3.3271579252
   27      C      -2.9943397487     0.9514826484    -2.7154663824
   28      C      -3.0399968294     2.1040961794    -3.4786481950
   29      C      12.1618740298    -2.8969339845     0.0873119395
   30      H      10.9842072638    -0.6215351476     0.9705894276
   31      H       8.7635832146     0.2801780861     0.4302163376
   32      H       8.3086278754    -3.1242793513    -2.2374360379
   33      H       6.6453809787    -0.0999386917     0.6597975280
   34      H       2.2070361230     4.9260769753     0.5200425388
   35      H      -0.0053364201     4.0474037917    -0.9579003449
   36      H      -3.8315753917     0.3075115381    -2.4824970990
   37      H      -3.9250379298     2.4893110957    -3.9686856619
   38      H      12.7299512683    -3.2317437659    -0.7889851913
   39      C      11.8575304837    -4.0873168434     1.0513470297
   40      H      12.7110021027    -2.2390870192     0.7729647159
   41      H      12.7074991947    -4.7075750593     1.3599745333
   42      H      11.1071854142    -4.7398955741     0.5868502300
   43      C      11.1580948935    -3.6738180612     2.3984381967
   44      H      11.6763393128    -2.8433239480     2.8941984713
   45      C      11.2323255527    -4.8332477137     3.4847331337
   46      H      10.1458304740    -3.2848204688     2.2345125488
   47      H      12.2052847746    -5.3388792302     3.4964430493
   48      H      10.4556511175    -5.5571046158     3.2091283316
   49      C      10.9720413458    -4.4992443833     4.9642083470
   50      H      10.8388736827    -5.4087232049     5.5628932779
   51      C       9.6687972226    -3.7892226474     5.2807567476
   52      H      11.8335138563    -3.9334963723     5.3418712942
   53      H       9.5748840138    -2.6962634260     5.3119569020
   54      H       9.2601667768    -4.1398155957     6.2360084126
   55      H       8.8572257123    -4.1186941036     4.6203619844
   56      C      -7.5042605191    -4.5286726736    -0.2482618325
   57      C      -6.4302019383    -4.3117940535    -1.1191934195
   58      N      -7.6046322472    -3.9637442507     1.0018935152
   59      C      -5.5437587231    -3.2897961545    -0.6896218650
   60      C      -6.6341097649    -3.1342574800     1.4563677264
   61      C      -5.5464445589    -2.7316612766     0.6169454867
   62      C      -4.6556985610    -1.5654728490     0.9398419385
   63      C      -4.4065612975    -0.5973754636    -0.0205278217
   64      C      -4.2381456274    -1.1643729725     2.2118204905
   65      N      -3.7402107392     0.5388755452     0.1810449405
   66      N      -4.3767394023    -1.8954483222     3.2712946991
   67      C      -3.5715850142     0.0282894666     2.4917048509
   68      C      -3.3658896964     0.8925030508     1.3992519608
   69      S      -3.8229278370    -1.0451130761     4.5320407955
   70      N      -3.2653845595     0.2608071267     3.7694852778
   71      C      -2.8318709309     2.3571317533     1.4333213294
   72      S      -2.5318165221     3.2905511771    -0.0441807962
   73      C      -2.7781586440     3.2258869899     2.4675869283
   74      C      -2.1073968912     4.7479370089     0.8147676972
   75      S      -3.3881972215     3.1028195969     4.0827059180
   76      C      -2.4445213738     4.5305180392     2.1214800125
   77      C      -1.5686359098     5.9481758336     0.2169078737
   78      C      -3.1886646090     4.8946703010     4.2698202964
   79      C      -2.5955247720     5.4564309283     3.1971399473
   80      N      -0.7568830787     6.6538769328     0.9668974067
   81      S      -1.6813201175     6.3648237703    -1.4320820493
   82      C      -0.3528813119     7.7612539946     0.3277381030
   83      C      -0.7661510397     7.8255232968    -0.9902750186
   84      C      -8.6151623904    -5.4290394640    -0.7342265174
   85      H      -6.4292295864    -4.8622328961    -2.0557745079
   86      H      -4.7538095331    -2.9584965370    -1.3571605086
   87      H      -6.7036067198    -2.8479323622     2.5054535666
   88      H      -4.8439620149    -0.7293257364    -1.0086779814
   89      H      -3.5797680471     5.3540302415     5.1684228481
   90      H      -2.5115908140     6.5155581155     2.9827718246
   91      H       0.1726641002     8.5360666925     0.8703948113
   92      H      -0.6558683923     8.6596377260    -1.6702094689
   93      H      -8.4545241929    -5.5401188501    -1.8132824657
   94      C      -9.9314356478    -4.6655865452    -0.6638535631
   95      H      -8.6401436593    -6.4197854476    -0.2621170680
   96      H      -9.9122160193    -3.8190108139    -1.3615993169
   97      H     -10.1196362496    -4.2842200918     0.3478880846
   98      C     -11.0862851904    -5.6341534395    -1.1198291163
   99      H     -10.9656125746    -5.9488613729    -2.1639684923
  100      C     -12.4068565643    -4.8788761344    -0.8913812256
  101      H     -11.1007481225    -6.5271238013    -0.4821742280
  102      H     -12.3466951155    -3.8892637012    -1.3601635122
  103      H     -12.5624953692    -4.6469380293     0.1699779398
  104      C     -13.5486166351    -5.6952187188    -1.3834043200
  105      H     -13.6282916372    -5.8273978208    -2.4692696795
  106      C     -14.8812124743    -5.0569651538    -1.0836131991
  107      H     -13.4568914575    -6.7158699278    -0.9938435399
  108      H     -14.8778784578    -4.8188770387    -0.0131535157
  109      H     -15.6993147546    -5.7484866206    -1.3192160853
  110      H     -15.0723420746    -4.1179425565    -1.6184823771
 ----------------------------------------------------------------

    9   -5663.4806319475      8.76E-06 Convergence criterion met
 Total energy in the final basis set = -5663.4806319475

                    Orbital Energies (a.u.)
 --------------------------------------------------------------

 Alpha MOs
 -- Occupied --
-88.990 -88.980 -88.935 -88.925 -88.923 -88.916 -88.903 -88.901
-14.390 -14.385 -14.378 -14.378 -14.347 -14.342 -14.342 -14.340
-14.332 -14.329 -10.270 -10.268 -10.266 -10.259 -10.257 -10.252
-10.251 -10.250 -10.240 -10.237 -10.234 -10.234 -10.234 -10.234
-10.233 -10.233 -10.233 -10.230 -10.225 -10.225 -10.224 -10.224
-10.224 -10.223 -10.222 -10.222 -10.221 -10.220 -10.218 -10.217
-10.217 -10.216 -10.204 -10.202 -10.199 -10.198 -10.198 -10.193
-10.187 -10.184 -10.180 -10.178 -10.178 -10.177 -10.177 -10.177
-10.171 -10.170 -10.166 -10.166  -8.046  -8.036  -7.996  -7.985
 -7.981  -7.976  -7.963  -7.962  -6.011  -6.005  -6.004  -6.001
 -5.996  -5.994  -5.959  -5.956  -5.953  -5.949  -5.946  -5.945
 -5.942  -5.941  -5.940  -5.938  -5.936  -5.932  -5.928  -5.926
 -5.924  -5.923  -5.919  -5.918  -1.060  -1.042  -0.985  -0.973
 -0.969  -0.961  -0.937  -0.931  -0.924  -0.916  -0.914  -0.907
 -0.843  -0.836  -0.835  -0.834  -0.813  -0.812  -0.810  -0.801
 -0.799  -0.797  -0.796  -0.793  -0.792  -0.779  -0.774  -0.763
 -0.751  -0.745  -0.745  -0.737  -0.720  -0.719  -0.710  -0.703
 -0.695  -0.691  -0.680  -0.670  -0.658  -0.654  -0.647  -0.646
 -0.638  -0.634  -0.629  -0.626  -0.611  -0.611  -0.597  -0.595
 -0.592  -0.589  -0.581  -0.579  -0.577  -0.573  -0.573  -0.558
 -0.554  -0.549  -0.544  -0.539  -0.527  -0.522  -0.517  -0.513
 -0.509  -0.507  -0.504  -0.494  -0.490  -0.483  -0.481  -0.480
 -0.477  -0.475  -0.470  -0.467  -0.465  -0.459  -0.451  -0.449
 -0.448  -0.444  -0.440  -0.438  -0.435  -0.434  -0.432  -0.432
 -0.430  -0.425  -0.423  -0.421  -0.421  -0.418  -0.415  -0.414
 -0.411  -0.409  -0.407  -0.402  -0.401  -0.399  -0.397  -0.396
 -0.392  -0.391  -0.389  -0.388  -0.387  -0.387  -0.386  -0.381
 -0.380  -0.373  -0.371  -0.369  -0.367  -0.363  -0.361  -0.355
 -0.352  -0.351  -0.349  -0.349  -0.344  -0.342  -0.339  -0.338
 -0.335  -0.333  -0.333  -0.329  -0.329  -0.327  -0.324  -0.320
 -0.315  -0.311  -0.310  -0.306  -0.304  -0.301  -0.300  -0.298
 -0.297  -0.294  -0.293  -0.288  -0.284  -0.283  -0.281  -0.278
 -0.272  -0.270  -0.265  -0.265  -0.256  -0.252  -0.249  -0.246
 -0.242  -0.237  -0.235  -0.233  -0.196  -0.192

          Ground-State Mulliken Net Atomic Charges

     Atom                 Charge (a.u.)
  ----------------------------------------
      1 C                     0.265692
      2 C                    -0.110671
      3 N                    -0.472596
      4 C                    -0.099204
      5 C                     0.060114
      6 C                     0.060840
      7 C                     0.074765
      8 C                     0.034878
      9 C                     0.178781
     10 N                    -0.507030
     11 N                    -0.546091
     12 C                     0.220429
     13 C                     0.316006
     14 S                     0.587247
     15 N                    -0.556787
     16 C                    -0.234335
     17 S                     0.346277
     18 C                    -0.107323
     19 C                    -0.229232
     20 S                     0.259523
     21 C                     0.178801
     22 C                     0.022816
     23 C                    -0.320637
     24 C                    -0.028442
     25 N                    -0.392622
     26 S                     0.253731
     27 C                     0.157235
     28 C                    -0.301900
     29 C                    -0.218568
     30 H                     0.092629
     31 H                     0.106486
     32 H                     0.128409
     33 H                     0.095608
     34 H                     0.141686
     35 H                     0.073594
     36 H                     0.095431
     37 H                     0.130791
     38 H                     0.113670
     39 C                    -0.177037
     40 H                     0.095324
     41 H                     0.094437
     42 H                     0.116311
     43 C                    -0.191126
     44 H                     0.079014
     45 C                    -0.178034
     46 H                     0.104784
     47 H                     0.089643
     48 H                     0.092797
     49 C                    -0.175579
     50 H                     0.098785
     51 C                    -0.327297
     52 H                     0.092012
     53 H                     0.101968
     54 H                     0.096738
     55 H                     0.099976
     56 C                     0.275789
     57 C                    -0.114222
     58 N                    -0.486649
     59 C                    -0.108363
     60 C                     0.090249
     61 C                     0.043641
     62 C                     0.068940
     63 C                     0.067752
     64 C                     0.219984
     65 N                    -0.520808
     66 N                    -0.545723
     67 C                     0.225214
     68 C                     0.306337
     69 S                     0.600043
     70 N                    -0.558430
     71 C                    -0.245917
     72 S                     0.326981
     73 C                    -0.098954
     74 C                    -0.228011
     75 S                     0.260172
     76 C                     0.135704
     77 C                     0.027371
     78 C                    -0.321576
     79 C                    -0.017366
     80 N                    -0.409916
     81 S                     0.279198
     82 C                     0.129429
     83 C                    -0.315570
     84 C                    -0.225921
     85 H                     0.101177
     86 H                     0.100227
     87 H                     0.121519
     88 H                     0.101250
     89 H                     0.128345
     90 H                     0.106288
     91 H                     0.117545
     92 H                     0.130268
     93 H                     0.094041
     94 C                    -0.181251
     95 H                     0.117075
     96 H                     0.092753
     97 H                     0.124134
     98 C                    -0.181763
     99 H                     0.092069
    100 C                    -0.163071
    101 H                     0.093766
    102 H                     0.087591
    103 H                     0.093356
    104 C                    -0.170106
    105 H                     0.089259
    106 C                    -0.317460
    107 H                     0.090073
    108 H                     0.094627
    109 H                     0.094708
    110 H                     0.101485
  ----------------------------------------
  Sum of atomic charges =     0.000000

                    Cartesian Multipole Moments
 -----------------------------------------------------------------
    Charge (ESU x 10^10)
                 0.0000
    Dipole Moment (Debye)
         X      -2.4408      Y       3.8318      Z      -0.4571
       Tot       4.5661
    Quadrupole Moments (Debye-Ang)
        XX    -445.9291     XY       8.9415     YY    -411.9651
        XZ      25.8198     YZ      -1.2783     ZZ    -432.0453

 Total job time:  92.10s(wall), 997.95s(cpu)
        *  Thank you very much for using Q-Chem.  Have a nice day.  *
