 Q-Chem 4.4, Q-Chem, Inc., Pleasanton, CA (2016)
 Q-Chem 4.4.2 for Intel X86 Linux

User input:
--------------------------------------------------------------
$comment
SP
$end

$rem
MEM_STATIC 5000
MEM_TOTAL 20000
JOBTYPE SP
EXCHANGE B3LYP
BASIS 6-31g(d,p)
$end

$molecule
0 1
C           8.521000     18.961000     -7.674000
C           7.254000     18.640000     -8.247000
N           9.184000     18.096000     -6.950000
C           6.681000     17.372000     -7.963000
C           8.673000     16.896000     -6.624000
C           7.410000     16.445000     -7.178000
C           6.884000     15.109000     -6.892000
C           5.647000     14.812000     -6.315000
C           7.632000     13.931000     -7.198000
N           5.116000     13.621000     -5.953000
N           8.779000     13.924000     -7.880000
C           7.110000     12.667000     -6.901000
C           5.860000     12.529000     -6.225000
S           9.177000     12.421000     -8.026000
N           7.901000     11.651000     -7.251000
C           5.340000     11.184000     -5.970000
S           6.205000      9.632000     -5.891000
C           4.020000     10.989000     -5.522000
C           4.773000      8.758000     -5.394000
S           2.808000     12.102000     -5.060000
C           3.752000      9.691000     -5.218000
C           4.692000      7.279000     -5.275000
C           1.785000     10.720000     -4.526000
C           2.453000      9.525000     -4.673000
N           5.511000      6.595000     -5.978000
S           3.530000      6.291000     -4.374000
C           5.205000      5.246000     -6.042000
C           4.233000      4.872000     -5.165000
C           9.180000     20.335000     -7.923000
H           6.593000     19.457000     -8.522000
H           5.665000     17.122000     -8.255000
H           9.209000     16.346000     -5.852000
H           4.964000     15.640000     -6.131000
H           0.759000     10.893000     -4.230000
H           2.015000      8.577000     -4.382000
H           5.793000      4.644000     -6.723000
H           3.861000      3.880000     -4.946000
H          10.259000     20.137000     -7.930000
C           8.652000     21.403000     -6.930000
H           8.887000     20.609000     -8.945000
H           8.773000     21.159000     -5.867000
H           7.581000     21.543000     -7.125000
C           9.507000     22.702000     -7.307000
H          10.551000     22.459000     -7.075000
C           8.929000     24.044000     -6.761000
H           9.474000     22.934000     -8.379000
H           9.007000     23.883000     -5.679000
H           7.857000     24.035000     -6.993000
C           9.546000     25.386000     -7.103000
H          10.620000     25.281000     -6.907000
C           8.812000     26.458000     -6.259000
H           9.351000     25.417000     -8.182000
H           9.271000     27.442000     -6.414000
H           8.658000     26.176000     -5.210000
H           7.861000     26.505000     -6.804000
C          -0.081000     14.269000     -5.115000
C           0.389000     14.377000     -6.429000
N           0.438000     14.974000     -4.054000
C           1.316000     15.435000     -6.619000
C           1.460000     15.843000     -4.246000
C           1.948000     16.139000     -5.559000
C           2.817000     17.328000     -5.857000
C           2.493000     18.178000     -6.903000
C           3.801000     17.869000     -5.025000
N           3.109000     19.325000     -7.187000
N           4.258000     17.265000     -3.975000
C           4.454000     19.081000     -5.248000
C           4.031000     19.813000     -6.374000
S           5.330000     18.250000     -3.268000
N           5.354000     19.456000     -4.337000
C           4.431000     21.268000     -6.767000
S           3.890000     22.024000     -8.277000
C           4.957000     22.249000     -6.000000
C           4.615000     23.567000     -7.909000
S           5.259000     22.316000     -4.297000
C           5.000000     23.503000     -6.599000
C           4.712000     24.687000     -8.817000
C           5.432000     24.116000     -4.422000
C           5.368000     24.547000     -5.698000
N           5.754000     25.468000     -8.663000
S           3.756000     24.913000    -10.210000
C           5.719000     26.492000     -9.528000
C           4.691000     26.408000    -10.449000
C          -1.236000     13.327000     -4.871000
H          -0.057000     13.723000     -7.173000
H           1.639000     15.682000     -7.626000
H           1.918000     16.248000     -3.344000
H           1.622000     17.937000     -7.510000
H           5.528000     24.678000     -3.502000
H           5.276000     25.574000     -6.032000
H           6.406000     27.320000     -9.412000
H           4.397000     27.158000    -11.171000
H          -1.640000     13.092000     -5.863000
C          -2.372000     14.103000     -4.217000
H          -0.966000     12.397000     -4.354000
H          -2.754000     14.864000     -4.909000
H          -2.040000     14.599000     -3.296000
C          -3.546000     13.097000     -3.918000
H          -3.956000     12.664000     -4.839000
C          -4.605000     13.883000     -3.126000
H          -3.188000     12.283000     -3.275000
H          -4.843000     14.812000     -3.658000
H          -4.212000     14.236000     -2.164000
C          -5.794000     13.024000     -2.880000
H          -6.407000     12.769000     -3.753000
C          -6.821000     13.702000     -2.009000
H          -5.464000     12.054000     -2.490000
H          -6.287000     14.061000     -1.121000
H          -7.608000     12.994000     -1.722000
H          -7.306000     14.575000     -2.464000
$end

--------------------------------------------------------------

             Standard Nuclear Orientation (Angstroms)
    I     Atom           X                Y                Z
 ----------------------------------------------------------------
    1      C       3.5444544280     3.4845831380     0.1772366748
    2      C       3.0121002965     2.5297566139     1.0946048602
    3      N       2.7680296387     4.1870084889    -0.6074499971
    4      C       1.6107228697     2.2997018093     1.0996143073
    5      C       1.4401293209     3.9853598584    -0.6658929236
    6      C       0.7818274835     3.0675857237     0.2450490771
    7      C      -0.6726254469     2.9004700343     0.2423996288
    8      C      -1.3685671410     1.7052353172     0.0464758444
    9      C      -1.5514891303     4.0066573188     0.4539943298
   10      N      -2.6990813563     1.4742032889    -0.0420799279
   11      N      -1.1502158097     5.2301213358     0.8045617574
   12      C      -2.9382322396     3.8199078178     0.4326127287
   13      C      -3.5028313006     2.5440368553     0.1294606426
   14      S      -2.4548448023     6.0686560267     0.9876785610
   15      N      -3.6444650738     4.9291553578     0.6589798615
   16      C      -4.9590884439     2.3921514979     0.1558418989
   17      S      -6.2291156084     3.6279460147     0.0041418209
   18      C      -5.5573420892     1.1195208968     0.0955681136
   19      C      -7.5106522366     2.4367010462    -0.0062647002
   20      S      -4.8851487086    -0.4347061083    -0.1361460977
   21      C      -6.9127886555     1.1771890487     0.0034649645
   22      C      -8.9594484282     2.7627013870     0.0473671290
   23      C      -6.5521361761    -1.1069547804    -0.2402782553
   24      C      -7.4944439893    -0.1063598676    -0.1582794394
   25      N      -9.2828846743     3.8820500449     0.5720323333
   26      S     -10.3487699671     1.7636977345    -0.4108537392
   27      C     -10.6344751272     4.0027899539     0.8479999435
   28      C     -11.3867006954     3.0080667302     0.3016745801
   29      C       5.0627942652     3.7559436333     0.1053644243
   30      H       3.6675574667     1.7410525831     1.4528741021
   31      H       1.1626158503     1.4938234497     1.6738792016
   32      H       0.9230650496     4.4675641284    -1.4940858851
   33      H      -0.7857236410     0.7885776626    -0.0307329557
   34      H      -6.6993349119    -2.1782718014    -0.2691464492
   35      H      -8.5578919506    -0.3051668022    -0.2274403840
   36      H     -10.9425337699     4.8786130558     1.4047249805
   37      H     -12.4630354513     2.8997308298     0.2884146418
   38      H       5.1509466485     4.8181005667    -0.1545313358
   39      C       5.7771517885     2.7300358474    -0.8126026469
   40      H       5.4213348219     3.6364249578     1.1361762186
   41      H       5.3963399790     2.6716278637    -1.8400834853
   42      H       5.6699180762     1.7380220631    -0.3553548118
   43      C       7.2957330842     3.2344422963    -0.8062794679
   44      H       7.2917711810     4.2227750636    -1.2816652526
   45      C       8.3336218977     2.1842744810    -1.3093682976
   46      H       7.6891062219     3.3801907687     0.2076790901
   47      H       8.0176426990     2.0575295957    -2.3518757940
   48      H       8.0905272447     1.2428937425    -0.8016318553
   49      C       9.8264709326     2.4469879823    -1.2777395893
   50      H       9.9676223426     3.4314269294    -1.7402039001
   51      C      10.5171924007     1.2622512659    -1.9985577123
   52      H       9.9883114127     2.5019194339    -0.1942188490
   53      H      11.5973204360     1.4392493266    -2.0689644866
   54      H      10.0323589909     0.9623443306    -2.9359121783
   55      H      10.4111297223     0.4882862359    -1.2282565760
   56      C      -3.5504121319    -3.7359260288     0.4685524280
   57      C      -3.1058280965    -3.0315932452     1.5934614756
   58      N      -2.9258129346    -3.6986859002    -0.7564357415
   59      C      -1.8298625750    -2.4329416075     1.4251724256
   60      C      -1.8051873154    -2.9565125614    -0.9293112944
   61      C      -1.1771975616    -2.2901207410     0.1712702841
   62      C       0.2269026734    -1.7587923857     0.1089910019
   63      C       1.1299409785    -2.0685037351     1.1140744310
   64      C       0.8527365456    -1.1896685388    -1.0034796769
   65      N       2.4271023866    -1.7634242319     1.1096271834
   66      N       0.2171742287    -0.8284548087    -2.0720067859
   67      C       2.2109296927    -0.8828761614    -1.0826744523
   68      C       2.9898574951    -1.2322779420     0.0370660865
   69      S       1.3092671585    -0.2776972770    -3.1318450632
   70      N       2.6439500554    -0.3617287196    -2.2322155387
   71      C       4.5434916719    -1.1924615584     0.1639892935
   72      S       5.3799531563    -1.5712587821     1.6809473840
   73      C       5.4822552965    -1.1618348453    -0.8081788305
   74      C       6.9718974606    -1.4277003063     0.9830918859
   75      S       5.3357120313    -1.2874752426    -2.5282490506
   76      C       6.7881599229    -1.3489154033    -0.3691116699
   77      C       8.2161706523    -1.4555399088     1.7174502323
   78      C       7.1146058634    -1.6195429940    -2.6322766561
   79      C       7.7239466752    -1.5138915013    -1.4341220179
   80      N       9.1997275838    -0.7479165156     1.2161260896
   81      S       8.4223663541    -2.0932792930     3.2846875501
   82      C      10.3116499617    -0.8804537806     1.9537496377
   83      C      10.1246755623    -1.6026199244     3.1180509882
   84      C      -4.7832664947    -4.5924335281     0.6340517448
   85      H      -3.7167401685    -3.0877729147     2.4900094582
   86      H      -1.3422924935    -1.9753118627     2.2808811566
   87      H      -1.4549306607    -2.8529662459    -1.9559521451
   88      H       0.7805859548    -2.6705850334     1.9511050025
   89      H       7.5188719815    -1.9021347663    -3.5956928673
   90      H       8.7345516700    -1.8209700874    -1.1909568756
   91      H      11.2557332510    -0.5078747027     1.5783823861
   92      H      10.8854871189    -1.9291082873     3.8143204219
   93      H      -4.9427040546    -4.6745551253     1.7158746082
   94      C      -4.4449051428    -6.0220285566     0.2313637139
   95      H      -5.6869686827    -4.1895385540     0.1585656829
   96      H      -3.7011512741    -6.4403402657     0.9211133038
   97      H      -4.0433897597    -6.0663069379    -0.7890802199
   98      C      -5.7528220814    -6.8901650063     0.3554821508
   99      H      -6.1142739414    -6.9366549630     1.3903837099
  100      C      -5.4085737606    -8.2824261342    -0.2009736383
  101      H      -6.5448899143    -6.4676818149    -0.2756640296
  102      H      -4.4951222714    -8.6518699717     0.2805101389
  103      H      -5.1345432397    -8.2378899323    -1.2627767276
  104      C      -6.5714285699    -9.1950391793    -0.0365834856
  105      H      -6.8233490543    -9.4927339784     0.9885198634
  106      C      -6.3351618527   -10.5442218165    -0.6666138419
  107      H      -7.4764584912    -8.6959109238    -0.4022224143
  108      H      -6.0069321504   -10.3535086733    -1.6954358671
  109      H      -7.2585509549   -11.1361189945    -0.6631072114
  110      H      -5.5510786411   -11.1445985901    -0.1879278832
 ----------------------------------------------------------------

    9   -5663.5062867522      8.92E-06 Convergence criterion met
 Total energy in the final basis set = -5663.5062867522

                    Orbital Energies (a.u.)
 --------------------------------------------------------------

 Alpha MOs
 -- Occupied --
-88.991 -88.978 -88.935 -88.926 -88.923 -88.921 -88.904 -88.904
-14.392 -14.379 -14.379 -14.375 -14.350 -14.346 -14.344 -14.338
-14.333 -14.318 -10.273 -10.272 -10.271 -10.259 -10.256 -10.254
-10.246 -10.244 -10.244 -10.243 -10.238 -10.238 -10.236 -10.234
-10.234 -10.234 -10.233 -10.231 -10.231 -10.229 -10.227 -10.226
-10.226 -10.224 -10.223 -10.221 -10.221 -10.218 -10.217 -10.214
-10.212 -10.209 -10.205 -10.204 -10.201 -10.198 -10.195 -10.193
-10.187 -10.179 -10.179 -10.179 -10.177 -10.172 -10.171 -10.168
-10.168 -10.167 -10.166 -10.155  -8.047  -8.035  -7.997  -7.987
 -7.981  -7.981  -7.965  -7.963  -6.012  -6.007  -6.005  -6.000
 -5.994  -5.992  -5.960  -5.957  -5.954  -5.951  -5.948  -5.945
 -5.945  -5.944  -5.942  -5.941  -5.938  -5.937  -5.929  -5.927
 -5.925  -5.924  -5.921  -5.919  -1.061  -1.043  -0.987  -0.976
 -0.972  -0.953  -0.935  -0.931  -0.926  -0.919  -0.913  -0.906
 -0.846  -0.840  -0.836  -0.831  -0.815  -0.813  -0.811  -0.801
 -0.798  -0.796  -0.794  -0.791  -0.789  -0.775  -0.774  -0.760
 -0.753  -0.747  -0.746  -0.734  -0.723  -0.721  -0.712  -0.703
 -0.697  -0.686  -0.682  -0.668  -0.659  -0.648  -0.646  -0.639
 -0.634  -0.631  -0.627  -0.623  -0.613  -0.606  -0.598  -0.598
 -0.593  -0.588  -0.583  -0.581  -0.578  -0.574  -0.569  -0.556
 -0.554  -0.551  -0.541  -0.536  -0.528  -0.519  -0.519  -0.517
 -0.511  -0.506  -0.501  -0.495  -0.491  -0.484  -0.483  -0.479
 -0.477  -0.474  -0.469  -0.468  -0.463  -0.461  -0.452  -0.451
 -0.447  -0.443  -0.439  -0.437  -0.437  -0.436  -0.435  -0.433
 -0.427  -0.426  -0.422  -0.421  -0.418  -0.416  -0.416  -0.413
 -0.410  -0.408  -0.405  -0.403  -0.401  -0.397  -0.396  -0.395
 -0.393  -0.392  -0.390  -0.388  -0.386  -0.386  -0.384  -0.382
 -0.378  -0.376  -0.372  -0.368  -0.365  -0.363  -0.357  -0.356
 -0.352  -0.347  -0.345  -0.344  -0.343  -0.342  -0.341  -0.338
 -0.337  -0.335  -0.334  -0.332  -0.330  -0.330  -0.327  -0.313
 -0.312  -0.312  -0.312  -0.304  -0.302  -0.300  -0.300  -0.296
 -0.295  -0.293  -0.287  -0.285  -0.284  -0.282  -0.279  -0.277
 -0.274  -0.273  -0.271  -0.258  -0.257  -0.252  -0.250  -0.244
 -0.240  -0.237  -0.237  -0.230  -0.198  -0.192

          Ground-State Mulliken Net Atomic Charges

     Atom                 Charge (a.u.)
  ----------------------------------------
      1 C                     0.259646
      2 C                    -0.135287
      3 N                    -0.463083
      4 C                    -0.083800
      5 C                     0.095038
      6 C                     0.013321
      7 C                     0.028851
      8 C                     0.050385
      9 C                     0.198500
     10 N                    -0.533041
     11 N                    -0.505139
     12 C                     0.225637
     13 C                     0.318568
     14 S                     0.587438
     15 N                    -0.582022
     16 C                    -0.239637
     17 S                     0.370625
     18 C                    -0.120940
     19 C                    -0.228110
     20 S                     0.307886
     21 C                     0.142040
     22 C                     0.064883
     23 C                    -0.329182
     24 C                    -0.069322
     25 N                    -0.409380
     26 S                     0.250675
     27 C                     0.122992
     28 C                    -0.311088
     29 C                    -0.215626
     30 H                     0.104419
     31 H                     0.100900
     32 H                     0.106990
     33 H                     0.095846
     34 H                     0.123916
     35 H                     0.105690
     36 H                     0.120716
     37 H                     0.138260
     38 H                     0.115550
     39 C                    -0.183370
     40 H                     0.103278
     41 H                     0.114404
     42 H                     0.106815
     43 C                    -0.186927
     44 H                     0.090904
     45 C                    -0.190967
     46 H                     0.084327
     47 H                     0.077708
     48 H                     0.114699
     49 C                    -0.179025
     50 H                     0.088425
     51 C                    -0.321838
     52 H                     0.092844
     53 H                     0.090357
     54 H                     0.107348
     55 H                     0.120424
     56 C                     0.272412
     57 C                    -0.100550
     58 N                    -0.488465
     59 C                    -0.100865
     60 C                     0.092367
     61 C                     0.059693
     62 C                     0.041202
     63 C                     0.054791
     64 C                     0.221988
     65 N                    -0.513782
     66 N                    -0.540490
     67 C                     0.239329
     68 C                     0.291365
     69 S                     0.606285
     70 N                    -0.558921
     71 C                    -0.238189
     72 S                     0.290991
     73 C                    -0.099978
     74 C                    -0.210663
     75 S                     0.262252
     76 C                     0.131195
     77 C                     0.040225
     78 C                    -0.319696
     79 C                    -0.016933
     80 N                    -0.412640
     81 S                     0.280845
     82 C                     0.132711
     83 C                    -0.315647
     84 C                    -0.229952
     85 H                     0.102793
     86 H                     0.096569
     87 H                     0.123104
     88 H                     0.109822
     89 H                     0.130665
     90 H                     0.110171
     91 H                     0.120223
     92 H                     0.132113
     93 H                     0.097304
     94 C                    -0.181903
     95 H                     0.110532
     96 H                     0.095185
     97 H                     0.125196
     98 C                    -0.182106
     99 H                     0.092648
    100 C                    -0.163344
    101 H                     0.092093
    102 H                     0.088588
    103 H                     0.093836
    104 C                    -0.170382
    105 H                     0.089643
    106 C                    -0.317459
    107 H                     0.089625
    108 H                     0.094853
    109 H                     0.094862
    110 H                     0.101966
  ----------------------------------------
  Sum of atomic charges =     0.000000

                    Cartesian Multipole Moments
 -----------------------------------------------------------------
    Charge (ESU x 10^10)
                 0.0000
    Dipole Moment (Debye)
         X      -0.3328      Y      -3.7654      Z       2.0586
       Tot       4.3043
    Quadrupole Moments (Debye-Ang)
        XX    -368.8055     XY     -16.5243     YY    -454.0149
        XZ       3.3475     YZ      -5.2825     ZZ    -433.9420

 Total job time:  99.88s(wall), 1106.56s(cpu)
        *  Thank you very much for using Q-Chem.  Have a nice day.  *
