 Q-Chem 4.4, Q-Chem, Inc., Pleasanton, CA (2016)
 Q-Chem 4.4.2 for Intel X86 Linux

User input:
--------------------------------------------------------------
$comment
SP
$end

$rem
MEM_STATIC 5000
MEM_TOTAL 20000
JOBTYPE SP
EXCHANGE B3LYP
BASIS 6-31g(d,p)
$end

$molecule
0 1
O          15.746000     11.717000      6.560000
C          14.297000     11.585000      6.690000
H          14.006000     11.204000      7.677000
H          13.985000     10.897000      5.895000
H          13.891000     12.593000      6.542000
O          16.053000     12.356000      8.814000
C          16.411000     12.175000      7.650000
C          17.939000     12.499000      7.259000
H          17.942000     13.245000      6.454000
H          18.322000     11.531000      6.914000
C          18.725000     13.026000      8.535000
H          18.214000     13.950000      8.831000
H          18.652000     12.322000      9.373000
C          20.170000     13.203000      8.027000
H          20.563000     12.233000      7.698000
H          20.026000     13.719000      7.069000
C          21.137000     13.808000      9.043000
C          21.775000     12.738000      9.773000
C          21.110000     12.353000     10.923000
H          20.075000     12.650000     11.069000
C          21.742000     11.473000     11.885000
H          21.158000     11.076000     12.710000
C          23.027000     11.009000     11.603000
H          23.544000     10.352000     12.296000
C          23.727000     11.463000     10.510000
H          24.756000     11.125000     10.428000
C          23.106000     12.258000      9.542000
H          23.624000     12.593000      8.648000
C          21.529000     17.649000     12.881000
C          23.785000     17.333000     12.207000
C          24.271000     21.306000      9.965000
C          18.584000     18.604000      8.956000
C          23.741000     19.793000      6.748000
C          22.553000     16.769000     12.471000
C          20.106000     20.006000      7.034000
C          23.220000     20.751000     12.079000
C          23.982000     16.145000      8.390000
C          19.100000     17.898000      7.813000
C          21.939000     15.049000      8.755000
C          23.176000     16.473000      7.309000
C          20.867000     17.760000      6.376000
C          21.351000     20.486000      6.740000
C          23.422000     15.722000     10.682000
C          22.954000     21.642000      8.193000
C          20.726000     15.171000      9.694000
C          19.570000     16.013000      9.247000
C          24.000000     20.800000      7.696000
C          19.932000     21.241000     10.904000
C          22.005000     22.028000     10.402000
C          22.085000     21.501000     11.712000
C          22.998000     19.584000     12.842000
C          19.173000     16.790000     10.358000
C          23.315000     15.384000      9.320000
C          24.001000     18.713000     12.365000
C          19.884000     18.595000      6.836000
C          24.321000     16.654000     11.108000
C          23.328000     17.648000      6.503000
C          18.816000     19.076000     11.151000
C          24.297000     20.668000     11.225000
C          21.909000     15.840000      7.476000
C          20.612000     19.730000     12.697000
C          22.139000     18.303000      6.121000
C          25.001000     16.990000      8.835000
C          20.547000     21.609000      8.543000
C          19.575000     20.660000      8.119000
C          25.033000     18.305000      8.088000
C          18.620000     18.036000     10.185000
C          19.637000     16.620000      7.989000
C          18.908000     20.311000     10.462000
C          21.016000     15.578000     11.076000
C          25.374000     18.718000     10.267000
C          20.783000     16.586000      7.118000
C          24.291000     18.540000      6.911000
C          19.649000     18.776000     12.242000
C          24.792000     20.633000      8.857000
C          21.722000     19.007000     13.085000
C          23.106000     21.869000      9.561000
C          25.171000     17.356000     10.161000
C          25.306000     19.345000      9.025000
C          22.351000     15.800000     11.535000
C          19.989000     16.515000     11.457000
C          20.720000     21.887000      9.933000
C          24.830000     19.372000     11.387000
C          22.420000     19.716000      6.232000
C          18.784000     19.985000      9.083000
C          21.633000     21.451000      7.709000
C          20.227000     17.537000     12.385000
C          20.831000     20.958000     12.015000
O          32.466000     31.368000     19.310000
C          32.862000     31.642000     20.653000
H          33.294000     32.643000     20.772000
H          33.611000     30.895000     20.943000
H          32.064000     31.592000     21.404000
O          30.922000     29.829000     19.945000
C          31.499000     30.455000     19.088000
C          31.092000     30.425000     17.571000
H          31.907000     30.105000     16.910000
H          31.080000     31.479000     17.268000
C          29.667000     29.817000     17.233000
H          29.668000     28.736000     17.420000
H          28.949000     30.231000     17.952000
C          29.230000     30.006000     15.741000
H          28.161000     30.245000     15.803000
H          29.755000     30.874000     15.322000
C          29.431000     28.742000     14.767000
C          30.809000     28.239000     14.888000
C          31.882000     28.862000     14.083000
H          31.755000     29.681000     13.380000
C          33.249000     28.467000     14.177000
H          34.023000     29.007000     13.640000
C          33.567000     27.480000     15.086000
H          34.561000     27.054000     15.190000
C          32.532000     26.755000     15.754000
H          32.737000     25.941000     16.444000
C          31.208000     27.110000     15.621000
H          30.400000     26.648000     16.181000
C          29.221000     27.021000      9.577000
C          28.857000     25.025000     10.831000
C          24.433000     24.603000      9.892000
C          25.901000     30.777000     11.023000
C          23.438000     25.930000     12.920000
C          29.470000     26.239000     10.719000
C          23.681000     29.282000     11.856000
C          26.241000     25.181000      8.482000
C          27.190000     25.777000     14.367000
C          25.608000     30.521000     12.415000
C          28.307000     27.857000     14.334000
C          26.269000     26.780000     14.757000
C          24.744000     29.014000     13.965000
C          23.047000     28.012000     11.950000
C          29.118000     25.986000     12.885000
C          22.993000     26.138000     10.539000
C          28.845000     28.832000     13.361000
C          27.964000     29.926000     12.836000
C          23.317000     25.390000     11.661000
C          25.188000     28.528000      8.331000
C          24.204000     26.556000      8.491000
C          25.489000     26.344000      8.072000
C          27.647000     25.374000      8.746000
C          28.182000     29.984000     11.390000
C          28.347000     26.431000     13.985000
C          27.943000     24.591000      9.853000
C          24.484000     29.818000     12.838000
C          28.576000     24.858000     12.149000
C          24.878000     26.624000     14.505000
C          27.049000     29.828000      9.254000
C          25.706000     24.279000      9.388000
C          26.854000     28.048000     14.739000
C          27.492000     27.677000      8.155000
C          24.133000     27.742000     14.052000
C          26.736000     24.708000     13.597000
C          23.288000     28.485000      9.794000
C          23.845000     29.547000     10.488000
C          25.344000     24.535000     13.338000
C          27.184000     30.441000     10.521000
C          26.641000     30.075000     13.315000
C          25.687000     29.673000      8.991000
C          29.560000     28.280000     12.130000
C          26.514000     23.730000     11.550000
C          26.096000     29.153000     14.241000
C          24.426000     25.502000     13.783000
C          27.962000     28.802000      8.887000
C          24.230000     24.436000     11.247000
C          28.280000     26.594000      8.587000
C          23.690000     25.657000      9.412000
C          27.414000     24.195000     12.526000
C          25.240000     23.989000     12.080000
C          29.651000     26.877000     11.975000
C          29.112000     29.043000     11.022000
C          24.024000     27.951000      8.675000
C          26.774000     23.896000     10.204000
C          23.226000     27.260000     13.129000
C          24.972000     30.244000     10.052000
C          22.740000     27.496000     10.721000
C          29.015000     28.431000      9.734000
C          26.095000     27.553000      7.955000
$end

--------------------------------------------------------------

             Standard Nuclear Orientation (Angstroms)
    I     Atom           X                Y                Z
 ----------------------------------------------------------------
    1      O     -14.3893789348    -1.3205715696    -0.9868842225
    2      C     -15.1931182949    -1.8681248388    -2.0768903960
    3      H     -15.3596263682    -1.1328453962    -2.8741671377
    4      H     -16.1422543897    -2.1791926214    -1.6240212006
    5      H     -14.6257613087    -2.7221249110    -2.4662410437
    6      O     -13.0540934422     0.0018495349    -2.4191206120
    7      C     -13.3609382905    -0.5107045455    -1.3425726319
    8      C     -12.4381932267    -0.2068688247    -0.0584907022
    9      H     -12.0685799741    -1.1609509428     0.3385777495
   10      H     -13.1295592979     0.2804067011     0.6395877444
   11      C     -11.2378586790     0.7499170440    -0.4677079733
   12      H     -10.6614549007     0.1911850136    -1.2147623238
   13      H     -11.5992567242     1.6689610408    -0.9451371145
   14      C     -10.5106739745     1.0150573162     0.8658290685
   15      H     -11.1938905266     1.5191441915     1.5605963425
   16      H     -10.4469046816     0.0123877516     1.3078055628
   17      C      -9.2316737398     1.8414759807     0.7451617962
   18      C      -9.5607073295     3.2366705066     0.9184047809
   19      C      -9.8722953817     3.9016018522    -0.2536571591
   20      H     -10.1137481389     3.3308160679    -1.1462120059
   21      C      -9.9823035901     5.3460768975    -0.2793094050
   22      H     -10.3579560482     5.8373967742    -1.1719347516
   23      C      -9.7892923406     6.0390958133     0.9158962007
   24      H      -9.8559255520     7.1225397640     0.9458331481
   25      C      -9.3873076058     5.3918004474     2.0605280115
   26      H      -9.1633272636     6.0255332982     2.9137715173
   27      C      -9.3423538192     3.9954832738     2.1150028458
   28      H      -9.0706733196     3.4594021722     3.0197634543
   29      C      -4.7937324757     2.5123067792    -2.3357232027
   30      C      -4.1033945852     3.3332294141    -0.2160091596
   31      C      -1.2960163067    -0.1349466880     0.8507010757
   32      C      -6.6661336030    -2.1080334878    -1.9652575008
   33      C      -3.7353318117    -1.7360665226     2.9495848606
   34      C      -5.1077556502     3.2204240225    -1.1563015582
   35      C      -5.3225003998    -3.4366591625     0.1336888138
   36      C      -1.6580862904     1.0870031604    -1.2126374556
   37      C      -6.0868005345     1.5025376079     2.7393775072
   38      C      -7.3120588394    -2.2398563280    -0.6859825781
   39      C      -7.9039162780     1.3548172863     1.2613521078
   40      C      -6.5472517755     0.1967137754     2.8320585367
   41      C      -6.9495534063    -2.2720820078     1.5665389682
   42      C      -4.3884158902    -3.2915018406     1.1202365729
   43      C      -6.0406094253     3.0121215065     0.8779759293
   44      C      -2.2120624479    -2.1622952264     1.0458583736
   45      C      -8.1446100524     1.3298120816    -0.2583239257
   46      C      -8.1799595666    -0.0015143125    -0.9449311235
   47      C      -2.5096817446    -1.5232077392     2.2920842512
   48      C      -3.2737845420    -1.5847787527    -2.8505536833
   49      C      -1.7320482475    -1.3447799160    -1.1970266178
   50      C      -1.7338387685    -0.1292542025    -1.9200224918
   51      C      -2.4922310911     2.1376330821    -1.6527751831
   52      C      -7.4255429944     0.1277033114    -2.1322884586
   53      C      -6.7686566118     2.2248905557     1.7895414641
   54      C      -2.8292858391     2.7852113233    -0.4447952501
   55      C      -6.6365152021    -2.9015450044     0.3914230510
   56      C      -4.7043793160     3.2260628100     1.0423511513
   57      C      -5.7547555465    -0.9216210801     3.2499602931
   58      C      -5.5215261161    -0.7701483148    -3.3775499509
   59      C      -1.4298161959     1.0815352607     0.1453010061
   60      C      -7.6537542306     0.0392183808     1.9462174012
   61      C      -3.6267240668     0.7929192563    -3.2775851458
   62      C      -5.9392766161    -2.1220667994     2.5333348331
   63      C      -4.7546184275     1.8359228500     2.9934564595
   64      C      -3.3569027070    -3.0838408993    -0.8925255806
   65      C      -4.7433467349    -3.3227413033    -1.1066763557
   66      C      -3.8922282446     0.6216935458     3.2583873364
   67      C      -6.7472452956    -0.9462045457    -2.6565862234
   68      C      -8.0235194493    -1.1541059073    -0.1686830283
   69      C      -4.6764939608    -1.8717391800    -3.0932469043
   70      C      -7.2619621336     2.1819910024    -1.0672718463
   71      C      -2.7448374746     2.0345444829     1.9460468125
   72      C      -7.7255402488    -1.1643487420     1.2399391639
   73      C      -4.4237591530    -0.6665310839     3.4799052742
   74      C      -5.0217566021     0.5402061229    -3.4634084422
   75      C      -1.9023902712    -0.2588382195     2.1032965825
   76      C      -3.5356089906     1.9962824454    -2.6075194192
   77      C      -1.5493676977    -1.2878448456     0.1843311253
   78      C      -3.9824996213     2.6141677565     2.1453412464
   79      C      -2.6359683792     0.8157703805     2.6116699849
   80      C      -6.2701811434     3.0226009045    -0.4740303609
   81      C      -6.9117907075     1.4213832316    -2.2406067479
   82      C      -2.6357735885    -2.2123505249    -1.7641851023
   83      C      -2.1620009930     2.1657806901     0.6728105054
   84      C      -4.6192603145    -2.6882885339     2.3758517840
   85      C      -5.4084321945    -2.6853897126    -2.1846588608
   86      C      -3.1789648071    -3.0300538775     0.4732566349
   87      C      -5.6905106235     1.6021851669    -2.9024961771
   88      C      -2.7208920294    -0.2380068444    -2.9064669774
   89      O      13.7573071634     4.6462602911    -1.6529774833
   90      C      14.5745042831     5.5971606095    -2.3337993778
   91      H      15.6396320205     5.3371871271    -2.3072910471
   92      H      14.4342937689     6.5710231996    -1.8489873862
   93      H      14.3497401509     5.7426195125    -3.3975793327
   94      O      11.9136236530     5.1691643566    -2.8707970314
   95      C      12.4618793410     4.5265885814    -2.0072195458
   96      C      11.7857167748     3.3181697208    -1.2653529530
   97      H      11.7457330205     3.4457812787    -0.1764716052
   98      H      12.5446779065     2.5265595527    -1.2795071837
   99      C      10.4710538229     2.7281163415    -1.9271923085
  100      H       9.6505766522     3.4507719009    -1.8370970555
  101      H      10.6534317390     2.6353440889    -3.0051591934
  102      C       9.9644621382     1.4012625495    -1.2672090666
  103      H       9.6341050946     0.7890064903    -2.1155797060
  104      H      10.8110300472     0.8961576022    -0.7847137116
  105      C       8.7562603925     1.5372705937    -0.2143447099
  106      C       9.0831704846     2.5698048777     0.7824184236
  107      C       9.8958424352     2.2064790686     1.9635372394
  108      H      10.2886156369     1.2176185539     2.1848584866
  109      C      10.2967535418     3.1558616727     2.9491806616
  110      H      10.9692060107     2.8733950778     3.7535843537
  111      C       9.9252201036     4.4699812396     2.7577997115
  112      H      10.1147579245     5.2609013255     3.4781113330
  113      C       9.0089502168     4.8154275178     1.7165550891
  114      H       8.6559740988     5.8308637394     1.5583838532
  115      C       8.5859878959     3.8827262160     0.7957613247
  116      H       7.9662435726     4.1211487214    -0.0638779500
  117      C       5.7314121213    -1.1272654908     3.4860041102
  118      C       4.2977035822     0.6428718456     2.7788113249
  119      C       1.4361452384    -1.9219652548     0.3571021159
  120      C       7.5153635931    -3.8417149056    -0.5969033735
  121      C       2.8957549255    -1.0915436232    -2.6594650514
  122      C       5.5593969988     0.1977530529     3.0473406213
  123      C       5.4225900935    -3.5395437556    -2.4370951232
  124      C       2.4075202376    -2.3104447491     2.4776120294
  125      C       5.0997227810     1.8052866428    -0.9431835762
  126      C       7.5680387336    -2.9023727382    -1.6941319833
  127      C       7.3419336691     1.1827235718    -0.5430791447
  128      C       5.5597787665     1.0662053766    -2.0605274678
  129      C       6.3638503109    -1.4458826014    -3.0537685979
  130      C       4.0995854802    -3.0860042849    -2.6971965295
  131      C       5.8118372915     1.6301003767     1.3847751211
  132      C       2.1394743278    -3.0340532117    -1.4084070368
  133      C       8.1191289844     0.2503115603     0.3015351356
  134      C       8.4045470533    -1.1382258603    -0.1874662525
  135      C       2.0271768541    -1.7046402672    -1.7871081068
  136      C       4.5410256786    -4.7716187095     1.1642970368
  137      C       2.4910719712    -4.0576674202     0.7512554483
  138      C       2.8480430786    -3.5961741102     1.9887228431
  139      C       3.3545605483    -1.5510404570     3.2587655169
  140      C       8.1375439403    -2.0416395362     0.9325145812
  141      C       6.1043191772     1.7520305730     0.0056256100
  142      C       3.1952976787    -0.2261712568     2.8773065536
  143      C       6.5525160440    -2.7782554674    -2.6374360541
  144      C       4.4068507269     1.4889854342     1.7223300445
  145      C       4.6538497159     0.3018597470    -2.8465232145
  146      C       6.8093007805    -3.9541287416     1.6023475067
  147      C       1.6713231526    -1.4621088695     1.6658207462
  148      C       6.8786242416     0.6412212583    -1.8861482489
  149      C       4.9684425076    -3.2955990263     3.0884263852
  150      C       5.0488358121    -0.9847339221    -3.2924163795
  151      C       3.7771935160     1.6516747684    -0.5319698418
  152      C       3.9720376024    -4.6870726764    -1.1640763304
  153      C       5.3188233077    -4.5306634538    -1.4494417437
  154      C       2.8549275086     0.8914738374    -1.3105544268
  155      C       7.7464777803    -3.3690055401     0.7199569411
  156      C       7.9948724452    -1.5429947450    -1.4798670671
  157      C       5.9156614467    -4.7122911470     0.8441677734
  158      C       7.6730813060     0.0713714600     1.7507804251
  159      C       2.2711221204     0.6976103742     0.8884128823
  160      C       7.2432703614    -0.6749984089    -2.3082761858
  161      C       3.3034847592     0.2108960823    -2.4557392644
  162      C       6.3333043009    -3.1907272789     2.7030652535
  163      C       1.5957190520    -1.0127031608    -0.6690078404
  164      C       4.6174598040    -2.0214787851     3.5720437471
  165      C       1.7723614580    -3.1905754151    -0.0563612016
  166      C       3.3909578258     1.5413754197     0.7751453197
  167      C       1.9904041605     0.2906688424    -0.4256088134
  168      C       6.5369326163     0.7841431609     2.2000438859
  169      C       7.7387485945    -1.3174450281     2.0290133667
  170      C       3.5841113094    -4.7899164529     0.2208241529
  171      C       2.1422918936    -0.1771540053     1.9491023058
  172      C       3.9272369178    -1.7867058137    -3.2165282691
  173      C       6.3271890550    -4.6588006692    -0.4940290717
  174      C       3.1649200799    -3.7829456699    -1.9819208516
  175      C       6.8154900748    -1.8987496420     2.9523635990
  176      C       4.1006665985    -4.0453407292     2.2566587791
 ----------------------------------------------------------------

    9   -5804.2381278774      8.37E-06 Convergence criterion met
 Total energy in the final basis set = -5804.2381278774

                    Orbital Energies (a.u.)
 --------------------------------------------------------------

 Alpha MOs
 -- Occupied --
-19.205 -19.195 -19.142 -19.134 -10.323 -10.318 -10.253 -10.244
-10.236 -10.236 -10.235 -10.235 -10.235 -10.230 -10.229 -10.227
-10.227 -10.224 -10.223 -10.223 -10.223 -10.222 -10.222 -10.222
-10.221 -10.221 -10.221 -10.220 -10.220 -10.219 -10.219 -10.219
-10.219 -10.218 -10.218 -10.218 -10.218 -10.217 -10.217 -10.217
-10.217 -10.217 -10.216 -10.216 -10.216 -10.216 -10.216 -10.215
-10.215 -10.215 -10.215 -10.215 -10.214 -10.214 -10.214 -10.214
-10.214 -10.214 -10.213 -10.213 -10.213 -10.213 -10.213 -10.213
-10.213 -10.213 -10.213 -10.212 -10.212 -10.212 -10.212 -10.212
-10.212 -10.212 -10.212 -10.212 -10.212 -10.212 -10.212 -10.211
-10.211 -10.211 -10.211 -10.211 -10.211 -10.211 -10.211 -10.211
-10.211 -10.211 -10.210 -10.210 -10.210 -10.210 -10.210 -10.210
-10.210 -10.210 -10.210 -10.209 -10.209 -10.209 -10.209 -10.209
-10.209 -10.209 -10.209 -10.209 -10.209 -10.208 -10.208 -10.208
-10.208 -10.208 -10.208 -10.207 -10.207 -10.207 -10.207 -10.207
-10.205 -10.205 -10.205 -10.205 -10.205 -10.205 -10.205 -10.205
-10.204 -10.204 -10.203 -10.203 -10.202 -10.202 -10.202 -10.201
-10.201 -10.199 -10.199 -10.198 -10.197 -10.197 -10.197 -10.195
-10.195 -10.195 -10.192 -10.192  -1.101  -1.094  -1.015  -1.015
 -0.985  -0.981  -0.967  -0.964  -0.963  -0.962  -0.961  -0.958
 -0.937  -0.931  -0.929  -0.926  -0.924  -0.923  -0.922  -0.922
 -0.921  -0.918  -0.898  -0.898  -0.890  -0.887  -0.886  -0.882
 -0.873  -0.871  -0.849  -0.849  -0.841  -0.839  -0.837  -0.837
 -0.837  -0.832  -0.821  -0.817  -0.798  -0.796  -0.796  -0.795
 -0.794  -0.793  -0.792  -0.792  -0.791  -0.788  -0.781  -0.781
 -0.770  -0.769  -0.768  -0.768  -0.766  -0.764  -0.762  -0.761
 -0.749  -0.744  -0.742  -0.740  -0.734  -0.730  -0.715  -0.714
 -0.714  -0.713  -0.712  -0.711  -0.710  -0.709  -0.708  -0.707
 -0.705  -0.705  -0.704  -0.700  -0.698  -0.697  -0.673  -0.668
 -0.658  -0.656  -0.656  -0.655  -0.648  -0.644  -0.630  -0.629
 -0.627  -0.625  -0.624  -0.624  -0.621  -0.621  -0.616  -0.615
 -0.614  -0.612  -0.611  -0.610  -0.608  -0.608  -0.608  -0.607
 -0.602  -0.602  -0.600  -0.600  -0.566  -0.564  -0.561  -0.560
 -0.560  -0.558  -0.558  -0.557  -0.557  -0.556  -0.554  -0.552
 -0.535  -0.534  -0.531  -0.531  -0.529  -0.526  -0.525  -0.524
 -0.523  -0.522  -0.519  -0.516  -0.514  -0.513  -0.512  -0.511
 -0.503  -0.503  -0.497  -0.496  -0.491  -0.490  -0.488  -0.485
 -0.485  -0.481  -0.480  -0.480  -0.479  -0.476  -0.474  -0.473
 -0.472  -0.471  -0.470  -0.470  -0.468  -0.468  -0.467  -0.465
 -0.464  -0.463  -0.462  -0.462  -0.461  -0.460  -0.459  -0.458
 -0.456  -0.453  -0.451  -0.450  -0.448  -0.444  -0.444  -0.440
 -0.440  -0.439  -0.438  -0.437  -0.436  -0.435  -0.432  -0.430
 -0.429  -0.428  -0.427  -0.427  -0.425  -0.425  -0.422  -0.422
 -0.421  -0.420  -0.419  -0.418  -0.418  -0.417  -0.417  -0.416
 -0.415  -0.415  -0.415  -0.414  -0.413  -0.413  -0.412  -0.411
 -0.409  -0.409  -0.408  -0.402  -0.401  -0.397  -0.397  -0.395
 -0.392  -0.392  -0.389  -0.389  -0.385  -0.384  -0.380  -0.379
 -0.377  -0.375  -0.371  -0.369  -0.367  -0.366  -0.366  -0.365
 -0.364  -0.362  -0.362  -0.361  -0.360  -0.357  -0.357  -0.356
 -0.355  -0.354  -0.354  -0.354  -0.352  -0.351  -0.350  -0.348
 -0.348  -0.348  -0.346  -0.346  -0.345  -0.345  -0.343  -0.342
 -0.341  -0.340  -0.340  -0.339  -0.337  -0.336  -0.335  -0.332
 -0.330  -0.329  -0.329  -0.327  -0.325  -0.325  -0.321  -0.320
 -0.307  -0.306  -0.302  -0.300  -0.289  -0.282  -0.270  -0.269
 -0.269  -0.268  -0.268  -0.267  -0.266  -0.264  -0.262  -0.261
 -0.261  -0.261  -0.260  -0.258  -0.257  -0.256  -0.254  -0.249
 -0.247  -0.242  -0.241  -0.240  -0.224  -0.218  -0.211  -0.210
 -0.208  -0.206  -0.205  -0.203  -0.199  -0.196

          Ground-State Mulliken Net Atomic Charges

     Atom                 Charge (a.u.)
  ----------------------------------------
      1 O                    -0.457498
      2 C                    -0.099236
      3 H                     0.145516
      4 H                     0.130447
      5 H                     0.133333
      6 O                    -0.469835
      7 C                     0.589221
      8 C                    -0.278066
      9 H                     0.129179
     10 H                     0.128744
     11 C                    -0.165557
     12 H                     0.124097
     13 H                     0.117560
     14 C                    -0.196915
     15 H                     0.113073
     16 H                     0.102493
     17 C                     0.033739
     18 C                     0.083537
     19 C                    -0.118217
     20 H                     0.098276
     21 C                    -0.093955
     22 H                     0.092905
     23 C                    -0.078748
     24 H                     0.086443
     25 C                    -0.079992
     26 H                     0.090673
     27 C                    -0.115930
     28 H                     0.091330
     29 C                     0.020081
     30 C                    -0.013301
     31 C                     0.010071
     32 C                     0.013601
     33 C                     0.018925
     34 C                    -0.007107
     35 C                     0.018650
     36 C                     0.007360
     37 C                     0.041432
     38 C                    -0.025677
     39 C                    -0.121285
     40 C                     0.019118
     41 C                     0.014156
     42 C                     0.011253
     43 C                     0.050942
     44 C                    -0.025348
     45 C                    -0.083996
     46 C                     0.011523
     47 C                    -0.007027
     48 C                    -0.005254
     49 C                     0.016149
     50 C                    -0.024109
     51 C                    -0.008406
     52 C                     0.021114
     53 C                     0.012813
     54 C                     0.001318
     55 C                    -0.011690
     56 C                    -0.015651
     57 C                    -0.016131
     58 C                    -0.017158
     59 C                     0.011946
     60 C                     0.014141
     61 C                    -0.019576
     62 C                    -0.012765
     63 C                    -0.052853
     64 C                    -0.006219
     65 C                    -0.013310
     66 C                    -0.018154
     67 C                     0.007966
     68 C                     0.016659
     69 C                    -0.018881
     70 C                     0.034435
     71 C                     0.006252
     72 C                     0.000275
     73 C                     0.000048
     74 C                     0.011317
     75 C                    -0.026197
     76 C                    -0.002296
     77 C                     0.035504
     78 C                     0.005366
     79 C                     0.026761
     80 C                     0.010089
     81 C                    -0.013355
     82 C                    -0.004533
     83 C                    -0.016959
     84 C                    -0.016630
     85 C                    -0.000011
     86 C                    -0.006106
     87 C                    -0.003234
     88 C                     0.010591
     89 O                    -0.450951
     90 C                    -0.093863
     91 H                     0.122290
     92 H                     0.123400
     93 H                     0.135827
     94 O                    -0.465147
     95 C                     0.594309
     96 C                    -0.280127
     97 H                     0.145690
     98 H                     0.123506
     99 C                    -0.182277
    100 H                     0.117747
    101 H                     0.117025
    102 C                    -0.180336
    103 H                     0.110771
    104 H                     0.110038
    105 C                    -0.001517
    106 C                     0.084963
    107 C                    -0.129310
    108 H                     0.089519
    109 C                    -0.083789
    110 H                     0.096315
    111 C                    -0.087813
    112 H                     0.089270
    113 C                    -0.094986
    114 H                     0.094173
    115 C                    -0.094781
    116 H                     0.090718
    117 C                    -0.017839
    118 C                     0.028832
    119 C                     0.014896
    120 C                    -0.026620
    121 C                     0.016933
    122 C                    -0.008616
    123 C                     0.029620
    124 C                    -0.023095
    125 C                     0.015636
    126 C                     0.006219
    127 C                    -0.084112
    128 C                    -0.002941
    129 C                    -0.013987
    130 C                     0.022345
    131 C                    -0.015020
    132 C                    -0.007282
    133 C                    -0.087009
    134 C                     0.023086
    135 C                     0.020908
    136 C                     0.025508
    137 C                    -0.020700
    138 C                     0.014212
    139 C                     0.001215
    140 C                     0.023147
    141 C                     0.033740
    142 C                     0.011035
    143 C                    -0.019590
    144 C                    -0.028636
    145 C                    -0.019390
    146 C                    -0.002664
    147 C                     0.002424
    148 C                     0.024206
    149 C                    -0.007116
    150 C                     0.009958
    151 C                    -0.001117
    152 C                    -0.039044
    153 C                     0.028894
    154 C                    -0.012909
    155 C                    -0.004194
    156 C                    -0.011400
    157 C                     0.001794
    158 C                     0.024901
    159 C                    -0.009383
    160 C                     0.014059
    161 C                    -0.002411
    162 C                    -0.007081
    163 C                     0.005805
    164 C                    -0.008068
    165 C                     0.004169
    166 C                     0.005226
    167 C                     0.013831
    168 C                     0.034799
    169 C                     0.004708
    170 C                    -0.003575
    171 C                    -0.007347
    172 C                    -0.025790
    173 C                    -0.021498
    174 C                    -0.031136
    175 C                    -0.012114
    176 C                     0.015659
  ----------------------------------------
  Sum of atomic charges =     0.000000

                    Cartesian Multipole Moments
 -----------------------------------------------------------------
    Charge (ESU x 10^10)
                 0.0000
    Dipole Moment (Debye)
         X      -1.4370      Y       1.2533      Z       1.8234
       Tot       2.6383
    Quadrupole Moments (Debye-Ang)
        XX    -680.7928     XY      21.1771     YY    -798.2769
        XZ       2.1191     YZ      14.0146     ZZ    -814.5748

 Total job time:  865.89s(wall), 8242.42s(cpu)
        *  Thank you very much for using Q-Chem.  Have a nice day.  *
