 Q-Chem 4.4, Q-Chem, Inc., Pleasanton, CA (2016)
 Q-Chem 4.4.2 for Intel X86 Linux

User input:
--------------------------------------------------------------
$comment
SP
$end

$rem
MEM_STATIC 5000
MEM_TOTAL 20000
JOBTYPE SP
EXCHANGE B3LYP
BASIS 6-31g(d,p)
$end

$molecule
0 1
O         -21.889000     33.238000     10.199000
C         -21.140000     34.458000      9.908000
H         -21.638000     35.350000     10.310000
H         -20.939000     34.558000      8.834000
H         -20.182000     34.481000     10.441000
O         -20.336000     32.021000      8.994000
C         -21.344000     32.092000      9.675000
C         -22.058000     30.892000     10.179000
H         -23.103000     30.859000      9.847000
H         -22.052000     30.836000     11.274000
C         -21.483000     29.565000      9.558000
H         -21.463000     29.629000      8.463000
H         -20.416000     29.474000      9.793000
C         -22.189000     28.309000      9.907000
H         -21.951000     28.162000     10.968000
H         -23.254000     28.406000      9.662000
C         -21.753000     27.051000      9.015000
C         -21.919000     27.324000      7.553000
C         -20.834000     27.684000      6.827000
H         -19.825000     27.575000      7.213000
C         -21.072000     28.071000      5.510000
H         -20.243000     28.257000      4.834000
C         -22.372000     28.016000      4.944000
H         -22.587000     28.250000      3.906000
C         -23.449000     27.663000      5.733000
H         -24.428000     27.790000      5.279000
C         -23.195000     27.306000      7.054000
H         -24.016000     27.128000      7.742000
C         -22.742000     21.646000      8.366000
C         -20.441000     22.014000      7.545000
C         -18.276000     20.031000     11.034000
C         -23.147000     23.550000     13.007000
C         -17.476000     23.012000     12.600000
C         -21.738000     22.436000      7.756000
C         -20.691000     23.316000     14.360000
C         -20.284000     19.428000      9.883000
C         -18.693000     25.085000      9.366000
C         -22.267000     24.573000     13.099000
C         -20.796000     26.029000      9.573000
C         -18.819000     25.598000     10.703000
C         -20.141000     25.235000     13.131000
C         -19.357000     22.872000     14.196000
C         -20.376000     24.240000      7.907000
C         -18.498000     20.905000     13.131000
C         -22.223000     25.704000      9.531000
C         -22.832000     25.355000     10.847000
C         -17.527000     21.636000     12.376000
C         -22.413000     20.257000     12.544000
C         -20.241000     19.443000     12.327000
C         -20.922000     19.344000     11.140000
C         -20.960000     19.921000      8.745000
C         -23.671000     24.209000     10.738000
C         -19.908000     25.259000      8.758000
C         -20.059000     20.745000      8.078000
C         -21.102000     24.538000     13.862000
C         -19.555000     23.074000      7.669000
C         -18.117000     25.012000     11.791000
C         -23.795000     22.000000     11.613000
C         -18.994000     19.753000      9.827000
C         -20.035000     26.156000     10.906000
C         -22.905000     20.327000     10.213000
C         -18.809000     24.802000     12.993000
C         -17.858000     23.913000      9.137000
C         -20.694000     21.106000     14.055000
C         -21.546000     22.236000     14.328000
C         -17.208000     23.401000     10.204000
C         -23.834000     23.361000     11.807000
C         -22.043000     25.433000     12.018000
C         -23.216000     21.354000     12.747000
C         -22.683000     24.505000      8.745000
C         -17.945000     21.720000      8.809000
C         -20.736000     25.883000     12.109000
C         -17.288000     23.875000     11.549000
C         -23.737000     21.461000     10.355000
C         -17.362000     21.074000     11.113000
C         -22.283000     20.463000      8.955000
C         -18.922000     19.883000     12.252000
C         -18.289000     22.901000      8.285000
C         -17.178000     21.986000     10.025000
C         -21.753000     23.856000      7.882000
C         -23.525000     23.713000      9.475000
C         -21.138000     20.048000     13.201000
C         -18.776000     20.578000      8.722000
C         -18.326000     23.593000     13.552000
C         -22.792000     22.363000     13.618000
C         -19.363000     21.498000     14.010000
C         -23.593000     22.305000      9.267000
C         -22.280000     19.749000     11.272000
O         -21.071000     17.084000      4.804000
C         -21.077000     17.557000      6.135000
H         -20.423000     18.430000      6.254000
H         -20.756000     16.784000      6.844000
H         -22.136000     17.803000      6.282000
O         -22.341000     15.126000      5.234000
C         -21.706000     15.854000      4.487000
C         -21.897000     15.602000      2.987000
H         -22.160000     14.537000      2.986000
H         -20.912000     15.618000      2.505000
C         -22.963000     16.427000      2.295000
H         -23.232000     15.940000      1.350000
H         -23.933000     16.460000      2.807000
C         -22.589000     17.875000      2.022000
H         -22.379000     18.376000      2.975000
H         -21.707000     17.977000      1.377000
C         -23.737000     18.682000      1.354000
C         -23.874000     18.371000     -0.069000
C         -23.242000     19.128000     -1.011000
H         -22.529000     19.862000     -0.649000
C         -23.306000     18.724000     -2.369000
H         -22.727000     19.227000     -3.137000
C         -24.080000     17.639000     -2.785000
H         -23.961000     17.114000     -3.728000
C         -24.791000     16.861000     -1.781000
H         -25.389000     16.008000     -2.087000
C         -24.723000     17.300000     -0.473000
H         -25.325000     16.757000      0.249000
C         -25.964000     23.678000      0.624000
C         -27.900000     22.165000      0.336000
C         -29.851000     23.315000      4.297000
C         -23.600000     22.879000      4.955000
C         -28.601000     20.523000      5.995000
C         -26.521000     22.440000      0.192000
C         -25.476000     22.000000      6.907000
C         -28.728000     24.641000      2.643000
C         -27.301000     18.910000      2.587000
C         -23.760000     21.501000      5.275000
C         -24.998000     19.022000      2.138000
C         -26.730000     18.611000      3.811000
C         -25.251000     19.824000      5.838000
C         -26.835000     21.691000      7.148000
C         -26.739000     20.285000      0.724000
C         -28.787000     22.899000      6.337000
C         -24.014000     20.135000      1.816000
C         -23.400000     20.859000      2.953000
C         -29.307000     21.683000      5.817000
C         -25.992000     25.358000      4.659000
C         -28.156000     24.934000      5.071000
C         -28.012000     25.261000      3.725000
C         -28.185000     24.320000      1.431000
C         -23.304000     22.236000      2.645000
C         -26.390000     19.252000      1.606000
C         -28.691000     23.124000      0.979000
C         -24.678000     21.052000      6.288000
C         -28.008000     20.832000      0.693000
C         -27.380000     18.963000      5.027000
C         -24.076000     24.516000      3.466000
C         -29.656000     23.703000      2.991000
C         -25.294000     18.789000      3.625000
C         -26.039000     25.250000      2.266000
C         -26.632000     19.529000      6.035000
C         -28.638000     19.446000      2.512000
C         -26.608000     23.979000      6.588000
C         -25.392000     23.393000      6.550000
C         -29.244000     19.765000      3.734000
C         -23.418000     23.264000      3.611000
C         -23.720000     20.490000      4.286000
C         -24.736000     24.824000      4.645000
C         -24.508000     21.305000      0.966000
C         -29.730000     21.375000      2.276000
C         -24.606000     19.484000      4.617000
C         -28.686000     19.478000      5.008000
C         -24.784000     24.675000      2.320000
C         -30.029000     21.942000      4.666000
C         -26.801000     24.580000      1.257000
C         -29.045000     23.888000      5.354000
C         -28.959000     20.389000      1.599000
C         -29.925000     20.969000      3.581000
C         -25.808000     21.260000      0.382000
C         -23.971000     22.513000      1.449000
C         -26.929000     24.920000      5.626000
C         -29.628000     22.740000      1.981000
C         -27.398000     20.525000      6.619000
C         -24.457000     23.834000      5.579000
C         -27.531000     22.955000      6.957000
C         -24.707000     23.733000      1.264000
C         -26.684000     25.501000      3.513000
$end

--------------------------------------------------------------

             Standard Nuclear Orientation (Angstroms)
    I     Atom           X                Y                Z
 ----------------------------------------------------------------
    1      O      -7.2274606384     8.5209699643     1.2549675916
    2      C      -7.8149792627     9.4036143198     2.2598769446
    3      H      -8.2014486596    10.3301251112     1.8154771713
    4      H      -7.1083469126     9.6107628752     3.0732877866
    5      H      -8.7239850007     8.9717893869     2.6953281997
    6      O      -6.6238871974     7.0474348363     2.9310691183
    7      C      -6.6773288705     7.3673891753     1.7564886789
    8      C      -6.2819601675     6.4519578413     0.6567245854
    9      H      -5.4834943436     6.8713962795     0.0323355042
   10      H      -7.1250790607     6.2037985527     0.0011603250
   11      C      -5.6055401253     5.1396633347     1.2021914078
   12      H      -4.7783828750     5.3853928031     1.8796490902
   13      H      -6.2942176653     4.6163902381     1.8759150249
   14      C      -5.0722588432     4.1978572257     0.1890846379
   15      H      -5.9726208577     3.7862408227    -0.2840899384
   16      H      -4.3788917446     4.7276256061    -0.4759315497
   17      C      -4.1378461602     3.0485480394     0.8008732714
   18      C      -3.0040414659     3.6193612738     1.5934564953
   19      C      -3.1091832357     3.6710188090     2.9425961127
   20      H      -3.8808287903     3.1261442025     3.4779770996
   21      C      -2.0941205304     4.3466961577     3.6163986244
   22      H      -2.0470917545     4.3266825019     4.7009265161
   23      C      -0.9756013749     4.8830237901     2.9274511886
   24      H      -0.1362079466     5.3611549484     3.4226625253
   25      C      -0.9264998161     4.8235346581     1.5486440664
   26      H      -0.1230063676     5.3856945067     1.0806049837
   27      C      -1.9635574394     4.1684789687     0.8910579277
   28      H      -2.0269193741     4.1906506790    -0.1927145025
   29      C      -1.1841281701    -1.3869545374    -0.6874862034
   30      C      -1.8293019724    -1.7653573337     1.6672171938
   31      C      -4.9455562164    -5.0005013319     0.8827187567
   32      C      -5.3120803748    -0.3285500545    -3.3647819559
   33      C      -7.6517602173    -2.8643573904     1.1861424985
   34      C      -1.4944877943    -0.9342342189     0.6174801628
   35      C      -7.5264250144    -1.6999194187    -2.3002046295
   36      C      -2.8139118411    -4.5944219611    -0.1230972313
   37      C      -5.2452011495     0.0531825055     2.5766849860
   38      C      -6.1954663057     0.2576325544    -2.5248937217
   39      C      -4.6896997116     1.6613195563     1.0076383397
   40      C      -6.4169204488     0.3292467272     1.7908883016
   41      C      -7.5286030157     0.0603940417    -0.7520464408
   42      C      -7.9088571243    -2.5732595719    -1.2539682040
   43      C      -2.9479538223     0.1723777083     1.9572963994
   44      C      -6.7960465569    -4.4952340067    -0.3546006968
   45      C      -3.8217321161     1.9060074658    -0.1458251752
   46      C      -4.4235551881     1.5815117907    -1.4713626311
   47      C      -6.9546419856    -4.0580836127     0.9985341904
   48      C      -4.1318559747    -3.5181377636    -3.1899259821
   49      C      -4.7610271282    -5.0319237440    -1.5346723262
   50      C      -3.4502152165    -4.6563352720    -1.3822373174
   51      C      -1.7572822631    -3.6904912768     0.1249194071
   52      C      -3.5031506316     0.8710651144    -2.2943079345
   53      C      -4.2189098729     0.7737066377     2.0255623223
   54      C      -1.9832831838    -3.1581940221     1.3903241710
   55      C      -7.3684265224    -0.3452671503    -2.0762343007
   56      C      -2.7541699309    -1.1534295977     2.5003652630
   57      C      -7.4138614798    -0.6601588989     1.5737959528
   58      C      -3.3327610446    -1.2493707555    -3.3598599560
   59      C      -3.5359611095    -4.7704849194     0.9816686664
   60      C      -6.1655451262     1.2553442377     0.8367484544
   61      C      -2.0782261690    -2.8556413197    -2.1778844400
   62      C      -7.9344162280    -0.8068136758     0.2794686640
   63      C      -5.0633710050    -1.2849191067     3.1241079249
   64      C      -6.4895085058    -3.6563971990    -2.5724781130
   65      C      -6.6822298349    -2.3580132190    -3.1677852016
   66      C      -6.0442982533    -2.1837941364     2.8940244299
   67      C      -3.9556288528    -0.0303382849    -3.2276724779
   68      C      -5.7685714873     1.1493090867    -1.5344338407
   69      C      -4.2823529253    -2.2556386088    -3.7122989828
   70      C      -2.5410514627     1.1262535184    -0.2830762055
   71      C      -3.9722449167    -3.1904466801     2.8034671190
   72      C      -6.6596720663     1.0545208277    -0.4780319551
   73      C      -7.2314024698    -1.9618421796     2.1313830279
   74      C      -2.1795325642    -1.5377658918    -2.6791681628
   75      C      -5.8430365389    -4.4064984146     1.7608848031
   76      C      -1.4518118147    -2.7402342018    -0.9200170965
   77      C      -5.5241496050    -5.1107461890    -0.3725978417
   78      C      -3.8127651314    -1.8935194115     3.0866964570
   79      C      -5.4092422328    -3.4512943520     2.7349236621
   80      C      -2.0972525510     0.3416496576     0.8206942904
   81      C      -2.4057516986     0.5898318344    -1.5333056847
   82      C      -5.2142269402    -4.3016616743    -2.6282157593
   83      C      -3.0745894768    -3.9041569961     1.9745363040
   84      C      -8.1812434607    -2.1873875192     0.0781152929
   85      C      -5.5432837184    -1.6505369075    -3.6922125203
   86      C      -7.2649531253    -3.7887404821    -1.4286158409
   87      C      -1.7011278666    -0.6295237086    -1.7501681188
   88      C      -3.0165248612    -3.8038367878    -2.4361690088
   89      O       2.4162956776    -5.5301198275     1.7950646009
   90      C       1.2033199585    -5.3342297218     1.0981837135
   91      H       0.4664385941    -4.8049820394     1.7153617636
   92      H       0.7631551366    -6.2840726775     0.7706103795
   93      H       1.5320485446    -4.7408449777     0.2359551695
   94      O       3.4224773638    -6.9147279686     0.1512815526
   95      C       3.4277233413    -6.3562148580     1.2372159820
   96      C       4.7930049515    -6.2472366668     1.9257759858
   97      H       5.3096010202    -7.1183446095     1.5042377858
   98      H       4.6703503585    -6.5148246941     2.9822595391
   99      C       5.5759092671    -4.9747751279     1.6732933835
  100      H       6.6290292044    -5.1493975433     1.9242922077
  101      H       5.6498040385    -4.6735236889     0.6207155321
  102      C       5.0808173238    -3.7476860329     2.4217887547
  103      H       4.0460548477    -3.5397024131     2.1229251871
  104      H       5.1070737613    -3.8694877064     3.5121226264
  105      C       5.8926033829    -2.4652512174     2.0875114176
  106      C       7.1914684048    -2.4438647671     2.7604982487
  107      C       7.3409791116    -1.8231155757     3.9655517702
  108      H       6.4335578608    -1.4857084857     4.4563797739
  109      C       8.5855388701    -1.9252345559     4.6379495108
  110      H       8.7164767866    -1.5468943079     5.6468042668
  111      C       9.6924642543    -2.5497772398     4.0600051970
  112      H      10.5624880978    -2.9042928008     4.6044427314
  113      C       9.5415522618    -3.1711698939     2.7523669673
  114      H      10.3899703819    -3.6698393035     2.2937118535
  115      C       8.3216585481    -3.0297813003     2.1198500956
  116      H       8.2528346714    -3.4277547887     1.1121708924
  117      C       5.7875580694     3.0447974896     1.8033042233
  118      C       7.5326576559     2.4419164525     0.1566801349
  119      C       4.9882524904     3.5124987317    -3.4762632912
  120      C       1.4833418375     0.6632832062     0.9164162105
  121      C       4.0307204016     0.2015290255    -4.0775784358
  122      C       6.8529710237     2.2027543811     1.3727515085
  123      C       1.2101485488     0.2163799450    -1.8814336608
  124      C       5.2452141536     4.5945762931    -1.3506575293
  125      C       6.6349188800    -1.1458069338    -1.3740494277
  126      C       1.8086368231    -0.5883908715     0.3211186584
  127      C       5.7886664364    -1.8242345078     0.7095884556
  128      C       5.4936953666    -1.8492135278    -1.7152913593
  129      C       2.7203336624    -1.6583071733    -1.5163978668
  130      C       1.8158097049     0.3998500021    -3.1463274516
  131      C       7.3206797976     0.2276558038     0.4481937153
  132      C       3.0000497897     2.3731435488    -3.9406680585
  133      C       5.1457998348    -1.1212678033     1.8941851569
  134      C       3.6829243220    -0.8939509535     1.8466111714
  135      C       4.1080611015     1.5529726715    -4.2857574160
  136      C       2.0266831466     3.8663304287    -0.2667953988
  137      C       2.9444179266     4.2153869338    -2.2838076521
  138      C       3.8116796461     4.6989033886    -1.3073600356
  139      C       6.0397947828     4.3152712755    -0.2748023668
  140      C       3.3807611347     0.3785846506     2.3847185441
  141      C       6.8241361250    -1.0001390352    -0.0130851748
  142      C       7.0801379334     3.4959719654    -0.6451950901
  143      C       1.6363304062    -0.8345491708    -1.0860808976
  144      C       7.7865185471     1.2051962455    -0.4108405939
  145      C       4.7386427136    -1.5024279371    -2.8705814723
  146      C       2.3031665328     2.5964398307     1.7615546218
  147      C       5.7764649634     4.0253743111    -2.4713330760
  148      C       4.8532560605    -2.1904967143    -0.4496929704
  149      C       3.9692317444     4.2115836772     1.0924790914
  150      C       3.3665898426    -1.4460405181    -2.7695103185
  151      C       7.1734980309    -0.1450448889    -2.2622486326
  152      C       1.3176791199     2.4976491148    -2.1710440042
  153      C       0.9467572278     1.5166873396    -1.3203813534
  154      C       6.4034774326     0.1541937801    -3.3935335203
  155      C       2.3090289920     1.1850490180     1.9331197860
  156      C       2.9295474090    -1.3476406868     0.7321432030
  157      C       1.5980571145     2.9134921609     0.6114226607
  158      C       5.6408230466     0.2797165767     2.2514396697
  159      C       7.2137010504     2.0609875472    -2.5800624275
  160      C       3.4775090030    -1.9914104869    -0.3595946484
  161      C       5.2251918572    -0.5423334053    -3.7720860040
  162      C       3.5024494993     3.2096884824     1.9212651640
  163      C       5.2823072143     2.2633773935    -4.1136028410
  164      C       5.3865627765     4.0659267321     0.9598827123
  165      C       3.5460025476     3.5448686345    -3.3575986718
  166      C       7.7127167924     0.9958764772    -1.7791331560
  167      C       6.4327557548     1.5319035082    -3.5880706244
  168      C       6.7698826854     0.8283522675     1.5751969538
  169      C       4.5562078061     1.0928408955     2.6300695974
  170      C       1.8961139311     3.6454730009    -1.6593023742
  171      C       6.9026270206     3.3180431061    -2.0474290922
  172      C       2.9345212776    -0.3571373185    -3.5093985377
  173      C       1.0803949334     1.7417350805     0.0735488737
  174      C       1.8608835205     1.8445497906    -3.3178030250
  175      C       4.6325361694     2.5113592992     2.4148940430
  176      C       3.2236776700     4.4590362685    -0.0978785596
 ----------------------------------------------------------------

    9   -5804.2038402261      9.80E-06 Convergence criterion met
 Total energy in the final basis set = -5804.2038402261

                    Orbital Energies (a.u.)
 --------------------------------------------------------------

 Alpha MOs
 -- Occupied --
-19.198 -19.189 -19.142 -19.141 -10.320 -10.320 -10.246 -10.243
-10.239 -10.239 -10.237 -10.234 -10.233 -10.233 -10.232 -10.230
-10.228 -10.225 -10.225 -10.223 -10.223 -10.223 -10.222 -10.221
-10.221 -10.220 -10.220 -10.220 -10.220 -10.220 -10.220 -10.219
-10.219 -10.219 -10.219 -10.218 -10.218 -10.218 -10.218 -10.217
-10.217 -10.217 -10.217 -10.216 -10.216 -10.216 -10.216 -10.216
-10.216 -10.216 -10.216 -10.216 -10.216 -10.216 -10.216 -10.215
-10.215 -10.215 -10.215 -10.215 -10.215 -10.215 -10.215 -10.215
-10.215 -10.215 -10.214 -10.214 -10.214 -10.214 -10.214 -10.214
-10.214 -10.213 -10.213 -10.213 -10.213 -10.213 -10.213 -10.213
-10.213 -10.212 -10.212 -10.212 -10.212 -10.212 -10.212 -10.212
-10.212 -10.212 -10.212 -10.211 -10.211 -10.211 -10.211 -10.211
-10.210 -10.210 -10.210 -10.210 -10.210 -10.210 -10.210 -10.210
-10.210 -10.210 -10.210 -10.209 -10.209 -10.209 -10.209 -10.209
-10.208 -10.208 -10.208 -10.208 -10.208 -10.208 -10.207 -10.207
-10.206 -10.206 -10.206 -10.206 -10.206 -10.206 -10.205 -10.204
-10.204 -10.203 -10.203 -10.203 -10.203 -10.203 -10.202 -10.202
-10.201 -10.201 -10.200 -10.199 -10.199 -10.199 -10.198 -10.196
-10.195 -10.195 -10.194 -10.184  -1.093  -1.080  -1.015  -1.014
 -0.987  -0.986  -0.969  -0.969  -0.966  -0.965  -0.964  -0.961
 -0.939  -0.934  -0.931  -0.931  -0.928  -0.926  -0.925  -0.924
 -0.924  -0.921  -0.900  -0.897  -0.893  -0.892  -0.890  -0.886
 -0.881  -0.876  -0.862  -0.853  -0.844  -0.844  -0.840  -0.838
 -0.837  -0.836  -0.827  -0.824  -0.808  -0.807  -0.801  -0.801
 -0.797  -0.796  -0.796  -0.794  -0.792  -0.790  -0.788  -0.787
 -0.772  -0.771  -0.770  -0.768  -0.768  -0.767  -0.766  -0.764
 -0.756  -0.752  -0.746  -0.739  -0.736  -0.731  -0.718  -0.718
 -0.717  -0.715  -0.715  -0.714  -0.713  -0.710  -0.709  -0.709
 -0.708  -0.707  -0.704  -0.704  -0.702  -0.701  -0.674  -0.673
 -0.660  -0.660  -0.659  -0.658  -0.650  -0.649  -0.634  -0.632
 -0.631  -0.627  -0.624  -0.624  -0.623  -0.622  -0.619  -0.618
 -0.616  -0.615  -0.614  -0.613  -0.612  -0.612  -0.609  -0.608
 -0.607  -0.605  -0.604  -0.603  -0.567  -0.565  -0.564  -0.562
 -0.561  -0.561  -0.560  -0.559  -0.558  -0.557  -0.554  -0.552
 -0.539  -0.538  -0.536  -0.532  -0.529  -0.527  -0.525  -0.524
 -0.523  -0.523  -0.520  -0.520  -0.518  -0.516  -0.515  -0.514
 -0.509  -0.505  -0.502  -0.499  -0.496  -0.492  -0.489  -0.487
 -0.485  -0.485  -0.482  -0.481  -0.480  -0.479  -0.477  -0.476
 -0.475  -0.474  -0.473  -0.471  -0.471  -0.470  -0.469  -0.468
 -0.466  -0.465  -0.465  -0.462  -0.462  -0.461  -0.460  -0.460
 -0.459  -0.455  -0.454  -0.452  -0.450  -0.447  -0.446  -0.443
 -0.442  -0.442  -0.440  -0.440  -0.438  -0.437  -0.434  -0.434
 -0.433  -0.431  -0.430  -0.429  -0.428  -0.427  -0.427  -0.425
 -0.425  -0.424  -0.423  -0.422  -0.422  -0.421  -0.420  -0.419
 -0.419  -0.418  -0.417  -0.417  -0.416  -0.415  -0.414  -0.413
 -0.412  -0.411  -0.410  -0.409  -0.404  -0.403  -0.401  -0.400
 -0.395  -0.392  -0.391  -0.390  -0.389  -0.387  -0.385  -0.382
 -0.377  -0.375  -0.374  -0.372  -0.371  -0.368  -0.368  -0.367
 -0.365  -0.365  -0.364  -0.363  -0.362  -0.361  -0.360  -0.359
 -0.358  -0.358  -0.357  -0.356  -0.355  -0.355  -0.353  -0.352
 -0.351  -0.349  -0.348  -0.348  -0.346  -0.345  -0.344  -0.344
 -0.342  -0.340  -0.339  -0.337  -0.337  -0.336  -0.335  -0.333
 -0.333  -0.331  -0.330  -0.328  -0.327  -0.326  -0.324  -0.322
 -0.312  -0.307  -0.304  -0.294  -0.293  -0.288  -0.276  -0.275
 -0.273  -0.272  -0.269  -0.268  -0.268  -0.267  -0.266  -0.263
 -0.263  -0.260  -0.259  -0.259  -0.258  -0.256  -0.255  -0.252
 -0.250  -0.249  -0.248  -0.247  -0.223  -0.221  -0.214  -0.211
 -0.209  -0.207  -0.205  -0.204  -0.202  -0.195

          Ground-State Mulliken Net Atomic Charges

     Atom                 Charge (a.u.)
  ----------------------------------------
      1 O                    -0.476698
      2 C                    -0.091849
      3 H                     0.122562
      4 H                     0.137071
      5 H                     0.125921
      6 O                    -0.467996
      7 C                     0.630101
      8 C                    -0.276938
      9 H                     0.132715
     10 H                     0.136605
     11 C                    -0.186970
     12 H                     0.121627
     13 H                     0.109945
     14 C                    -0.162184
     15 H                     0.105800
     16 H                     0.098585
     17 C                    -0.019484
     18 C                     0.101872
     19 C                    -0.095211
     20 H                     0.101925
     21 C                    -0.101262
     22 H                     0.089033
     23 C                    -0.080916
     24 H                     0.090148
     25 C                    -0.089582
     26 H                     0.096548
     27 C                    -0.105781
     28 H                     0.089295
     29 C                    -0.019495
     30 C                     0.015871
     31 C                     0.020408
     32 C                    -0.006096
     33 C                     0.035646
     34 C                     0.011951
     35 C                     0.026639
     36 C                     0.027785
     37 C                    -0.011708
     38 C                     0.018732
     39 C                    -0.090002
     40 C                     0.018977
     41 C                     0.025400
     42 C                     0.009306
     43 C                    -0.013725
     44 C                     0.006181
     45 C                    -0.079585
     46 C                     0.007404
     47 C                    -0.009948
     48 C                     0.004216
     49 C                    -0.008669
     50 C                     0.002470
     51 C                    -0.040187
     52 C                    -0.015875
     53 C                     0.048068
     54 C                    -0.020542
     55 C                    -0.053064
     56 C                    -0.011717
     57 C                    -0.034723
     58 C                     0.007179
     59 C                    -0.000893
     60 C                     0.012204
     61 C                     0.011208
     62 C                     0.006486
     63 C                    -0.010385
     64 C                    -0.021204
     65 C                    -0.008259
     66 C                     0.028679
     67 C                     0.005059
     68 C                     0.032589
     69 C                    -0.000253
     70 C                     0.028327
     71 C                     0.011153
     72 C                    -0.018439
     73 C                    -0.009304
     74 C                    -0.021529
     75 C                    -0.007274
     76 C                    -0.006602
     77 C                    -0.007325
     78 C                     0.016190
     79 C                    -0.046995
     80 C                    -0.013357
     81 C                     0.059238
     82 C                    -0.011278
     83 C                    -0.014290
     84 C                    -0.035626
     85 C                    -0.011869
     86 C                     0.019044
     87 C                     0.005262
     88 C                     0.009959
     89 O                    -0.476013
     90 C                    -0.083325
     91 H                     0.125645
     92 H                     0.125813
     93 H                     0.123938
     94 O                    -0.442961
     95 C                     0.574892
     96 C                    -0.240396
     97 H                     0.134763
     98 H                     0.113528
     99 C                    -0.189060
    100 H                     0.112828
    101 H                     0.115228
    102 C                    -0.166011
    103 H                     0.122236
    104 H                     0.108665
    105 C                    -0.007613
    106 C                     0.104345
    107 C                    -0.103677
    108 H                     0.095151
    109 C                    -0.099531
    110 H                     0.091462
    111 C                    -0.090477
    112 H                     0.094784
    113 C                    -0.100014
    114 H                     0.095510
    115 C                    -0.097881
    116 H                     0.088422
    117 C                     0.008491
    118 C                    -0.000322
    119 C                     0.006148
    120 C                    -0.015566
    121 C                     0.016635
    122 C                    -0.021740
    123 C                     0.002432
    124 C                     0.012198
    125 C                    -0.003551
    126 C                    -0.002598
    127 C                    -0.084347
    128 C                     0.012868
    129 C                    -0.032575
    130 C                    -0.023054
    131 C                     0.014224
    132 C                    -0.011365
    133 C                    -0.105286
    134 C                     0.029258
    135 C                     0.012616
    136 C                    -0.010573
    137 C                    -0.016091
    138 C                    -0.006511
    139 C                     0.010778
    140 C                     0.000526
    141 C                     0.051721
    142 C                    -0.006606
    143 C                     0.008251
    144 C                     0.008656
    145 C                     0.004021
    146 C                    -0.008686
    147 C                     0.013289
    148 C                    -0.000755
    149 C                    -0.018688
    150 C                    -0.005082
    151 C                     0.007797
    152 C                     0.012521
    153 C                     0.022416
    154 C                     0.000699
    155 C                    -0.011691
    156 C                     0.005017
    157 C                     0.013771
    158 C                     0.031096
    159 C                     0.000928
    160 C                     0.008607
    161 C                    -0.045065
    162 C                     0.029480
    163 C                    -0.022136
    164 C                    -0.020096
    165 C                    -0.009853
    166 C                    -0.009676
    167 C                     0.004416
    168 C                     0.005117
    169 C                    -0.008270
    170 C                     0.010737
    171 C                    -0.016311
    172 C                     0.046671
    173 C                     0.006427
    174 C                    -0.038181
    175 C                    -0.010100
    176 C                     0.010418
  ----------------------------------------
  Sum of atomic charges =     0.000000

                    Cartesian Multipole Moments
 -----------------------------------------------------------------
    Charge (ESU x 10^10)
                 0.0000
    Dipole Moment (Debye)
         X       0.5552      Y       2.8842      Z       2.0627
       Tot       3.5891
    Quadrupole Moments (Debye-Ang)
        XX    -782.5525     XY     -29.9376     YY    -794.6135
        XZ      20.7904     YZ     -11.2048     ZZ    -806.0464

 Total job time:  884.11s(wall), 8488.30s(cpu)
        *  Thank you very much for using Q-Chem.  Have a nice day.  *
