 Q-Chem 4.4, Q-Chem, Inc., Pleasanton, CA (2016)
 Q-Chem 4.4.2 for Intel X86 Linux

User input:
--------------------------------------------------------------
$comment
SP
$end

$rem
MEM_STATIC 5000
MEM_TOTAL 20000
JOBTYPE SP
EXCHANGE B3LYP
BASIS 6-31g(d,p)
$end

$molecule
0 1
O         -18.436000     -4.783000     11.762000
C         -19.663000     -4.127000     11.433000
H         -20.430000     -4.834000     11.093000
H         -19.568000     -3.479000     10.552000
H         -20.144000     -3.565000     12.243000
O         -19.351000     -6.406000     13.010000
C         -18.328000     -5.858000     12.584000
C         -16.915000     -6.367000     12.646000
H         -16.751000     -7.013000     13.517000
H         -16.312000     -5.481000     12.882000
C         -16.392000     -6.855000     11.302000
H         -16.403000     -6.066000     10.540000
H         -15.361000     -7.228000     11.339000
C         -17.283000     -8.101000     10.933000
H         -17.032000     -8.972000     11.551000
H         -18.324000     -7.825000     11.141000
C         -17.226000     -8.393000      9.465000
C         -18.203000     -7.636000      8.716000
C         -17.836000     -6.533000      7.918000
H         -16.811000     -6.207000      8.072000
C         -18.859000     -5.774000      7.228000
H         -18.632000     -4.827000      6.747000
C         -20.161000     -6.139000      7.313000
H         -20.879000     -5.724000      6.612000
C         -20.537000     -7.192000      8.068000
H         -21.570000     -7.524000      8.031000
C         -19.506000     -7.984000      8.746000
H         -19.838000     -8.776000      9.411000
C         -16.962000    -12.370000      5.573000
C         -15.558000    -10.610000      4.762000
C         -11.580000    -12.552000      5.135000
C         -15.176000    -13.519000     10.187000
C         -10.717000    -10.652000      8.029000
C         -16.647000    -11.023000      5.437000
C         -12.445000    -13.002000     10.269000
C         -13.638000    -13.478000      4.273000
C         -13.904000     -8.320000      7.478000
C         -14.709000    -12.308000     10.818000
C         -15.862000     -8.693000      8.867000
C         -13.481000     -8.643000      8.768000
C         -13.130000    -10.721000     10.529000
C         -11.316000    -12.606000      9.495000
C         -15.871000     -9.070000      6.335000
C         -10.826000    -12.986000      7.150000
C         -16.908000     -9.775000      8.993000
C         -16.578000    -11.020000      9.918000
C         -10.632000    -11.596000      6.971000
C         -14.133000    -15.204000      7.378000
C         -12.356000    -14.596000      6.134000
C         -13.485000    -14.474000      5.323000
C         -14.902000    -12.880000      4.243000
C         -17.004000    -12.165000      9.241000
C         -15.315000     -8.519000      7.457000
C         -14.667000    -11.502000      4.086000
C         -13.315000    -12.098000     10.853000
C         -15.147000     -9.378000      5.206000
C         -12.229000     -9.153000      8.940000
C         -16.079000    -14.282000      8.363000
C         -12.635000    -12.483000      4.183000
C         -14.544000     -9.008000      9.582000
C         -15.905000    -14.317000      5.928000
C         -12.059000    -10.233000      9.823000
C         -13.141000     -8.653000      6.341000
C         -12.176000    -14.444000      8.554000
C         -12.889000    -14.206000      9.752000
C         -11.841000     -9.144000      6.499000
C         -16.350000    -13.408000      9.425000
C         -15.385000    -11.097000     10.567000
C         -14.861000    -14.883000      8.481000
C         -17.330000    -10.464000      7.710000
C         -12.840000    -10.048000      4.674000
C         -14.376000    -10.091000     10.445000
C         -11.407000     -9.426000      7.804000
C         -16.617000    -13.974000      7.072000
C         -11.084000    -11.316000      5.677000
C         -16.029000    -13.290000      5.036000
C         -11.429000    -13.564000      6.088000
C         -13.781000     -9.159000      5.225000
C         -11.712000    -10.078000      5.499000
C         -16.841000    -10.088000      6.466000
C         -17.501000    -11.860000      7.948000
C         -12.774000    -14.981000      7.389000
C         -13.289000    -11.225000      4.021000
C         -11.172000    -11.187000      9.235000
C         -14.242000    -14.403000      9.638000
C         -11.188000    -13.462000      8.440000
C         -17.335000    -12.847000      6.864000
C         -14.611000    -14.845000      6.107000
O         -15.608000    -17.570000      3.881000
C         -14.236000    -17.386000      3.636000
H         -13.941000    -16.348000      3.437000
H         -13.877000    -17.857000      2.712000
H         -13.613000    -17.721000      4.475000
O         -16.119000    -15.808000      2.465000
C         -16.463000    -16.717000      3.239000
C         -17.905000    -16.977000      3.592000
H         -17.950000    -18.051000      3.375000
H         -18.541000    -16.508000      2.831000
C         -18.184000    -16.560000      5.031000
H         -17.371000    -16.899000      5.686000
H         -18.272000    -15.467000      4.993000
C         -19.457000    -17.166000      5.432000
H         -20.265000    -16.673000      4.878000
H         -19.603000    -18.174000      5.025000
C         -19.685000    -17.274000      6.953000
C         -18.692000    -18.238000      7.596000
C         -17.556000    -17.775000      8.216000
H         -17.333000    -16.721000      8.078000
C         -16.739000    -18.673000      8.980000
H         -15.801000    -18.329000      9.405000
C         -17.176000    -20.011000      9.143000
H         -16.668000    -20.845000      9.618000
C         -18.292000    -20.532000      8.381000
H         -18.411000    -21.611000      8.355000
C         -19.075000    -19.617000      7.671000
H         -19.984000    -19.968000      7.190000
C         -23.478000    -17.896000     10.887000
C         -21.735000    -16.553000     11.998000
C         -23.934000    -12.588000     12.208000
C         -24.914000    -15.583000      6.569000
C         -22.405000    -11.333000      9.287000
C         -22.126000    -17.567000     11.065000
C         -24.609000    -12.826000      6.922000
C         -24.680000    -14.854000     12.483000
C         -19.724000    -14.350000      9.243000
C         -23.808000    -14.930000      6.104000
C         -20.196000    -16.049000      7.731000
C         -20.122000    -13.694000      8.087000
C         -22.276000    -13.244000      6.375000
C         -24.260000    -11.813000      7.797000
C         -20.417000    -16.488000     10.187000
C         -24.642000    -11.613000     10.225000
C         -21.147000    -17.150000      7.490000
C         -22.351000    -16.794000      6.759000
C         -23.256000    -11.345000     10.418000
C         -26.549000    -15.070000      9.614000
C         -25.912000    -13.452000     11.033000
C         -25.777000    -14.661000     11.678000
C         -24.061000    -16.095000     12.444000
C         -23.510000    -17.452000      7.260000
C         -19.835000    -15.769000      9.126000
C         -22.723000    -15.813000     12.661000
C         -23.665000    -13.548000      6.218000
C         -20.732000    -15.901000     11.424000
C         -20.861000    -12.490000      8.181000
C         -25.610000    -16.906000      8.329000
C         -23.830000    -13.847000     12.847000
C         -20.442000    -14.712000      7.150000
C         -25.536000    -16.971000     10.749000
C         -21.920000    -12.295000      7.312000
C         -20.001000    -13.761000     10.487000
C         -26.052000    -12.900000      8.672000
C         -25.768000    -13.492000      7.435000
C         -20.677000    -12.532000     10.595000
C         -24.765000    -16.799000      7.194000
C         -22.561000    -15.472000      6.256000
C         -26.294000    -15.663000      8.337000
C         -21.773000    -17.822000      8.682000
C         -21.448000    -13.777000     12.307000
C         -21.602000    -14.495000      6.429000
C         -21.116000    -11.895000      9.392000
C         -25.249000    -17.544000      9.475000
C         -22.827000    -11.955000     11.611000
C         -24.434000    -17.119000     11.569000
C         -25.027000    -12.399000     11.310000
C         -20.474000    -14.523000     11.591000
C         -21.564000    -12.515000     11.682000
C         -21.333000    -17.495000      9.957000
C         -23.123000    -18.040000      8.448000
C         -26.417000    -13.680000      9.745000
C         -22.594000    -14.415000     12.926000
C         -22.890000    -11.569000      8.032000
C         -25.858000    -14.899000      7.296000
C         -25.090000    -11.895000      8.920000
C         -23.947000    -18.078000      9.648000
C         -26.214000    -15.709000     10.806000
$end

--------------------------------------------------------------

             Standard Nuclear Orientation (Angstroms)
    I     Atom           X                Y                Z
 ----------------------------------------------------------------
    1      O       2.5765514617    -8.4988411591    -0.4358774890
    2      C       1.7823572178    -9.2842328065     0.4566030224
    3      H       0.8776929405    -8.7535925122     0.7786921769
    4      H       2.2805992854    -9.4555574226     1.4196672560
    5      H       1.4171812784   -10.2415971043     0.0649333471
    6      O       0.8924483398    -7.8707292318    -1.7768212170
    7      C       2.1070842963    -7.8754631467    -1.5467210577
    8      C       3.1751840448    -7.0540366893    -2.2129908997
    9      H       2.9135589251    -6.8058140652    -3.2487470609
   10      H       4.0200716189    -7.7439938888    -2.3330952293
   11      C       3.7047703509    -5.9292242242    -1.3341597084
   12      H       4.1400785536    -6.3019181921    -0.3988031054
   13      H       4.4849990296    -5.3250933200    -1.8134592595
   14      C       2.4845422137    -4.9560468350    -1.1184583820
   15      H       2.2606771817    -4.3842002308    -2.0275468863
   16      H       1.6128285367    -5.5797913405    -0.8856944302
   17      C       2.6917391949    -4.0839337541     0.0815521118
   18      C       2.2394713059    -4.7122239149     1.3019144475
   19      C       3.1445624144    -5.2330173589     2.2493775201
   20      H       4.1687753547    -5.2833998280     1.8901193126
   21      C       2.6407030631    -5.9005118969     3.4322920546
   22      H       3.3008068632    -6.4568603167     4.0914114739
   23      C       1.3073374482    -5.9942768403     3.6536475888
   24      H       0.9477802875    -6.2718952550     4.6399521381
   25      C       0.4213620258    -5.5016633138     2.7633726512
   26      H      -0.6338298892    -5.4964589186     3.0187643831
   27      C       0.9218610229    -4.7983880358     1.5781243071
   28      H       0.1932478584    -4.4819368536     0.8373851453
   29      C       2.1020952002     1.0315611632     2.2070922102
   30      C       4.2010718192     0.2460911498     3.0460624189
   31      C       6.9745140594     2.9174755126     0.8309550342
   32      C       2.4256311066     0.6438907032    -2.8470179124
   33      C       7.9604386150     0.3331083719    -1.4227095934
   34      C       2.9335111310     0.0127475066     2.6575323096
   35      C       5.0784323289     0.9487031846    -3.6229747578
   36      C       4.9141507572     3.4805814362     1.9595376769
   37      C       6.0853825146    -2.3749578260     0.8243631887
   38      C       3.2012275120    -0.5286387705    -3.1732016784
   39      C       3.9174100979    -3.1862687437     0.0868781411
   40      C       6.1061851897    -2.5037870068    -0.5649993597
   41      C       5.2956962655    -1.3285443185    -2.9111277294
   42      C       6.3936767127     1.2489348706    -3.1641434756
   43      C       4.2268906806    -1.8224875846     2.2310695316
   44      C       7.1186044575     2.6820595156    -1.3464090295
   45      C       2.5300307131    -2.6029286934    -0.0380571565
   46      C       2.1764144312    -1.8109211740    -1.3655471242
   47      C       7.8652300493     1.6088969459    -0.8054383050
   48      C       3.2295457701     3.5557340436    -1.2061508931
   49      C       5.2984800619     4.0520934765    -0.4658352786
   50      C       4.4741973775     3.9548932417     0.6559294786
   51      C       4.0092983674     2.6118831718     2.5782504358
   52      C       1.4718582086    -0.6647949835    -0.9902801731
   53      C       4.7372629334    -2.6001467334     1.2278809094
   54      C       4.7842898227     1.5518604126     3.0827283779
   55      C       4.5356855182    -0.3236090827    -3.5803204041
   56      C       4.9684530245    -0.8838932211     2.9113686650
   57      C       7.0082871379    -1.7730098688    -1.2786973699
   58      C       1.6481547369     1.7935183283    -1.1741638189
   59      C       6.2223776500     2.9453450726     2.0382677978
   60      C       4.8552588457    -2.8282809935    -1.0706444275
   61      C       2.2377251100     2.8742305480     0.9341990231
   62      C       6.5817298328    -1.1525280816    -2.4653060743
   63      C       6.8539606407    -1.4002276356     1.4914581742
   64      C       5.0768337344     2.9781780003    -2.6359694808
   65      C       4.3054522672     2.0749598684    -3.4036833847
   66      C       7.8093568402    -0.6663255494     0.7810703716
   67      C       1.5474548447     0.5231286871    -1.7582277634
   68      C       3.1056245885    -1.6676828663    -2.3486189785
   69      C       2.4941676412     2.6154237736    -1.8578176821
   70      C       2.1167445751    -1.6011845150     1.0224131020
   71      C       6.8906947854     0.5780737563     2.4403992712
   72      C       4.4293947240    -2.1975626989    -2.2397107997
   73      C       7.8532369384    -0.8336222160    -0.6121242890
   74      C       1.5178189718     1.9026471503     0.2478391658
   75      C       7.8022973243     1.7682257402     0.5830118408
   76      C       2.6869571841     2.3165328754     2.0973554397
   77      C       6.5443178842     3.4449042630    -0.3904802544
   78      C       6.2840297386    -0.6881325707     2.5302995410
   79      C       7.7471560614     0.5896434698     1.3357503567
   80      C       2.9320600547    -1.2747026042     2.0979144877
   81      C       1.3777705070    -0.5404525423     0.4195316802
   82      C       4.5418127249     3.7493067890    -1.5765777163
   83      C       6.1485640069     1.7354063329     2.7913440173
   84      C       7.1211961584     0.1695748554    -2.5257122625
   85      C       3.0275425584     1.9029357105    -2.9348886907
   86      C       6.3708660580     2.4597322934    -2.5351806190
   87      C       1.3438475357     0.8065232930     1.0206026670
   88      C       3.1695186415     3.6297883876     0.1951765839
   89      O       1.6205417444     6.6148921616     1.6320259256
   90      C       2.9763247047     6.9511173368     1.4736902186
   91      H       3.6814836609     6.2197540705     1.8883329796
   92      H       3.2874068273     7.8414880427     2.0349084640
   93      H       3.2557724350     7.0754980021     0.4197863253
   94      O       2.1008525190     5.5252562993     3.6201949947
   95      C       1.2961037749     5.8946936547     2.7486512497
   96      C      -0.1721499065     5.5597076283     2.8085552475
   97      H      -0.5891964427     6.5650507262     2.6745871831
   98      H      -0.4257083717     5.2836155959     3.8396029158
   99      C      -0.5261848303     4.5274941447     1.7447669240
  100      H      -0.0429230456     4.7855950397     0.7935797839
  101      H      -0.1752463856     3.5722082037     2.1547766543
  102      C      -1.9845940810     4.5207453847     1.5979237714
  103      H      -2.4221661638     4.0893606093     2.5063657608
  104      H      -2.4325291651     5.5179881173     1.6867499657
  105      C      -2.5109804529     3.9237065634     0.2774878459
  106      C      -2.1050479232     4.7792283558    -0.9192139732
  107      C      -1.0128014266     4.4508148926    -1.6862910149
  108      H      -0.3776672387     3.6598331198    -1.2981655220
  109      C      -0.7624743380     5.1488892670    -2.9141417862
  110      H       0.1404788791     4.9465680659    -3.4820736654
  111      C      -1.7055766548     6.1137223725    -3.3470818496
  112      H      -1.6567146492     6.7862525821    -4.1982931169
  113      C      -2.7762209103     6.5564050882    -2.4780053907
  114      H      -3.2970426041     7.4663139800    -2.7606510558
  115      C      -2.9991306701     5.8312214065    -1.3037678224
  116      H      -3.8683388690     6.0709488337    -0.6972607180
  117      C      -6.8994455662     1.7542807557    -2.2295132738
  118      C      -5.0077200955     0.6374902369    -3.3476244851
  119      C      -5.4967482732    -3.5116914868    -1.5739084806
  120      C      -6.5099586349     1.1140468200     2.8198024658
  121      C      -3.0940946921    -2.9574600136     0.9490243848
  122      C      -5.5830154987     1.7855280622    -2.7131086454
  123      C      -5.2308156126    -1.3283610723     3.2857636402
  124      C      -7.0991064232    -1.8789444496    -2.3043073247
  125      C      -1.8326631357     0.4420706781    -0.8240992726
  126      C      -5.1725059425     1.0583783910     3.0918159243
  127      C      -2.6405186833     2.3972815130     0.1350925776
  128      C      -1.7263944891     0.2349562781     0.5437042952
  129      C      -3.1846966752    -0.0707615359     2.9001956176
  130      C      -4.6832338629    -2.4637899937     2.7160703964
  131      C      -3.4600539970     1.7044865996    -2.1280678404
  132      C      -5.3955235660    -3.7442176199     0.7325743735
  133      C      -3.8822172714     3.1751668051     0.3017121708
  134      C      -4.6982494045     2.8210826278     1.4503761570
  135      C      -4.0747556705    -3.6565777914     0.2053548492
  136      C      -8.3460714524    -1.0511610296     0.7828970459
  137      C      -7.4034885942    -2.8506157830    -0.1714373535
  138      C      -7.8680660099    -2.0308261962    -1.1754512271
  139      C      -7.0135201502    -0.6112063514    -2.8613334501
  140      C      -6.0921183928     2.8510375520     1.1614506548
  141      C      -2.4613268529     1.6858081628    -1.1363011301
  142      C      -5.7350917625    -0.5593487776    -3.3902839672
  143      C      -4.5287161709    -0.1429100067     3.3847492196
  144      C      -3.7437559702     0.5978319738    -2.9458647160
  145      C      -1.9448106893    -1.0578945535     1.0779365394
  146      C      -7.9737171069     1.3352887402     1.0475699335
  147      C      -6.0076087025    -2.6551002204    -2.5786427858
  148      C      -2.2383575344     1.4085261581     1.1579685517
  149      C      -8.3752140388     0.4186061401    -1.1580125801
  150      C      -2.6669414767    -1.1742800376     2.2525209532
  151      C      -2.0825384789    -0.6582565659    -1.6595801335
  152      C      -6.8837374825    -2.3984759835     2.1575223678
  153      C      -6.6299817955    -1.2964151269     2.9835725598
  154      C      -2.2369105643    -1.9603605719    -1.1498984519
  155      C      -6.9609364275     1.9521369501     1.8269752077
  156      C      -4.2836575729     1.8236173978     2.3873765456
  157      C      -8.1115800305     0.0598541873     1.6535645833
  158      C      -4.9264786410     3.0867061252    -0.7781104535
  159      C      -3.7294210293    -1.8084574699    -2.8305971041
  160      C      -3.0703225673     1.1832453544     2.2394549102
  161      C      -2.1664406764    -2.1435252795     0.2668526500
  162      C      -8.1046103677     1.5202935358    -0.2938178478
  163      C      -4.1419681295    -3.4955402930    -1.1906893512
  164      C      -7.5870483049     0.5268335835    -2.2875211443
  165      C      -6.2466126063    -3.6207547341    -0.3645356307
  166      C      -3.0073174807    -0.5886818783    -2.7380661838
  167      C      -3.2308042378    -2.6768483737    -1.8335998456
  168      C      -4.6357231048     2.4066016015    -1.9524498657
  169      C      -6.1878388711     2.9830122036    -0.2097813757
  170      C      -7.7122339117    -2.2695194388     1.0666887982
  171      C      -5.1254044315    -1.8405424524    -3.2226709425
  172      C      -3.3939125884    -2.3772456267     2.1487770653
  173      C      -7.2309933600    -0.0479786981     2.6881718444
  174      C      -5.6705778566    -3.0930204647     1.9505811068
  175      C      -7.1668146637     2.2858088557    -1.0319333623
  176      C      -8.5092675356    -0.8916700285    -0.5916354779
 ----------------------------------------------------------------

    9   -5804.1984873280      8.45E-06 Convergence criterion met
 Total energy in the final basis set = -5804.1984873280

                    Orbital Energies (a.u.)
 --------------------------------------------------------------

 Alpha MOs
 -- Occupied --
-19.198 -19.193 -19.134 -19.131 -10.322 -10.314 -10.246 -10.243
-10.243 -10.238 -10.236 -10.235 -10.232 -10.231 -10.230 -10.229
-10.229 -10.227 -10.227 -10.226 -10.226 -10.224 -10.224 -10.222
-10.221 -10.221 -10.221 -10.220 -10.220 -10.220 -10.220 -10.220
-10.219 -10.219 -10.219 -10.219 -10.219 -10.218 -10.218 -10.218
-10.217 -10.217 -10.217 -10.217 -10.217 -10.217 -10.216 -10.216
-10.216 -10.216 -10.215 -10.215 -10.215 -10.215 -10.215 -10.215
-10.215 -10.215 -10.214 -10.214 -10.214 -10.214 -10.214 -10.214
-10.214 -10.214 -10.214 -10.213 -10.213 -10.213 -10.213 -10.213
-10.213 -10.213 -10.213 -10.213 -10.213 -10.212 -10.212 -10.212
-10.212 -10.211 -10.211 -10.211 -10.211 -10.211 -10.211 -10.211
-10.210 -10.210 -10.210 -10.210 -10.210 -10.210 -10.210 -10.210
-10.210 -10.210 -10.209 -10.209 -10.209 -10.209 -10.209 -10.209
-10.209 -10.209 -10.209 -10.209 -10.208 -10.208 -10.208 -10.207
-10.207 -10.207 -10.207 -10.207 -10.207 -10.207 -10.207 -10.207
-10.207 -10.207 -10.207 -10.206 -10.205 -10.205 -10.204 -10.204
-10.204 -10.203 -10.203 -10.203 -10.203 -10.202 -10.202 -10.201
-10.201 -10.201 -10.200 -10.200 -10.200 -10.199 -10.199 -10.198
-10.198 -10.195 -10.193 -10.189  -1.096  -1.095  -1.001  -1.001
 -0.987  -0.985  -0.971  -0.968  -0.965  -0.965  -0.964  -0.962
 -0.939  -0.935  -0.933  -0.930  -0.929  -0.927  -0.926  -0.925
 -0.922  -0.920  -0.905  -0.897  -0.894  -0.893  -0.887  -0.886
 -0.879  -0.872  -0.858  -0.848  -0.844  -0.842  -0.841  -0.841
 -0.839  -0.839  -0.830  -0.826  -0.816  -0.812  -0.801  -0.799
 -0.798  -0.796  -0.796  -0.796  -0.794  -0.793  -0.789  -0.785
 -0.776  -0.773  -0.772  -0.771  -0.769  -0.768  -0.766  -0.763
 -0.751  -0.748  -0.742  -0.740  -0.739  -0.731  -0.717  -0.717
 -0.716  -0.715  -0.714  -0.713  -0.712  -0.712  -0.711  -0.710
 -0.710  -0.709  -0.707  -0.704  -0.704  -0.699  -0.674  -0.673
 -0.661  -0.661  -0.660  -0.659  -0.653  -0.646  -0.639  -0.631
 -0.630  -0.626  -0.626  -0.626  -0.623  -0.622  -0.621  -0.617
 -0.616  -0.616  -0.615  -0.614  -0.612  -0.612  -0.610  -0.610
 -0.609  -0.606  -0.605  -0.602  -0.574  -0.573  -0.566  -0.564
 -0.563  -0.561  -0.560  -0.558  -0.558  -0.557  -0.557  -0.555
 -0.540  -0.537  -0.534  -0.530  -0.528  -0.527  -0.527  -0.525
 -0.524  -0.522  -0.521  -0.520  -0.518  -0.516  -0.515  -0.514
 -0.510  -0.505  -0.504  -0.498  -0.494  -0.492  -0.490  -0.488
 -0.486  -0.483  -0.482  -0.482  -0.481  -0.479  -0.477  -0.476
 -0.474  -0.472  -0.471  -0.470  -0.470  -0.469  -0.468  -0.467
 -0.466  -0.466  -0.465  -0.464  -0.463  -0.463  -0.461  -0.460
 -0.459  -0.457  -0.454  -0.454  -0.452  -0.448  -0.445  -0.444
 -0.443  -0.443  -0.440  -0.438  -0.437  -0.436  -0.435  -0.433
 -0.433  -0.430  -0.430  -0.429  -0.428  -0.427  -0.425  -0.423
 -0.422  -0.422  -0.421  -0.421  -0.420  -0.420  -0.420  -0.418
 -0.418  -0.417  -0.416  -0.416  -0.415  -0.415  -0.414  -0.413
 -0.412  -0.410  -0.409  -0.407  -0.404  -0.403  -0.395  -0.393
 -0.393  -0.391  -0.390  -0.390  -0.388  -0.387  -0.386  -0.385
 -0.385  -0.379  -0.378  -0.374  -0.371  -0.370  -0.368  -0.367
 -0.367  -0.365  -0.364  -0.363  -0.362  -0.361  -0.359  -0.359
 -0.359  -0.356  -0.356  -0.355  -0.354  -0.351  -0.351  -0.350
 -0.349  -0.348  -0.348  -0.347  -0.347  -0.346  -0.346  -0.344
 -0.343  -0.342  -0.340  -0.340  -0.339  -0.337  -0.334  -0.333
 -0.332  -0.331  -0.330  -0.330  -0.328  -0.327  -0.324  -0.323
 -0.313  -0.305  -0.298  -0.295  -0.291  -0.287  -0.273  -0.272
 -0.269  -0.268  -0.267  -0.267  -0.265  -0.264  -0.264  -0.263
 -0.261  -0.260  -0.259  -0.259  -0.258  -0.257  -0.255  -0.252
 -0.250  -0.248  -0.246  -0.243  -0.226  -0.219  -0.215  -0.210
 -0.209  -0.208  -0.206  -0.202  -0.200  -0.198

          Ground-State Mulliken Net Atomic Charges

     Atom                 Charge (a.u.)
  ----------------------------------------
      1 O                    -0.450919
      2 C                    -0.083538
      3 H                     0.130499
      4 H                     0.123829
      5 H                     0.124692
      6 O                    -0.478858
      7 C                     0.581584
      8 C                    -0.247234
      9 H                     0.134517
     10 H                     0.124724
     11 C                    -0.187633
     12 H                     0.124566
     13 H                     0.114443
     14 C                    -0.206478
     15 H                     0.112653
     16 H                     0.139765
     17 C                     0.019785
     18 C                     0.125597
     19 C                    -0.121322
     20 H                     0.087770
     21 C                    -0.101215
     22 H                     0.089971
     23 C                    -0.068196
     24 H                     0.091414
     25 C                    -0.095261
     26 H                     0.095612
     27 C                    -0.129700
     28 H                     0.094463
     29 C                    -0.060411
     30 C                     0.033474
     31 C                    -0.001246
     32 C                    -0.033876
     33 C                    -0.007061
     34 C                     0.027781
     35 C                     0.016955
     36 C                    -0.020530
     37 C                    -0.011626
     38 C                    -0.023579
     39 C                    -0.089754
     40 C                     0.027879
     41 C                    -0.003192
     42 C                    -0.004123
     43 C                     0.012961
     44 C                     0.000862
     45 C                    -0.106095
     46 C                     0.010034
     47 C                     0.001686
     48 C                    -0.013824
     49 C                    -0.031643
     50 C                    -0.000107
     51 C                     0.039407
     52 C                     0.017703
     53 C                     0.026109
     54 C                     0.004330
     55 C                    -0.000320
     56 C                    -0.034199
     57 C                    -0.013929
     58 C                    -0.009691
     59 C                    -0.024413
     60 C                     0.032496
     61 C                    -0.029428
     62 C                    -0.002752
     63 C                    -0.004968
     64 C                     0.017262
     65 C                    -0.031984
     66 C                    -0.002534
     67 C                    -0.009544
     68 C                     0.035490
     69 C                     0.023666
     70 C                     0.039431
     71 C                    -0.005478
     72 C                    -0.005502
     73 C                    -0.011031
     74 C                     0.023793
     75 C                    -0.012091
     76 C                     0.029256
     77 C                     0.043455
     78 C                     0.013238
     79 C                     0.015268
     80 C                    -0.011983
     81 C                     0.001418
     82 C                     0.004903
     83 C                    -0.012655
     84 C                    -0.006872
     85 C                     0.028779
     86 C                    -0.010707
     87 C                    -0.005603
     88 C                     0.007461
     89 O                    -0.445329
     90 C                    -0.100159
     91 H                     0.137358
     92 H                     0.114010
     93 H                     0.116668
     94 O                    -0.485760
     95 C                     0.578910
     96 C                    -0.237136
     97 H                     0.122503
     98 H                     0.132987
     99 C                    -0.186597
    100 H                     0.128391
    101 H                     0.126927
    102 C                    -0.180068
    103 H                     0.104589
    104 H                     0.106963
    105 C                    -0.001147
    106 C                     0.088883
    107 C                    -0.104986
    108 H                     0.098722
    109 C                    -0.104605
    110 H                     0.098227
    111 C                    -0.086489
    112 H                     0.090113
    113 C                    -0.096637
    114 H                     0.097410
    115 C                    -0.099508
    116 H                     0.089831
    117 C                    -0.000304
    118 C                    -0.001774
    119 C                    -0.010518
    120 C                     0.000740
    121 C                     0.004086
    122 C                    -0.051544
    123 C                     0.011001
    124 C                     0.026730
    125 C                     0.005993
    126 C                     0.008245
    127 C                    -0.078258
    128 C                    -0.000341
    129 C                    -0.041596
    130 C                    -0.010914
    131 C                     0.004117
    132 C                    -0.005776
    133 C                    -0.092310
    134 C                     0.019395
    135 C                    -0.022463
    136 C                     0.003207
    137 C                     0.010366
    138 C                    -0.023462
    139 C                     0.022053
    140 C                    -0.019071
    141 C                     0.022562
    142 C                    -0.016918
    143 C                    -0.006787
    144 C                     0.020175
    145 C                     0.022764
    146 C                     0.015610
    147 C                     0.002095
    148 C                     0.022944
    149 C                    -0.024852
    150 C                     0.008152
    151 C                     0.007667
    152 C                    -0.015181
    153 C                    -0.016129
    154 C                    -0.017974
    155 C                    -0.011720
    156 C                     0.023591
    157 C                    -0.010305
    158 C                     0.023731
    159 C                    -0.014852
    160 C                     0.006565
    161 C                    -0.024953
    162 C                    -0.009562
    163 C                     0.030962
    164 C                     0.009819
    165 C                    -0.011035
    166 C                    -0.020080
    167 C                     0.006146
    168 C                     0.050400
    169 C                     0.006227
    170 C                     0.011835
    171 C                    -0.005833
    172 C                    -0.003331
    173 C                     0.013612
    174 C                     0.018573
    175 C                     0.008421
    176 C                    -0.011884
  ----------------------------------------
  Sum of atomic charges =     0.000000

                    Cartesian Multipole Moments
 -----------------------------------------------------------------
    Charge (ESU x 10^10)
                 0.0000
    Dipole Moment (Debye)
         X       1.8504      Y      -0.4902      Z      -0.1737
       Tot       1.9221
    Quadrupole Moments (Debye-Ang)
        XX    -814.4283     XY     -25.4373     YY    -766.7734
        XZ     -10.7272     YZ     -24.3215     ZZ    -811.9669

 Total job time:  905.65s(wall), 8710.96s(cpu)
        *  Thank you very much for using Q-Chem.  Have a nice day.  *
