 Q-Chem 4.4, Q-Chem, Inc., Pleasanton, CA (2016)
 Q-Chem 4.4.2 for Intel X86 Linux

User input:
--------------------------------------------------------------
$comment
SP
$end

$rem
MEM_STATIC 5000
MEM_TOTAL 20000
JOBTYPE SP
EXCHANGE B3LYP
BASIS 6-31g(d,p)
$end

$molecule
0 1
O          12.628000     -5.565000      8.016000
C          11.528000     -5.198000      7.140000
H          10.556000     -5.403000      7.604000
H          11.507000     -5.814000      6.232000
H          11.637000     -4.153000      6.826000
O          12.095000     -7.753000      8.149000
C          12.817000     -6.845000      8.415000
C          14.032000     -6.975000      9.341000
H          13.940000     -7.955000      9.826000
H          13.959000     -6.264000     10.173000
C          15.355000     -6.847000      8.513000
H          15.532000     -7.747000      7.910000
H          15.392000     -5.984000      7.837000
C          16.608000     -6.808000      9.478000
H          16.494000     -5.984000     10.193000
H          16.783000     -7.750000     10.012000
C          17.820000     -6.675000      8.578000
C          18.207000     -7.992000      7.938000
C          18.823000     -9.012000      8.739000
H          19.026000     -8.839000      9.792000
C          19.194000    -10.221000      8.102000
H          19.640000    -11.051000      8.641000
C          18.932000    -10.397000      6.740000
H          19.189000    -11.295000      6.186000
C          18.272000     -9.454000      5.966000
H          18.054000     -9.612000      4.914000
C          18.015000     -8.255000      6.571000
H          17.535000     -7.524000      5.927000
C          22.851000     -4.616000      8.167000
C          21.943000     -4.498000      5.894000
C          21.524000      0.027000      5.843000
C          19.621000     -2.401000     11.325000
C          18.080000     -0.034000      6.385000
C          22.039000     -5.182000      7.092000
C          18.392000     -0.274000     10.027000
C          23.343000     -1.362000      6.677000
C          18.061000     -4.060000      5.800000
C          18.352000     -2.544000     10.833000
C          18.030000     -5.359000      7.823000
C          17.181000     -3.478000      6.722000
C          17.028000     -2.019000      9.109000
C          18.305000      0.353000      8.804000
C          19.994000     -5.442000      6.252000
C          20.073000      1.108000      7.268000
C          18.971000     -5.705000      8.987000
C          18.921000     -4.805000     10.187000
C          19.339000      0.490000      6.175000
C          22.447000     -0.672000     10.093000
C          22.327000      0.432000      8.077000
C          23.264000     -0.603000      7.915000
C          23.407000     -2.732000      6.815000
C          20.231000     -4.615000     10.622000
C          18.629000     -5.249000      6.397000
C          22.687000     -3.257000      5.723000
C          17.701000     -1.512000     10.173000
C          20.681000     -4.568000      5.366000
C          17.046000     -2.067000      6.669000
C          21.813000     -2.860000     10.981000
C          22.462000     -1.026000      5.666000
C          17.311000     -4.138000      7.939000
C          23.507000     -2.667000      9.234000
C          16.947000     -1.346000      7.852000
C          18.814000     -3.244000      4.938000
C          20.422000      0.587000      9.586000
C          19.713000     -0.091000     10.573000
C          18.664000     -1.885000      4.860000
C          20.576000     -3.430000     11.213000
C          17.980000     -3.757000     10.228000
C          21.678000     -1.477000     10.968000
C          20.392000     -5.836000      8.692000
C          20.779000     -2.325000      4.458000
C          17.199000     -3.402000      9.113000
C          17.741000     -1.250000      5.747000
C          22.758000     -3.463000     10.090000
C          20.242000     -0.105000      5.258000
C          23.547000     -3.413000      8.032000
C          21.414000      0.797000      7.020000
C          20.096000     -3.571000      4.610000
C          19.873000     -1.288000      4.559000
C          20.828000     -5.798000      7.340000
C          21.146000     -5.245000      9.716000
C          21.760000      0.340000      9.418000
C          22.056000     -2.178000      5.010000
C          17.569000     -0.118000      7.728000
C          20.313000     -1.195000     11.161000
C          19.541000      0.968000      8.558000
C          22.378000     -4.639000      9.427000
C          23.317000     -1.249000      9.148000
O          13.973000     10.731000     12.173000
C          15.325000     11.302000     12.015000
H          15.197000     12.390000     11.970000
H          15.698000     10.922000     11.056000
H          15.935000     10.989000     12.871000
O          14.890000      8.681000     11.807000
C          13.864000      9.388000     11.902000
C          12.461000      8.891000     11.855000
H          11.787000      9.725000     11.624000
H          12.296000      8.511000     12.871000
C          12.293000      7.709000     10.895000
H          12.088000      8.095000      9.889000
H          13.152000      7.029000     10.949000
C          11.067000      6.813000     11.346000
H          11.395000      6.375000     12.297000
H          10.190000      7.416000     11.611000
C          10.578000      5.804000     10.260000
C           9.754000      6.465000      9.127000
C          10.413000      7.006000      8.023000
H          11.495000      6.952000      7.947000
C           9.743000      7.672000      7.005000
H          10.272000      8.088000      6.152000
C           8.351000      7.779000      7.142000
H           7.733000      8.160000      6.335000
C           7.609000      7.250000      8.173000
H           6.523000      7.249000      8.195000
C           8.329000      6.673000      9.235000
H           7.757000      6.380000     10.111000
C           8.199000      1.193000      8.837000
C           9.818000      1.498000      7.091000
C          12.606000     -1.891000      8.389000
C          10.419000      1.288000     13.424000
C          14.866000      0.255000     10.034000
C           8.914000      2.042000      7.977000
C          13.019000      0.278000     13.081000
C          10.182000     -1.815000      8.300000
C          13.066000      3.483000      8.465000
C          11.498000      2.147000     13.321000
C          11.509000      4.628000      9.940000
C          13.638000      3.523000      9.721000
C          13.496000      2.561000     12.328000
C          13.912000     -0.274000     12.188000
C          10.691000      3.412000      7.888000
C          13.554000     -1.711000     10.350000
C          10.193000      4.356000     10.599000
C          10.177000      3.678000     11.903000
C          14.290000     -0.909000      9.530000
C           9.774000     -1.759000     11.722000
C          11.322000     -2.637000     10.283000
C          10.092000     -2.367000      9.543000
C           9.317000     -0.742000      7.854000
C           9.120000      2.737000     11.939000
C          11.766000      4.063000      8.617000
C          10.016000      0.098000      6.987000
C          12.785000      1.668000     13.159000
C          10.931000      2.350000      7.034000
C          14.502000      2.499000     10.113000
C           8.643000      0.412000     12.222000
C          11.410000     -1.553000      7.688000
C          12.730000      4.162000     10.618000
C           8.287000     -0.729000     10.081000
C          14.425000      2.030000     11.398000
C          13.293000      2.423000      7.554000
C          12.103000     -1.671000     12.361000
C          11.896000     -0.608000     13.250000
C          14.091000      1.393000      7.990000
C           9.236000      1.511000     12.723000
C          11.362000      3.302000     12.574000
C           9.474000     -0.667000     12.591000
C           9.154000      3.565000      9.858000
C          12.395000      0.461000      6.760000
C          12.628000      3.619000     11.955000
C          14.749000      1.400000      9.236000
C           8.083000      0.372000     10.944000
C          13.648000     -0.994000      8.277000
C           8.409000     -0.233000      8.775000
C          12.576000     -2.389000      9.662000
C          12.240000      1.842000      6.879000
C          13.594000      0.182000      7.464000
C           9.437000      3.247000      8.492000
C           8.470000      2.700000     10.710000
C          11.079000     -2.274000     11.648000
C          11.290000     -0.375000      6.922000
C          14.678000      0.617000     11.356000
C          10.581000     -0.103000     13.333000
C          13.337000     -1.434000     11.704000
C           7.969000      1.545000     10.175000
C           9.187000     -1.794000     10.465000
$end

--------------------------------------------------------------

             Standard Nuclear Orientation (Angstroms)
    I     Atom           X                Y                Z
 ----------------------------------------------------------------
    1      O       1.5513858256    -5.5512590527    -0.7343836995
    2      C       0.6786164401    -6.0185740719    -1.7983175661
    3      H       0.0181740229    -6.8236450924    -1.4551245223
    4      H       1.2443471812    -6.4887333925    -2.6127252906
    5      H       0.1291139094    -5.1714174572    -2.2259560104
    6      O       2.5813860092    -7.5297608352    -0.3971118234
    7      C       2.4560534425    -6.3721944208    -0.1504627935
    8      C       3.2464733721    -5.6520969567     0.9483078727
    9      H       3.7325524000    -6.4397178862     1.5377732661
   10      H       2.5644129171    -5.1747450771     1.6624526191
   11      C       4.2828156512    -4.6681207784     0.3079309827
   12      H       5.1210154154    -5.2155769328    -0.1422366686
   13      H       3.8706880774    -4.0040773154    -0.4616865471
   14      C       4.9818929990    -3.7973410222     1.4285506674
   15      H       4.2180373304    -3.2638445377     2.0074315001
   16      H       5.6275040492    -4.3774008181     2.0992681974
   17      C       5.9481343495    -2.8842456174     0.7010429805
   18      C       7.2210556648    -3.5993790101     0.2984097037
   19      C       8.1871813320    -3.9408801484     1.3041110351
   20      H       8.0179426946    -3.6764935750     2.3440172921
   21      C       9.3766758525    -4.5867878814     0.8881819713
   22      H      10.1443934497    -4.9017924885     1.5879810770
   23      C       9.5644907564    -4.8930021685    -0.4629739680
   24      H      10.4500749024    -5.3852229911    -0.8539066761
   25      C       8.6119738206    -4.6380948658    -1.4385039542
   26      H       8.7602278214    -4.9014536738    -2.4815067776
   27      C       7.5180739893    -3.9229786629    -1.0364256343
   28      H       6.8111456080    -3.7041214142    -1.8313160472
   29      C       8.3253016679     2.0214780867     0.7491416219
   30      C       8.0251357721     1.4989879898    -1.6261102666
   31      C       4.7463800416     4.5683634073    -2.3207198011
   32      C       3.9096090458     1.4907363295     3.1011749665
   33      C       2.1796176747     2.2087039113    -2.2721501127
   34      C       8.3153996127     1.0568067481    -0.3484175600
   35      C       1.8636545529     2.2401396251     1.3772727323
   36      C       6.8236899423     4.7620298865    -1.0633754285
   37      C       4.9334223570    -0.7853960159    -2.3286071515
   38      C       3.1764534969     0.5321229578     2.4558708951
   39      C       5.3781874256    -1.7684686109    -0.1799696049
   40      C       3.7326835282    -0.9459004232    -1.6245669537
   41      C       2.1999231549     0.0313994085     0.5074249968
   42      C       1.6223321253     2.6461616748     0.0836976161
   43      C       7.1624788358    -0.5098835792    -1.4307669031
   44      C       2.7048242346     4.3935995715    -1.2690095327
   45      C       6.0661364167    -1.3924920363     1.1411892807
   46      C       5.2053227883    -0.7597726788     2.1953079228
   47      C       2.7893596700     3.4428396494    -2.3663874670
   48      C       5.0600932929     4.6704072783     2.0717966809
   49      C       4.6328491379     5.4075997658    -0.0663056713
   50      C       6.0274740447     5.2708395460     0.0421194719
   51      C       7.7471085867     3.7904803946    -0.7417707148
   52      C       5.9482475839     0.2612064436     2.7844508425
   53      C       6.0153806133    -1.2842767966    -1.5080961532
   54      C       7.7802944762     2.9179986954    -1.8481898855
   55      C       2.1498429288     0.8589706628     1.5819908580
   56      C       7.2558545235     0.5991430674    -2.3151773723
   57      C       2.7142731055     0.0082865568    -1.8781856010
   58      C       5.8713878629     2.6239279913     3.1355483664
   59      C       6.1564890334     4.4189475580    -2.2245452968
   60      C       4.0281702892    -1.3474629051    -0.3264821540
   61      C       7.3113372690     3.9054828177     1.6378645097
   62      C       1.9391690644     0.4755230496    -0.8246037175
   63      C       5.1083886855     0.3250288594    -3.1725576122
   64      C       2.8558827698     4.2419908937     1.1227601318
   65      C       2.5978254209     3.2633117874     2.0778138536
   66      C       4.1181820992     1.2306310405    -3.4461277239
   67      C       5.3037340550     1.3705086740     3.2604570111
   68      C       3.8225063874    -0.6160567920     1.9658944419
   69      C       4.8637439410     3.5573743407     2.9248005566
   70      C       7.2419112800    -0.5345319459     1.0712968340
   71      C       6.0226399174     2.3261559826    -3.4821071586
   72      C       3.2354596172    -0.8778532411     0.7144753639
   73      C       2.8579806478     1.0804835173    -2.7894154404
   74      C       7.1272430723     2.8125576135     2.4739128484
   75      C       4.0144228189     3.6091726438    -3.0605607999
   76      C       8.0637109464     3.3800867080     0.5604542918
   77      C       3.9321234047     5.0644950290    -1.2809272529
   78      C       6.3187626596     0.9444379769    -3.2693263462
   79      C       4.6609634269     2.4852380960    -3.6462291143
   80      C       7.7938954897    -0.2132072691    -0.1981549706
   81      C       7.2029951225     0.4096831859     2.1073066398
   82      C       4.0233987170     4.9582538044     1.1806475722
   83      C       6.7474230877     3.2930993320    -2.7773008624
   84      C       1.6052004590     1.8029147022    -1.0162814969
   85      C       3.6487147069     2.8488825220     2.8830716339
   86      C       2.1622776976     3.9322351940    -0.0609076469
   87      C       7.7542452108     1.6864097337     1.9210979869
   88      C       6.2546947171     4.8278974314     1.3431141103
   89      O      -9.0180078043     7.4198575638     1.4306433250
   90      C      -8.3816881022     8.7512886669     1.3946231286
   91      H      -9.1835432536     9.4709843398     1.1915973803
   92      H      -7.6754656209     8.7206767390     0.5558605181
   93      H      -7.8967521670     8.9293093591     2.3620686164
   94      O      -6.9292931923     6.5180375537     1.4672075026
   95      C      -8.1593915307     6.3521009017     1.3227322263
   96      C      -8.8421170026     5.0412253796     1.1407478984
   97      H      -9.8374340151     5.2059307314     0.7101562220
   98      H      -8.9069653985     4.6487979842     2.1633311101
   99      C      -7.9999404539     4.0531419543     0.3274965195
  100      H      -8.2098438130     4.2013665054    -0.7388181912
  101      H      -6.9376800567     4.1268264854     0.5908792039
  102      C      -8.3867640551     2.5656686353     0.7110113525
  103      H      -8.0426015488     2.4616011800     1.7476169352
  104      H      -9.4727219962     2.4228222910     0.7680488142
  105      C      -7.8676880404     1.4899998755    -0.2940233783
  106      C      -8.6843148208     1.4259144832    -1.6087856245
  107      C      -8.3497257008     2.2695551794    -2.6680771313
  108      H      -7.5132231154     2.9566942806    -2.5813633485
  109      C      -9.0798751548     2.3126465671    -3.8486722808
  110      H      -8.8056292255     2.9763235128    -4.6640421859
  111      C     -10.1883396465     1.4564237052    -3.9265881422
  112      H     -10.7333636363     1.3233768402    -4.8558789375
  113      C     -10.5771065668     0.5659025066    -2.9523200700
  114      H     -11.3698519766    -0.1646468695    -3.0854865991
  115      C      -9.8777844401     0.6223137050    -1.7329188482
  116      H     -10.2688187589     0.0208234091    -0.9170079551
  117      C      -6.2817649573    -3.5231500285    -1.4337895886
  118      C      -4.9703692001    -2.2090558576    -2.9556633278
  119      C      -0.9592771126    -2.8453523218    -0.8463183880
  120      C      -5.6140309549    -1.9615637523     3.3717877548
  121      C      -1.0488126488     0.2623673047     0.8128992321
  122      C      -6.1565597187    -2.4138241052    -2.2854618520
  123      C      -2.9925935762    -0.9622283653     3.5365416740
  124      C      -2.7537310454    -4.4180178274    -1.2891855131
  125      C      -4.1836159008     1.4434228563    -1.4006638131
  126      C      -5.3766063867    -0.6003243050     3.3135834483
  127      C      -6.3540286481     1.2448133061    -0.3232772748
  128      C      -4.0360720925     1.8572623289    -0.0917376442
  129      C      -4.0066086527     1.0490775534     2.5705970970
  130      C      -1.8077734953    -0.7707756080     2.8589361710
  131      C      -5.7515977886    -0.2051059842    -2.2964207342
  132      C      -0.7665165401    -2.0752578462     1.1899583271
  133      C      -7.2577941247     0.1589268430     0.1708680000
  134      C      -7.0732761783    -0.3540912166     1.5358301233
  135      C      -0.6027546975    -0.9866305390     0.3866074418
  136      C      -3.7457614742    -4.6512011710     2.0034099915
  137      C      -1.7648955993    -4.2609206308     0.9255600550
  138      C      -2.6943397798    -4.8874484169    -0.0109208303
  139      C      -4.0040761482    -4.2046482588    -1.9888858425
  140      C      -7.2277422902    -1.7612613831     1.5420222816
  141      C      -5.5400416390     0.9992983248    -1.5118691067
  142      C      -3.8832152615    -3.1127384290    -2.8485459902
  143      C      -4.0943090872    -0.0901400584     3.4000685352
  144      C      -4.7124747572    -0.8301581053    -2.9629739364
  145      C      -2.8083744870     1.6795146423     0.5484969607
  146      C      -6.0955708614    -3.8036050858     2.0521821151
  147      C      -1.9163642833    -3.3986803665    -1.7484676121
  148      C      -5.2899359229     1.7201557742     0.5764100097
  149      C      -5.1897461862    -4.8875017497     0.0478997798
  150      C      -2.8023558376     1.2802792073     1.8591036307
  151      C      -3.1442880787     0.8111235175    -2.1252638575
  152      C      -2.2343505124    -3.0210043004     2.9512502036
  153      C      -3.2568889738    -2.3730400518     3.6567262326
  154      C      -1.9690627828     0.5845736809    -1.4504893209
  155      C      -6.4858324780    -2.5913176861     2.4863550430
  156      C      -6.0933486951     0.1637083247     2.4118824977
  157      C      -4.8511561216    -4.0442556949     2.6722484341
  158      C      -7.3485547773    -1.1249588964    -0.6022315487
  159      C      -2.3501493197    -1.2451729886    -2.7789245572
  160      C      -5.2632917264     1.2493129129     1.9440426675
  161      C      -1.7353376919     1.0317698198    -0.1348460580
  162      C      -6.2301603159    -4.2093773690     0.7233786937
  163      C      -0.7720671812    -1.4808355973    -0.9235424135
  164      C      -5.1768282675    -4.4380282748    -1.2803858532
  165      C      -0.8976705054    -3.2344771515     0.4629636645
  166      C      -3.3964132520    -0.3266661939    -2.8627341753
  167      C      -1.4303681446    -0.6461374834    -1.8810286536
  168      C      -6.6702868409    -1.1700823297    -1.8612333287
  169      C      -7.4391418305    -2.2252999551     0.2480793006
  170      C      -2.4435800849    -4.1555922690     2.1834695530
  171      C      -2.6329906985    -2.6068605000    -2.6695039197
  172      C      -1.6785944533     0.4039217615     2.0365859627
  173      C      -4.5614746324    -2.8827757193     3.4853646011
  174      C      -1.3674760464    -2.0161420414     2.4518961201
  175      C      -6.9385519350    -3.4172277101    -0.1990996160
  176      C      -3.9073103057    -5.0714179982     0.6907170368
 ----------------------------------------------------------------

    9   -5804.2863213901      8.68E-06 Convergence criterion met
 Total energy in the final basis set = -5804.2863213901

                    Orbital Energies (a.u.)
 --------------------------------------------------------------

 Alpha MOs
 -- Occupied --
-19.189 -19.185 -19.133 -19.128 -10.318 -10.308 -10.248 -10.246
-10.240 -10.238 -10.238 -10.237 -10.235 -10.233 -10.231 -10.226
-10.226 -10.226 -10.225 -10.224 -10.224 -10.221 -10.221 -10.221
-10.220 -10.220 -10.220 -10.220 -10.219 -10.218 -10.218 -10.218
-10.218 -10.218 -10.218 -10.218 -10.218 -10.218 -10.218 -10.217
-10.217 -10.217 -10.217 -10.217 -10.216 -10.216 -10.216 -10.216
-10.216 -10.216 -10.215 -10.215 -10.215 -10.215 -10.215 -10.215
-10.215 -10.214 -10.214 -10.214 -10.214 -10.214 -10.214 -10.214
-10.214 -10.214 -10.214 -10.214 -10.213 -10.213 -10.213 -10.213
-10.213 -10.213 -10.213 -10.213 -10.213 -10.212 -10.212 -10.212
-10.212 -10.212 -10.212 -10.212 -10.212 -10.211 -10.211 -10.211
-10.211 -10.211 -10.211 -10.211 -10.211 -10.211 -10.211 -10.210
-10.210 -10.210 -10.210 -10.210 -10.210 -10.210 -10.210 -10.209
-10.209 -10.209 -10.209 -10.209 -10.209 -10.209 -10.209 -10.208
-10.208 -10.208 -10.208 -10.208 -10.208 -10.208 -10.208 -10.208
-10.208 -10.208 -10.207 -10.207 -10.207 -10.207 -10.207 -10.206
-10.206 -10.206 -10.206 -10.205 -10.205 -10.205 -10.205 -10.204
-10.202 -10.202 -10.201 -10.200 -10.200 -10.200 -10.200 -10.199
-10.197 -10.196 -10.194 -10.193  -1.092  -1.082  -1.012  -0.991
 -0.983  -0.982  -0.966  -0.965  -0.962  -0.962  -0.960  -0.960
 -0.935  -0.930  -0.927  -0.926  -0.926  -0.924  -0.924  -0.923
 -0.921  -0.919  -0.896  -0.894  -0.893  -0.891  -0.885  -0.883
 -0.874  -0.872  -0.857  -0.854  -0.841  -0.840  -0.838  -0.837
 -0.836  -0.835  -0.820  -0.817  -0.809  -0.799  -0.798  -0.798
 -0.796  -0.796  -0.794  -0.791  -0.791  -0.790  -0.783  -0.780
 -0.771  -0.770  -0.769  -0.767  -0.766  -0.765  -0.764  -0.761
 -0.756  -0.753  -0.742  -0.739  -0.732  -0.727  -0.717  -0.717
 -0.714  -0.713  -0.711  -0.711  -0.710  -0.710  -0.708  -0.708
 -0.707  -0.706  -0.705  -0.704  -0.702  -0.700  -0.673  -0.671
 -0.659  -0.658  -0.655  -0.655  -0.647  -0.643  -0.633  -0.631
 -0.625  -0.625  -0.624  -0.624  -0.622  -0.620  -0.619  -0.619
 -0.615  -0.614  -0.612  -0.612  -0.611  -0.609  -0.608  -0.607
 -0.605  -0.605  -0.603  -0.601  -0.568  -0.565  -0.563  -0.563
 -0.560  -0.559  -0.558  -0.555  -0.554  -0.554  -0.552  -0.551
 -0.538  -0.535  -0.534  -0.531  -0.527  -0.526  -0.525  -0.524
 -0.521  -0.521  -0.518  -0.518  -0.517  -0.514  -0.514  -0.512
 -0.507  -0.505  -0.502  -0.495  -0.494  -0.491  -0.486  -0.484
 -0.482  -0.481  -0.480  -0.479  -0.477  -0.475  -0.473  -0.473
 -0.472  -0.471  -0.469  -0.467  -0.467  -0.467  -0.466  -0.466
 -0.465  -0.465  -0.463  -0.463  -0.463  -0.462  -0.459  -0.459
 -0.457  -0.454  -0.453  -0.450  -0.449  -0.447  -0.444  -0.442
 -0.442  -0.441  -0.440  -0.439  -0.438  -0.436  -0.434  -0.432
 -0.432  -0.430  -0.429  -0.428  -0.427  -0.426  -0.425  -0.425
 -0.423  -0.423  -0.421  -0.420  -0.420  -0.418  -0.418  -0.417
 -0.417  -0.416  -0.416  -0.415  -0.414  -0.413  -0.412  -0.411
 -0.409  -0.408  -0.407  -0.406  -0.402  -0.398  -0.397  -0.394
 -0.392  -0.390  -0.390  -0.388  -0.386  -0.384  -0.384  -0.380
 -0.379  -0.376  -0.375  -0.372  -0.369  -0.367  -0.366  -0.365
 -0.365  -0.364  -0.362  -0.362  -0.360  -0.360  -0.359  -0.359
 -0.358  -0.358  -0.355  -0.354  -0.354  -0.353  -0.352  -0.351
 -0.350  -0.348  -0.348  -0.346  -0.346  -0.345  -0.345  -0.344
 -0.342  -0.341  -0.340  -0.339  -0.338  -0.337  -0.335  -0.334
 -0.332  -0.331  -0.330  -0.328  -0.327  -0.326  -0.326  -0.324
 -0.310  -0.305  -0.296  -0.295  -0.286  -0.282  -0.272  -0.270
 -0.269  -0.268  -0.267  -0.266  -0.266  -0.264  -0.263  -0.262
 -0.262  -0.261  -0.261  -0.259  -0.258  -0.256  -0.255  -0.254
 -0.251  -0.250  -0.243  -0.239  -0.221  -0.219  -0.211  -0.210
 -0.209  -0.207  -0.206  -0.203  -0.198  -0.196

          Ground-State Mulliken Net Atomic Charges

     Atom                 Charge (a.u.)
  ----------------------------------------
      1 O                    -0.463796
      2 C                    -0.092561
      3 H                     0.129202
      4 H                     0.123141
      5 H                     0.126875
      6 O                    -0.451343
      7 C                     0.572672
      8 C                    -0.243757
      9 H                     0.128968
     10 H                     0.123512
     11 C                    -0.195093
     12 H                     0.122381
     13 H                     0.123155
     14 C                    -0.185905
     15 H                     0.110648
     16 H                     0.109522
     17 C                     0.015947
     18 C                     0.087705
     19 C                    -0.114724
     20 H                     0.096729
     21 C                    -0.086745
     22 H                     0.094793
     23 C                    -0.085683
     24 H                     0.085255
     25 C                    -0.078792
     26 H                     0.098190
     27 C                    -0.105163
     28 H                     0.088201
     29 C                     0.008680
     30 C                    -0.022750
     31 C                     0.009093
     32 C                     0.017164
     33 C                    -0.015377
     34 C                    -0.006861
     35 C                    -0.023367
     36 C                    -0.030783
     37 C                    -0.011311
     38 C                    -0.017252
     39 C                    -0.075247
     40 C                    -0.013081
     41 C                     0.009060
     42 C                     0.043634
     43 C                     0.010958
     44 C                    -0.020551
     45 C                    -0.113146
     46 C                     0.036657
     47 C                     0.003242
     48 C                    -0.012504
     49 C                    -0.035815
     50 C                     0.011926
     51 C                     0.038094
     52 C                    -0.002709
     53 C                    -0.034158
     54 C                    -0.037556
     55 C                     0.009596
     56 C                     0.044147
     57 C                     0.000015
     58 C                    -0.004189
     59 C                     0.011093
     60 C                     0.083898
     61 C                    -0.019491
     62 C                     0.004759
     63 C                     0.048486
     64 C                     0.037446
     65 C                    -0.040715
     66 C                     0.003913
     67 C                    -0.005952
     68 C                    -0.022235
     69 C                     0.001131
     70 C                     0.050445
     71 C                    -0.005926
     72 C                    -0.024936
     73 C                    -0.018812
     74 C                    -0.001287
     75 C                     0.003534
     76 C                    -0.010682
     77 C                     0.003646
     78 C                    -0.037330
     79 C                    -0.010354
     80 C                     0.002413
     81 C                     0.001267
     82 C                     0.000446
     83 C                     0.011086
     84 C                    -0.008653
     85 C                     0.009986
     86 C                     0.000130
     87 C                     0.010811
     88 C                     0.017094
     89 O                    -0.483394
     90 C                    -0.076574
     91 H                     0.122874
     92 H                     0.135567
     93 H                     0.136609
     94 O                    -0.495024
     95 C                     0.599024
     96 C                    -0.257127
     97 H                     0.131946
     98 H                     0.144040
     99 C                    -0.181964
    100 H                     0.110262
    101 H                     0.141583
    102 C                    -0.200581
    103 H                     0.111982
    104 H                     0.107547
    105 C                     0.012127
    106 C                     0.089243
    107 C                    -0.113823
    108 H                     0.095101
    109 C                    -0.080342
    110 H                     0.098855
    111 C                    -0.092533
    112 H                     0.081940
    113 C                    -0.072838
    114 H                     0.099709
    115 C                    -0.120345
    116 H                     0.090122
    117 C                    -0.003420
    118 C                    -0.001065
    119 C                     0.003313
    120 C                    -0.004268
    121 C                     0.000882
    122 C                    -0.017269
    123 C                     0.001965
    124 C                     0.006567
    125 C                    -0.007701
    126 C                     0.029167
    127 C                    -0.043337
    128 C                     0.035130
    129 C                    -0.014397
    130 C                    -0.005664
    131 C                    -0.000396
    132 C                    -0.002742
    133 C                    -0.087418
    134 C                     0.030879
    135 C                     0.026864
    136 C                     0.006568
    137 C                    -0.021356
    138 C                    -0.008871
    139 C                    -0.013468
    140 C                    -0.020585
    141 C                     0.004223
    142 C                    -0.002724
    143 C                     0.002649
    144 C                     0.002534
    145 C                    -0.018735
    146 C                     0.011159
    147 C                    -0.016395
    148 C                     0.013987
    149 C                    -0.004167
    150 C                     0.011971
    151 C                     0.005273
    152 C                     0.008529
    153 C                    -0.021731
    154 C                     0.027079
    155 C                     0.006827
    156 C                    -0.007827
    157 C                    -0.016270
    158 C                     0.025677
    159 C                    -0.024975
    160 C                    -0.035535
    161 C                    -0.002544
    162 C                     0.002800
    163 C                    -0.000295
    164 C                     0.000578
    165 C                     0.009958
    166 C                    -0.000979
    167 C                    -0.028707
    168 C                     0.003120
    169 C                     0.022422
    170 C                     0.000258
    171 C                     0.031687
    172 C                    -0.013330
    173 C                    -0.009937
    174 C                     0.004287
    175 C                    -0.007655
    176 C                    -0.000726
  ----------------------------------------
  Sum of atomic charges =     0.000000

                    Cartesian Multipole Moments
 -----------------------------------------------------------------
    Charge (ESU x 10^10)
                 0.0000
    Dipole Moment (Debye)
         X      -3.7343      Y       1.4708      Z      -0.8694
       Tot       4.1066
    Quadrupole Moments (Debye-Ang)
        XX    -739.4827     XY     -33.4444     YY    -817.6389
        XZ      14.3833     YZ      -3.2051     ZZ    -798.5698

 Total job time:  883.33s(wall), 8349.76s(cpu)
        *  Thank you very much for using Q-Chem.  Have a nice day.  *
