 Q-Chem 4.4, Q-Chem, Inc., Pleasanton, CA (2016)
 Q-Chem 4.4.2 for Intel X86 Linux

User input:
--------------------------------------------------------------
$comment
SP
$end

$rem
MEM_STATIC 5000
MEM_TOTAL 20000
JOBTYPE SP
EXCHANGE B3LYP
BASIS 6-31g(d,p)
$end

$molecule
0 1
O         -10.473000    -12.711000    -10.079000
C          -9.621000    -13.914000    -10.200000
H          -8.962000    -14.009000     -9.328000
H          -8.949000    -13.826000    -11.062000
H         -10.234000    -14.812000    -10.339000
O         -11.648000    -13.108000    -12.037000
C         -11.455000    -12.421000    -11.061000
C         -12.283000    -11.208000    -10.761000
H         -11.685000    -10.395000    -10.331000
H         -13.022000    -11.638000    -10.073000
C         -13.030000    -10.619000    -11.976000
H         -12.254000    -10.089000    -12.542000
H         -13.358000    -11.419000    -12.651000
C         -13.994000     -9.516000    -11.676000
H         -13.522000     -8.786000    -11.007000
H         -14.245000     -9.077000    -12.649000
C         -15.284000     -9.988000    -10.930000
C         -15.993000    -11.132000    -11.699000
C         -17.080000    -10.791000    -12.519000
H         -17.587000     -9.835000    -12.432000
C         -17.689000    -11.760000    -13.310000
H         -18.578000    -11.470000    -13.862000
C         -17.121000    -13.090000    -13.355000
H         -17.557000    -13.864000    -13.980000
C         -15.954000    -13.410000    -12.637000
H         -15.576000    -14.423000    -12.735000
C         -15.545000    -12.438000    -11.754000
H         -14.638000    -12.676000    -11.207000
C         -19.928000     -8.356000     -8.439000
C         -19.512000    -10.544000     -7.576000
C         -18.322000     -9.131000     -3.361000
C         -15.877000     -5.298000     -7.880000
C         -14.859000     -9.309000     -4.051000
C         -19.475000     -9.686000     -8.671000
C         -14.607000     -5.981000     -5.532000
C         -20.067000     -8.385000     -4.917000
C         -15.571000    -11.308000     -7.449000
C         -14.761000     -6.097000     -7.946000
C         -15.420000     -9.936000     -9.429000
C         -14.511000    -10.414000     -7.330000
C         -13.621000     -7.769000     -6.915000
C         -14.642000     -6.889000     -4.459000
C         -17.539000    -10.985000     -8.694000
C         -16.507000     -7.766000     -3.151000
C         -16.118000     -8.893000    -10.181000
C         -15.779000     -7.472000     -9.694000
C         -15.977000     -9.113000     -3.265000
C         -18.520000     -5.262000     -5.580000
C         -18.559000     -6.828000     -3.840000
C         -19.691000     -7.071000     -4.643000
C         -20.449000     -8.777000     -6.157000
C         -16.991000     -6.743000     -9.537000
C         -16.129000    -11.070000     -8.735000
C         -19.917000    -10.080000     -6.279000
C         -14.102000     -6.482000     -6.779000
C         -18.327000    -11.308000     -7.608000
C         -14.073000    -10.029000     -6.017000
C         -18.166000     -5.288000     -8.041000
C         -19.401000     -9.437000     -4.227000
C         -14.374000     -9.551000     -8.435000
C         -20.030000     -6.546000     -7.017000
C         -13.652000     -8.675000     -5.843000
C         -16.268000    -11.658000     -6.283000
C         -16.517000     -5.584000     -4.378000
C         -15.742000     -5.198000     -5.467000
C         -15.918000    -11.301000     -5.027000
C         -16.976000     -5.623000     -8.708000
C         -14.678000     -7.160000     -8.830000
C         -17.827000     -4.840000     -6.760000
C         -17.647000     -8.894000    -10.014000
C         -18.212000    -11.313000     -5.147000
C         -13.963000     -8.242000     -8.213000
C         -14.822000    -10.404000     -4.871000
C         -19.274000     -6.196000     -8.155000
C         -17.129000     -9.937000     -3.537000
C         -20.451000     -7.868000     -7.253000
C         -17.902000     -7.849000     -3.170000
C         -17.656000    -11.664000     -6.400000
C         -17.104000    -11.100000     -4.277000
C         -18.267000     -9.939000     -9.341000
C         -18.090000     -7.579000     -9.753000
C         -17.876000     -5.726000     -4.415000
C         -19.362000    -10.524000     -5.088000
C         -14.139000     -8.247000     -4.603000
C         -16.430000     -4.867000     -6.649000
C         -15.810000     -6.699000     -3.761000
C         -19.257000     -7.306000     -9.030000
C         -19.627000     -6.131000     -5.723000
O         -17.472000    -13.779000      0.371000
C         -18.881000    -14.181000      0.194000
H         -18.995000    -14.707000     -0.761000
H         -19.585000    -13.340000      0.203000
H         -19.273000    -14.880000      0.943000
O         -16.987000    -13.584000     -1.859000
C         -16.731000    -13.407000     -0.710000
C         -15.448000    -12.852000     -0.111000
H         -15.070000    -13.580000      0.618000
H         -15.716000    -11.910000      0.383000
C         -14.477000    -12.543000     -1.249000
H         -14.322000    -13.378000     -1.942000
H         -14.932000    -11.758000     -1.866000
C         -13.173000    -11.940000     -0.725000
H         -13.119000    -11.035000     -1.343000
H         -13.309000    -11.585000      0.305000
C         -11.771000    -12.652000     -0.760000
C         -11.704000    -13.788000      0.205000
C         -10.995000    -13.557000      1.439000
H         -10.573000    -12.583000      1.667000
C         -10.773000    -14.622000      2.367000
H         -10.293000    -14.596000      3.341000
C         -11.079000    -15.930000      1.935000
H         -10.926000    -16.725000      2.658000
C         -11.819000    -16.114000      0.784000
H         -12.206000    -17.119000      0.646000
C         -12.132000    -15.097000     -0.162000
H         -12.687000    -15.328000     -1.067000
C          -6.338000    -12.582000     -1.149000
C          -6.913000    -14.391000     -2.603000
C          -5.973000    -12.193000     -6.539000
C          -8.840000     -8.351000     -2.458000
C          -9.365000    -11.360000     -7.113000
C          -7.171000    -13.660000     -1.442000
C          -9.308000     -8.383000     -5.218000
C          -4.726000    -12.298000     -4.458000
C         -10.585000    -13.827000     -4.138000
C         -10.158000     -8.659000     -2.951000
C         -11.188000    -12.648000     -2.136000
C         -11.217000    -12.633000     -4.440000
C         -11.209000     -9.820000     -4.583000
C          -9.093000     -9.111000     -6.394000
C          -9.149000    -14.258000     -2.255000
C          -7.162000    -10.330000     -7.090000
C         -10.499000    -11.910000     -1.026000
C         -10.296000    -10.409000     -1.161000
C          -8.002000    -11.408000     -7.396000
C          -5.532000     -8.878000     -3.602000
C          -5.327000    -10.059000     -5.438000
C          -4.648000    -10.826000     -4.438000
C          -5.034000    -12.995000     -3.214000
C          -8.992000    -10.083000     -0.774000
C         -10.406000    -13.819000     -2.743000
C          -5.869000    -14.092000     -3.506000
C         -10.334000     -8.759000     -4.303000
C          -8.183000    -14.776000     -3.117000
C         -10.965000    -11.959000     -5.693000
C          -6.875000     -9.065000     -1.548000
C          -5.439000    -12.948000     -5.449000
C         -11.604000    -11.890000     -3.371000
C          -5.178000    -10.770000     -2.055000
C         -10.930000    -10.589000     -5.780000
C          -9.581000    -14.257000     -5.030000
C          -7.052000     -8.498000     -5.526000
C          -8.060000     -8.052000     -4.666000
C          -9.324000    -13.593000     -6.209000
C          -8.280000     -9.042000     -1.409000
C         -10.776000     -9.774000     -2.324000
C          -6.586000     -8.419000     -2.746000
C          -9.146000    -12.412000     -0.688000
C          -7.388000    -14.425000     -5.404000
C         -11.452000    -10.479000     -3.378000
C         -10.031000    -12.461000     -6.548000
C          -6.182000    -10.265000     -1.227000
C          -7.241000    -12.547000     -7.032000
C          -5.299000    -12.179000     -2.102000
C          -5.958000    -10.800000     -6.494000
C          -8.406000    -14.704000     -4.482000
C          -7.966000    -13.689000     -6.473000
C          -8.567000    -13.579000     -1.202000
C          -8.305000    -11.301000     -0.480000
C          -5.800000     -8.869000     -4.991000
C          -6.100000    -14.124000     -4.943000
C          -9.909000    -10.182000     -6.678000
C          -7.804000     -8.018000     -3.329000
C          -7.719000     -9.204000     -6.547000
C          -6.891000    -11.356000     -0.770000
C          -4.861000    -10.087000     -3.235000
$end

--------------------------------------------------------------

             Standard Nuclear Orientation (Angstroms)
    I     Atom           X                Y                Z
 ----------------------------------------------------------------
    1      O      -0.7312660455    -5.1790935952    -2.3962751831
    2      C      -1.7685563654    -5.6059021616    -3.3604417869
    3      H      -2.7283905672    -5.1263003146    -3.1315523516
    4      H      -1.9557585060    -6.6829067806    -3.2744859310
    5      H      -1.4519258918    -5.3984318364    -4.3891279428
    6      O       0.9811820079    -6.3598809967    -3.4186551404
    7      C       0.6096892846    -5.6203603023    -2.5372379298
    8      C       1.5540984238    -5.0460727295    -1.5246974805
    9      H       1.1026365385    -4.9833558026    -0.5268388968
   10      H       1.7701416687    -4.0734584113    -1.9848188824
   11      C       2.8806154168    -5.8185661277    -1.3673392365
   12      H       2.6113039959    -6.7054193320    -0.7804876773
   13      H       3.2075862368    -6.2227133779    -2.3332398955
   14      C       3.9088529219    -5.1759770711    -0.4922895593
   15      H       3.4401596417    -4.8387801217     0.4403785631
   16      H       4.6638484718    -5.9509972848    -0.3140302314
   17      C       4.5602440535    -3.8982833095    -1.1140517688
   18      C       5.1509298435    -4.1925229646    -2.5166533954
   19      C       6.5289150350    -4.4449629240    -2.6042940195
   20      H       7.2113220218    -4.1914383776    -1.7989369505
   21      C       7.0952213762    -4.8143649589    -3.8201732341
   22      H       8.1756121995    -4.9160855905    -3.8593342107
   23      C       6.2315802242    -5.0369313571    -4.9595314565
   24      H       6.6378202008    -5.3489312860    -5.9173530087
   25      C       4.8341801811    -4.9127601561    -4.8515146417
   26      H       4.2499995349    -5.1139851171    -5.7442063509
   27      C       4.4014834330    -4.3706510311    -3.6638087770
   28      H       3.3232417593    -4.2845595160    -3.5716939349
   29      C       7.9783402883     0.3374467400    -0.2138017604
   30      C       6.6077593223     1.0398974774    -2.0395179972
   31      C       4.2354850199     4.1602806334     0.3717923507
   32      C       5.1812187403    -1.1879774377     3.7766415889
   33      C       1.5047325477     1.9791386503     0.9063609474
   34      C       7.2919132352     0.0012007636    -1.4153380870
   35      C       2.9019487916     0.3578776194     3.8646963641
   36      C       6.6074900933     3.5307961379     0.3760587021
   37      C       2.9493304916    -0.5998230827    -1.7976069075
   38      C       4.0147466450    -1.7094466303     3.2710471547
   39      C       4.0609572973    -2.5060507750    -0.8197690734
   40      C       2.2568157593    -1.0285766647    -0.6690721444
   41      C       2.1065353180    -1.2173866448     2.1419982176
   42      C       2.2104558385     1.3789903832     3.1892822545
   43      C       5.2557846752    -0.8271549285    -2.1925339018
   44      C       2.9977669316     3.4411945585     2.1473258340
   45      C       5.2858339232    -2.9156779954    -0.1324265157
   46      C       5.2132943629    -2.7191592038     1.3931715233
   47      C       2.1906568986     3.1756368624     0.9698889972
   48      C       6.4897622489     2.0575869405     3.6012256459
   49      C       5.3253615333     3.7107199184     2.4210564500
   50      C       6.5609878790     3.5273968329     1.7692112382
   51      C       7.3397864373     2.6260078344    -0.3184110167
   52      C       6.4029403221    -2.0690874751     1.8258183067
   53      C       4.0392812896    -1.5013913151    -1.9424722935
   54      C       6.5474198215     2.3499083291    -1.4549149583
   55      C       2.8445424599    -0.9511804790     3.2780905272
   56      C       5.3782643470     0.5151688204    -2.4889030684
   57      C       1.4437373153    -0.0840718540     0.0456670433
   58      C       7.2137222053    -0.2882002120     3.2066656168
   59      C       5.4334385240     3.9004557787    -0.3390039963
   60      C       2.8609574397    -2.1220237524    -0.0179582555
   61      C       8.0062553375     1.5431512018     1.7493807326
   62      C       1.4126298475    -0.1991001012     1.4692659432
   63      C       2.9521355052     0.7736287524    -2.0830665170
   64      C       4.1716943020     2.2307143064     3.9975650316
   65      C       4.0803646381     0.8880369860     4.3502951066
   66      C       2.2301208189     1.7092226910    -1.4266796075
   67      C       6.3746769793    -1.4038434226     3.0499578143
   68      C       3.9991121028    -2.4714829112     2.1145998936
   69      C       6.5176983572     0.6693923962     3.9517516518
   70      C       6.5257415749    -2.0703495566    -0.4697391984
   71      C       4.2431186266     2.6489583884    -2.0112449549
   72      C       2.8048414861    -2.1872773260     1.3692255719
   73      C       1.4920824083     1.2967520531    -0.2798019866
   74      C       7.9411069668     0.1676767144     2.0541849719
   75      C       3.0472023083     3.5064107494    -0.1423081961
   76      C       8.0729619820     1.6012735963     0.3448192313
   77      C       4.1766599331     4.0649388331     1.7296784100
   78      C       4.1891601536     1.3027186359    -2.4437643327
   79      C       2.9909546799     2.9044532091    -1.3813712792
   80      C       6.4631028275    -1.1300162860    -1.4901331065
   81      C       7.1869371972    -1.7120426022     0.7252635109
   82      C       5.3097477498     2.8254462518     3.5290116590
   83      C       5.4386993514     3.1802813615    -1.5246397466
   84      C       1.4358312438     1.0997239818     1.9893339163
   85      C       5.2656642084     0.1327641396     4.2820539444
   86      C       2.9744606136     2.5204596821     3.2188210990
   87      C       7.9642675873    -0.5535854062     0.8387597216
   88      C       7.2400922712     2.4850120122     2.4807919505
   89      O       0.5542359820     7.3543616638    -3.1638094217
   90      C       1.7166602226     7.8624495985    -3.9180179708
   91      H       2.0595201051     7.0963354685    -4.6231514623
   92      H       2.5664952288     8.1430855298    -3.2839817445
   93      H       1.5296026681     8.7465118175    -4.5398776530
   94      O       1.1345237472     5.1413636758    -3.2736093075
   95      C       0.4845157024     6.0350909851    -2.8311084165
   96      C      -0.7018849886     5.9504883185    -1.8833685845
   97      H      -1.5490963718     6.4674741074    -2.3516287326
   98      H      -0.3996654066     6.4573843386    -0.9587369016
   99      C      -0.9635014012     4.4793663816    -1.5659995572
  100      H      -1.0533346448     3.8410816135    -2.4525781173
  101      H      -0.0804424875     4.0936891134    -1.0412148397
  102      C      -2.1220723911     4.3158209164    -0.5813335518
  103      H      -1.6391291546     3.6903621002     0.1798708225
  104      H      -2.3330953001     5.2723157458    -0.0853416433
  105      C      -3.5208144384     3.6865328769    -0.9296010472
  106      C      -4.3221469804     4.5783053840    -1.8177552864
  107      C      -5.3800860071     5.3379505620    -1.1992876484
  108      H      -5.5478365859     5.2922321533    -0.1276003944
  109      C      -6.2775738011     6.1221343525    -1.9893917190
  110      H      -7.0908903273     6.7669835281    -1.6693327103
  111      C      -6.2228256830     5.9529430245    -3.3892134713
  112      H      -6.8946115474     6.5710012603    -3.9764704590
  113      C      -5.1592421351     5.2784541914    -3.9549977504
  114      H      -5.0685670779     5.3899379315    -5.0311889089
  115      C      -4.1904740374     4.5225151808    -3.2358186451
  116      H      -3.4028996289     3.9849008054    -3.7564992903
  117      C      -7.9927810008     0.8605672885     0.3700695104
  118      C      -7.4267093968    -0.0650325797    -1.7606697565
  119      C      -5.9228237245    -4.1156537029    -0.1676548788
  120      C      -4.0388648018     0.5955816537     3.5592975212
  121      C      -2.5263811792    -3.1271694516    -0.2945639837
  122      C      -7.4763860860     1.0418568131    -0.9114500565
  123      C      -2.4864272376    -1.6407624789     2.9063422932
  124      C      -7.8980901579    -2.8296322182     0.4163539037
  125      C      -3.4661378373     0.2129283838    -2.3887745446
  126      C      -2.7935526869     0.7761186046     2.8581262541
  127      C      -3.4405451667     2.1983673330    -1.0400598993
  128      C      -2.4421651783     0.1642554427    -1.4585192364
  129      C      -1.5518332184    -0.1277957727     1.1976993331
  130      C      -2.3926952677    -2.7415474168     2.0468820915
  131      C      -5.6171152417     1.2556361784    -2.1066351093
  132      C      -4.1176699182    -4.1699891084     1.2203503083
  133      C      -4.2783245438     2.8279010835     0.0338479051
  134      C      -3.9488858674     2.5293447949     1.4880725442
  135      C      -3.5898077839    -3.9970558174    -0.0652529135
  136      C      -6.5496698620    -1.8981404467     3.6401494594
  137      C      -6.3045671699    -3.5546059076     2.2246181644
  138      C      -7.5353411957    -2.9318732874     1.8415654508
  139      C      -8.3647425340    -1.5443017447    -0.0919473197
  140      C      -5.1322594430     2.2600046921     2.1834457457
  141      C      -4.2039077910     1.3699524963    -2.0803581075
  142      C      -7.8527077813    -1.3601222944    -1.3918689874
  143      C      -2.1038154326    -0.3388010194     2.4707030334
  144      C      -6.2366158823     0.0793903193    -2.5275729140
  145      C      -1.9305759538    -1.1022239805    -0.9872493181
  146      C      -6.3181937407     0.5491582494     3.5189805791
  147      C      -7.0636072198    -3.3475764892    -0.5574643331
  148      C      -2.3390151509     1.2475395186    -0.6458479111
  149      C      -8.0667248715    -0.5768658141     2.2080298961
  150      C      -1.5163205737    -1.2740531713     0.3106571536
  151      C      -4.0794033012    -1.0123338702    -2.7222679921
  152      C      -4.3246304696    -2.9360512022     3.2816568294
  153      C      -3.6897165760    -1.7383068487     3.6235234865
  154      C      -3.6061993822    -2.2147899996    -2.2456514713
  155      C      -5.1656432929     1.3117186893     3.2291460735
  156      C      -2.8593873263     1.6786979788     1.7630033050
  157      C      -5.8697804809    -0.6837274519     3.9826177173
  158      C      -5.7294662563     2.5402074979    -0.0571308340
  159      C      -5.8516229449    -2.3344884946    -2.4247891126
  160      C      -2.0464837650     1.0910859617     0.7340150070
  161      C      -2.5208338630    -2.2585842200    -1.3993313451
  162      C      -7.4042238536     0.5872471244     2.6011691434
  163      C      -4.7340524949    -3.9552682536    -0.9006545181
  164      C      -8.3625176196    -0.4826213315     0.8275388141
  165      C      -5.5401023696    -4.1624405365     1.1717607985
  166      C      -5.4499482806    -1.0355210860    -2.7647746059
  167      C      -4.6876150692    -3.0627671562    -2.0597728713
  168      C      -6.3567711437     1.8866980416    -1.1251851251
  169      C      -6.2071471214     2.2778790774     1.2420499813
  170      C      -5.7330865713    -3.0102432162     3.3276672048
  171      C      -7.0598469916    -2.5293726520    -1.7434075617
  172      C      -1.8925728417    -2.5604142910     0.7777795150
  173      C      -4.4613487774    -0.6693890289     3.9644918726
  174      C      -3.5336178057    -3.4983967433     2.2599756374
  175      C      -7.3134225449     1.3789303003     1.4756453225
  176      C      -7.6388702943    -1.8086490025     2.7169784570
 ----------------------------------------------------------------

    9   -5804.2479289831      8.45E-06 Convergence criterion met
 Total energy in the final basis set = -5804.2479289831

                    Orbital Energies (a.u.)
 --------------------------------------------------------------

 Alpha MOs
 -- Occupied --
-19.191 -19.184 -19.145 -19.140 -10.319 -10.316 -10.247 -10.242
-10.242 -10.241 -10.238 -10.236 -10.235 -10.233 -10.233 -10.227
-10.226 -10.224 -10.224 -10.224 -10.223 -10.222 -10.222 -10.222
-10.222 -10.221 -10.221 -10.221 -10.221 -10.221 -10.221 -10.221
-10.221 -10.221 -10.220 -10.220 -10.219 -10.219 -10.219 -10.219
-10.218 -10.218 -10.218 -10.218 -10.218 -10.218 -10.218 -10.218
-10.217 -10.217 -10.217 -10.217 -10.217 -10.216 -10.216 -10.216
-10.216 -10.216 -10.216 -10.216 -10.216 -10.216 -10.216 -10.216
-10.215 -10.215 -10.215 -10.215 -10.215 -10.214 -10.214 -10.214
-10.214 -10.214 -10.214 -10.214 -10.214 -10.213 -10.213 -10.213
-10.213 -10.213 -10.213 -10.213 -10.213 -10.213 -10.213 -10.213
-10.212 -10.212 -10.212 -10.212 -10.212 -10.212 -10.212 -10.212
-10.211 -10.211 -10.211 -10.211 -10.211 -10.211 -10.211 -10.211
-10.210 -10.210 -10.210 -10.210 -10.210 -10.209 -10.209 -10.209
-10.209 -10.209 -10.209 -10.209 -10.209 -10.209 -10.209 -10.209
-10.208 -10.208 -10.208 -10.207 -10.207 -10.207 -10.207 -10.207
-10.207 -10.207 -10.206 -10.206 -10.205 -10.205 -10.204 -10.203
-10.203 -10.200 -10.199 -10.198 -10.197 -10.196 -10.196 -10.195
-10.193 -10.193 -10.191 -10.188  -1.096  -1.076  -1.022  -1.004
 -0.982  -0.981  -0.965  -0.963  -0.962  -0.962  -0.960  -0.957
 -0.934  -0.931  -0.926  -0.926  -0.926  -0.924  -0.923  -0.919
 -0.918  -0.916  -0.897  -0.894  -0.890  -0.890  -0.886  -0.880
 -0.871  -0.871  -0.853  -0.848  -0.843  -0.841  -0.837  -0.836
 -0.835  -0.834  -0.821  -0.816  -0.808  -0.806  -0.800  -0.799
 -0.795  -0.795  -0.793  -0.790  -0.789  -0.788  -0.783  -0.780
 -0.771  -0.770  -0.769  -0.766  -0.764  -0.763  -0.761  -0.759
 -0.751  -0.745  -0.744  -0.739  -0.732  -0.731  -0.715  -0.714
 -0.714  -0.713  -0.713  -0.712  -0.709  -0.709  -0.709  -0.707
 -0.707  -0.705  -0.704  -0.702  -0.700  -0.699  -0.672  -0.670
 -0.659  -0.657  -0.655  -0.654  -0.648  -0.645  -0.630  -0.630
 -0.626  -0.626  -0.623  -0.623  -0.621  -0.620  -0.617  -0.617
 -0.614  -0.612  -0.612  -0.611  -0.609  -0.607  -0.606  -0.605
 -0.605  -0.604  -0.601  -0.600  -0.566  -0.562  -0.561  -0.560
 -0.558  -0.557  -0.557  -0.556  -0.556  -0.553  -0.549  -0.547
 -0.536  -0.533  -0.532  -0.529  -0.528  -0.526  -0.526  -0.523
 -0.522  -0.522  -0.519  -0.518  -0.515  -0.514  -0.513  -0.512
 -0.505  -0.502  -0.501  -0.496  -0.495  -0.488  -0.487  -0.486
 -0.484  -0.483  -0.481  -0.479  -0.479  -0.477  -0.476  -0.473
 -0.473  -0.470  -0.469  -0.468  -0.468  -0.466  -0.466  -0.464
 -0.464  -0.463  -0.462  -0.462  -0.461  -0.460  -0.457  -0.456
 -0.455  -0.452  -0.452  -0.448  -0.444  -0.444  -0.442  -0.442
 -0.441  -0.441  -0.439  -0.439  -0.438  -0.436  -0.434  -0.432
 -0.431  -0.431  -0.427  -0.427  -0.426  -0.425  -0.424  -0.424
 -0.423  -0.422  -0.422  -0.421  -0.420  -0.419  -0.419  -0.417
 -0.416  -0.416  -0.416  -0.415  -0.414  -0.413  -0.412  -0.412
 -0.410  -0.409  -0.408  -0.405  -0.403  -0.398  -0.398  -0.396
 -0.393  -0.392  -0.390  -0.389  -0.386  -0.386  -0.385  -0.384
 -0.378  -0.377  -0.372  -0.372  -0.368  -0.367  -0.365  -0.364
 -0.363  -0.362  -0.361  -0.361  -0.359  -0.359  -0.359  -0.356
 -0.356  -0.355  -0.355  -0.352  -0.352  -0.351  -0.350  -0.349
 -0.349  -0.348  -0.347  -0.346  -0.345  -0.343  -0.342  -0.342
 -0.341  -0.341  -0.340  -0.338  -0.336  -0.335  -0.333  -0.332
 -0.331  -0.330  -0.329  -0.329  -0.325  -0.323  -0.321  -0.317
 -0.304  -0.303  -0.302  -0.295  -0.288  -0.283  -0.278  -0.274
 -0.271  -0.270  -0.269  -0.267  -0.266  -0.264  -0.263  -0.263
 -0.261  -0.261  -0.259  -0.258  -0.257  -0.254  -0.253  -0.251
 -0.249  -0.245  -0.244  -0.243  -0.220  -0.218  -0.213  -0.212
 -0.209  -0.208  -0.205  -0.203  -0.200  -0.197

          Ground-State Mulliken Net Atomic Charges

     Atom                 Charge (a.u.)
  ----------------------------------------
      1 O                    -0.506805
      2 C                    -0.086327
      3 H                     0.130060
      4 H                     0.125233
      5 H                     0.128845
      6 O                    -0.457218
      7 C                     0.604033
      8 C                    -0.256941
      9 H                     0.131462
     10 H                     0.139808
     11 C                    -0.195393
     12 H                     0.101775
     13 H                     0.143307
     14 C                    -0.171955
     15 H                     0.101512
     16 H                     0.117422
     17 C                     0.003812
     18 C                     0.100636
     19 C                    -0.110340
     20 H                     0.091747
     21 C                    -0.086554
     22 H                     0.090933
     23 C                    -0.100253
     24 H                     0.085641
     25 C                    -0.070069
     26 H                     0.105838
     27 C                    -0.119792
     28 H                     0.078787
     29 C                     0.028297
     30 C                    -0.018271
     31 C                     0.001940
     32 C                    -0.002993
     33 C                     0.033336
     34 C                    -0.006602
     35 C                    -0.000007
     36 C                     0.019000
     37 C                    -0.004707
     38 C                     0.007326
     39 C                    -0.070397
     40 C                    -0.006293
     41 C                    -0.001889
     42 C                    -0.010437
     43 C                     0.043063
     44 C                    -0.007233
     45 C                    -0.104328
     46 C                     0.017765
     47 C                    -0.050150
     48 C                    -0.005661
     49 C                     0.026442
     50 C                    -0.022691
     51 C                    -0.003827
     52 C                     0.037055
     53 C                     0.003526
     54 C                     0.007684
     55 C                     0.005767
     56 C                    -0.010516
     57 C                    -0.018626
     58 C                    -0.021243
     59 C                    -0.007946
     60 C                     0.074093
     61 C                     0.011095
     62 C                    -0.009009
     63 C                     0.044273
     64 C                    -0.040854
     65 C                     0.015387
     66 C                    -0.012018
     67 C                    -0.011671
     68 C                    -0.017906
     69 C                     0.004946
     70 C                    -0.010603
     71 C                    -0.019607
     72 C                    -0.042515
     73 C                     0.005419
     74 C                    -0.001635
     75 C                     0.016358
     76 C                    -0.022785
     77 C                     0.007033
     78 C                    -0.000404
     79 C                    -0.002918
     80 C                     0.027236
     81 C                     0.006149
     82 C                     0.020463
     83 C                     0.006174
     84 C                     0.003114
     85 C                     0.003301
     86 C                     0.005542
     87 C                    -0.024806
     88 C                    -0.014481
     89 O                    -0.478951
     90 C                    -0.104199
     91 H                     0.138038
     92 H                     0.124930
     93 H                     0.126093
     94 O                    -0.452215
     95 C                     0.609832
     96 C                    -0.269826
     97 H                     0.148031
     98 H                     0.136533
     99 C                    -0.185558
    100 H                     0.114664
    101 H                     0.124020
    102 C                    -0.187198
    103 H                     0.102465
    104 H                     0.099003
    105 C                     0.017120
    106 C                     0.062780
    107 C                    -0.113533
    108 H                     0.098190
    109 C                    -0.092044
    110 H                     0.095496
    111 C                    -0.075887
    112 H                     0.089013
    113 C                    -0.093105
    114 H                     0.084692
    115 C                    -0.099265
    116 H                     0.104691
    117 C                    -0.039978
    118 C                     0.015015
    119 C                    -0.003816
    120 C                    -0.016253
    121 C                     0.037714
    122 C                    -0.004815
    123 C                     0.000416
    124 C                    -0.017722
    125 C                    -0.021311
    126 C                    -0.031082
    127 C                    -0.102594
    128 C                     0.023676
    129 C                    -0.030112
    130 C                     0.000502
    131 C                    -0.001995
    132 C                    -0.030100
    133 C                    -0.087358
    134 C                     0.016874
    135 C                    -0.000578
    136 C                    -0.019483
    137 C                     0.025172
    138 C                    -0.017866
    139 C                    -0.018536
    140 C                    -0.017202
    141 C                     0.033666
    142 C                    -0.001858
    143 C                     0.021358
    144 C                    -0.015377
    145 C                     0.015697
    146 C                    -0.022248
    147 C                     0.019451
    148 C                     0.025944
    149 C                     0.008818
    150 C                    -0.012763
    151 C                    -0.005619
    152 C                     0.001378
    153 C                    -0.004237
    154 C                     0.014897
    155 C                     0.024010
    156 C                     0.024592
    157 C                    -0.002612
    158 C                     0.058256
    159 C                    -0.020784
    160 C                     0.003487
    161 C                     0.000159
    162 C                     0.013314
    163 C                    -0.021201
    164 C                     0.008767
    165 C                     0.007173
    166 C                     0.035886
    167 C                    -0.023866
    168 C                     0.015760
    169 C                    -0.010140
    170 C                    -0.004154
    171 C                    -0.018597
    172 C                     0.000164
    173 C                     0.020661
    174 C                     0.016231
    175 C                     0.015825
    176 C                    -0.000368
  ----------------------------------------
  Sum of atomic charges =     0.000000

                    Cartesian Multipole Moments
 -----------------------------------------------------------------
    Charge (ESU x 10^10)
                 0.0000
    Dipole Moment (Debye)
         X       0.2026      Y       2.9839      Z      -1.7857
       Tot       3.4833
    Quadrupole Moments (Debye-Ang)
        XX    -809.0572     XY     -14.2299     YY    -778.3877
        XZ       0.8122     YZ     -13.4852     ZZ    -801.9975

 Total job time:  865.92s(wall), 8295.27s(cpu)
        *  Thank you very much for using Q-Chem.  Have a nice day.  *
