 Q-Chem 4.4, Q-Chem, Inc., Pleasanton, CA (2016)
 Q-Chem 4.4.2 for Intel X86 Linux

User input:
--------------------------------------------------------------
$comment
SP
$end

$rem
MEM_STATIC 5000
MEM_TOTAL 20000
JOBTYPE SP
EXCHANGE B3LYP
BASIS 6-31g(d,p)
$end

$molecule
0 1
O          -9.246000     14.286000     10.883000
C         -10.355000     15.157000     11.255000
H          -9.977000     16.164000     11.465000
H         -11.012000     14.757000     12.037000
H         -11.006000     15.201000     10.373000
O          -8.647000     15.341000      8.942000
C          -8.428000     14.573000      9.845000
C          -7.187000     13.672000      9.901000
H          -7.601000     12.672000      9.724000
H          -6.798000     13.778000     10.921000
C          -6.137000     14.036000      8.804000
H          -6.275000     15.035000      8.373000
H          -5.207000     13.975000      9.384000
C          -6.058000     12.905000      7.765000
H          -5.008000     12.734000      7.494000
H          -6.257000     11.906000      8.171000
C          -6.700000     13.164000      6.394000
C          -6.026000     14.295000      5.692000
C          -6.531000     15.591000      5.789000
H          -7.364000     15.748000      6.467000
C          -5.912000     16.614000      5.121000
H          -6.228000     17.647000      5.234000
C          -4.759000     16.421000      4.298000
H          -4.307000     17.164000      3.648000
C          -4.308000     15.082000      4.132000
H          -3.411000     14.833000      3.573000
C          -4.898000     14.037000      4.893000
H          -4.448000     13.050000      4.845000
C         -11.570000     13.934000      3.948000
C         -10.270000     12.932000      2.213000
C         -12.338000      8.923000      2.209000
C         -11.443000     11.047000      8.112000
C          -9.845000      7.324000      4.176000
C         -10.355000     13.721000      3.342000
C         -11.209000      8.395000      7.350000
C         -13.307000     11.194000      2.387000
C          -7.489000     10.485000      3.801000
C         -10.154000     10.390000      8.133000
C          -7.278000     12.020000      5.617000
C          -7.362000      9.713000      4.894000
C          -8.812000      8.882000      7.179000
C         -11.182000      7.595000      6.293000
C          -8.297000     12.710000      3.409000
C         -12.293000      7.653000      4.110000
C          -8.154000     13.037000      6.331000
C          -9.084000     12.486000      7.362000
C         -11.054000      7.446000      3.497000
C         -14.114000     10.786000      5.795000
C         -13.938000      9.448000      3.966000
C         -14.098000     10.777000      3.493000
C         -12.674000     12.426000      2.370000
C         -10.417000     13.053000      7.255000
C          -7.443000     11.869000      4.137000
C         -11.431000     12.258000      1.729000
C         -10.043000      9.108000      7.735000
C          -9.000000     12.264000      2.288000
C          -8.007000      8.424000      4.867000
C         -12.761000     12.499000      6.989000
C         -12.479000     10.243000      1.720000
C          -7.346000     10.513000      6.050000
C         -13.435000     12.807000      4.683000
C          -8.767000      8.023000      6.075000
C          -8.164000     10.051000      2.675000
C         -13.206000      8.608000      6.158000
C         -12.489000      9.042000      7.296000
C          -8.718000      8.772000      2.588000
C         -11.547000     12.404000      7.700000
C          -9.034000     11.092000      7.684000
C         -13.338000     11.259000      6.950000
C          -9.168000     13.799000      5.483000
C         -10.044000     10.227000      1.399000
C          -8.194000     10.152000      7.090000
C          -8.647000      7.920000      3.756000
C         -12.816000     13.284000      5.797000
C         -11.080000      8.266000      2.323000
C         -12.703000     13.219000      3.539000
C         -13.081000      8.526000      3.335000
C          -8.933000     10.943000      1.898000
C          -9.912000      8.904000      1.878000
C          -9.167000     13.595000      4.102000
C         -10.430000     13.851000      6.100000
C         -14.056000      9.444000      5.394000
C         -11.293000     10.891000      1.355000
C          -9.935000      7.387000      5.613000
C         -12.561000     10.376000      7.665000
C         -12.382000      7.639000      5.545000
C         -11.641000     13.962000      5.327000
C         -14.096000     11.582000      4.597000
O           5.575000     10.909000      8.853000
C           6.953000     10.678000      8.680000
H           7.467000     11.643000      8.592000
H           7.115000     10.086000      7.771000
H           7.480000     10.264000      9.548000
O           5.802000     12.011000     10.820000
C           5.126000     11.622000      9.893000
C           3.597000     11.653000      9.935000
H           3.326000     12.348000     10.740000
H           3.380000     10.622000     10.239000
C           2.856000     12.025000      8.579000
H           3.257000     12.957000      8.161000
H           3.021000     11.239000      7.832000
C           1.376000     11.998000      8.937000
H           1.157000     11.276000      9.734000
H           1.072000     12.940000      9.411000
C           0.333000     11.786000      7.809000
C          -0.053000     13.018000      7.096000
C           0.729000     13.570000      6.145000
H           1.694000     13.146000      5.884000
C           0.409000     14.778000      5.481000
H           1.091000     15.268000      4.792000
C          -0.785000     15.507000      5.866000
H          -1.136000     16.409000      5.374000
C          -1.543000     14.962000      6.923000
H          -2.520000     15.326000      7.230000
C          -1.181000     13.726000      7.478000
H          -1.836000     13.323000      8.244000
C          -4.472000      9.317000      7.014000
C          -3.551000      9.226000      4.830000
C          -2.687000      4.781000      4.899000
C          -1.493000      7.331000     10.587000
C           0.680000      5.159000      5.839000
C          -3.757000      9.998000      6.031000
C           0.028000      5.269000      9.411000
C          -4.722000      6.065000      5.654000
C           0.572000      9.134000      5.174000
C          -0.157000      7.572000     10.226000
C           0.317000     10.367000      7.173000
C           1.374000      8.525000      6.216000
C           1.487000      7.080000      8.667000
C           0.247000      4.620000      8.173000
C          -1.631000     10.226000      5.467000
C          -1.328000      3.962000      6.514000
C          -0.727000     10.746000      8.174000
C          -0.781000      9.835000      9.369000
C          -0.506000      4.465000      5.459000
C          -4.027000      5.498000      9.016000
C          -3.678000      4.366000      7.090000
C          -4.680000      5.305000      6.885000
C          -4.974000      7.430000      5.662000
C          -2.128000      9.552000      9.726000
C          -0.242000     10.045000      5.828000
C          -4.103000      7.977000      4.696000
C           0.634000      6.541000      9.631000
C          -2.234000      9.433000      4.491000
C           1.553000      7.141000      6.231000
C          -3.669000      7.671000      9.966000
C          -3.705000      5.723000      4.715000
C           1.239000      9.232000      7.402000
C          -5.161000      7.404000      8.073000
C           1.638000      6.423000      7.453000
C          -0.079000      8.305000      4.233000
C          -1.944000      4.222000      8.742000
C          -1.327000      5.037000      9.763000
C           0.168000      6.914000      4.216000
C          -2.465000      8.321000     10.313000
C           0.159000      8.780000      9.538000
C          -3.462000      6.306000      9.983000
C          -2.194000     10.732000      7.784000
C          -2.030000      7.187000      3.660000
C           1.143000      8.495000      8.599000
C           0.993000      6.367000      5.175000
C          -4.543000      8.222000      9.067000
C          -1.353000      5.042000      4.487000
C          -5.160000      8.105000      6.820000
C          -2.694000      4.077000      6.118000
C          -1.432000      8.419000      3.857000
C          -0.995000      6.226000      3.860000
C          -2.562000     10.587000      6.412000
C          -2.994000     10.087000      8.772000
C          -3.312000      4.486000      8.444000
C          -3.374000      6.960000      4.014000
C           1.082000      5.184000      7.205000
C          -2.088000      6.081000     10.350000
C          -0.928000      3.994000      7.800000
C          -4.138000      9.400000      8.356000
C          -4.872000      6.006000      8.056000
$end

--------------------------------------------------------------

             Standard Nuclear Orientation (Angstroms)
    I     Atom           X                Y                Z
 ----------------------------------------------------------------
    1      O       3.5284476847    -4.3129468284     4.7568131716
    2      C       4.6759927333    -5.0430042857     5.2831804109
    3      H       4.4703393661    -6.1191405181     5.2572863634
    4      H       5.0446484078    -4.6842910275     6.2519893663
    5      H       5.5051307966    -4.8253693434     4.5984716378
    6      O       3.6092068156    -5.0955112850     2.6073067553
    7      C       3.0416670967    -4.5434037500     3.5163006701
    8      C       1.6653112814    -3.8805849498     3.3702393552
    9      H       1.8992030388    -2.8111499022     3.4360293603
   10      H       1.0847252223    -4.2253045093     4.2345571516
   11      C       0.9862482442    -4.2133023417     2.0040118746
   12      H       1.4160186963    -5.0854637895     1.4966286195
   13      H      -0.0437781128    -4.4070840993     2.3303787452
   14      C       0.9192978351    -2.9462567732     1.1350837014
   15      H      -0.0543520129    -2.9039503947     0.6297143872
   16      H       0.8163764474    -2.0147977871     1.7044951037
   17      C       1.8938315461    -2.8533308411    -0.0483582352
   18      C       1.6376206638    -3.9386101848    -1.0397036492
   19      C       2.3571593405    -5.1316896748    -0.9860806778
   20      H       3.0289586055    -5.2669515042    -0.1442897388
   21      C       2.1239781911    -6.1090829901    -1.9168023650
   22      H       2.6069546659    -7.0803905264    -1.8619444153
   23      C       1.1728246681    -5.9656597077    -2.9744997403
   24      H       1.0385073016    -6.6471019600    -3.8090345220
   25      C       0.5117528847    -4.7099582347    -3.0748785631
   26      H      -0.2664797368    -4.5166074512    -3.8070400625
   27      C       0.6918045348    -3.7321945679    -2.0595925860
   28      H       0.0756243861    -2.8387610605    -2.0923277665
   29      C       7.2441303817    -2.3794849588    -1.2493946414
   30      C       6.1970934110    -1.3149738192    -3.1134650842
   31      C       7.3639958079     2.9155281946    -2.0694763356
   32      C       5.5998857903    -0.3251585307     3.0825791177
   33      C       4.2212286705     3.7178290006    -0.6133626254
   34      C       6.1807000408    -2.2646987401    -2.1123952405
   35      C       5.0170479695     2.3450755945     2.6368731706
   36      C       8.7031705764     0.8371774654    -1.9463699343
   37      C       2.6954550298     0.3300844027    -1.9839403637
   38      C       4.2347051941     0.0990334976     2.8590750617
   39      C       2.3910696500    -1.5124050899    -0.4969353166
   40      C       2.1717417079     0.8678403108    -0.8689045169
   41      C       2.8690720237     1.5114342993     1.7982668703
   42      C       5.0701959471     3.3023421132     1.7210161378
   43      C       4.0011079525    -1.6301502169    -2.4420928295
   44      C       6.6353550885     3.8088934221    -0.0947086854
   45      C       3.2683693386    -2.4820181550     0.2787300497
   46      C       3.8104723352    -1.9757379040     1.5753667176
   47      C       5.5518419645     3.9151662986    -0.9713182827
   48      C       8.6181452962     0.7688319033     1.5778713437
   49      C       8.5961935389     2.3592329839    -0.0458908073
   50      C       9.1227077728     1.1775714896    -0.6307231546
   51      C       8.3510982195    -0.4592940431    -2.2840216531
   52      C       5.2190042932    -2.2903273824     1.7393733743
   53      C       2.8533660031    -1.0800467828    -1.8533181447
   54      C       7.2779480912    -0.3866451859    -3.1935407270
   55      C       3.9616913673     1.3953775038     2.6157549682
   56      C       4.8355764210    -0.8864484079    -3.2789536269
   57      C       2.5337762200     2.2293102080    -0.5629539799
   58      C       7.4020363730    -1.3238378023     2.1544358154
   59      C       7.8742201587     1.7423073835    -2.6733190636
   60      C       2.0551789929    -0.1137490675     0.1308391632
   61      C       8.6287718868    -1.1097487918     0.0769224280
   62      C       2.9038682985     2.5312764189     0.8404395005
   63      C       3.5067799675     1.0584451259    -2.8342929390
   64      C       7.2331936344     2.6722030308     1.9766247081
   65      C       6.3791206784     1.9348982950     2.8277593111
   66      C       3.7976886882     2.4058672607    -2.6103471713
   67      C       6.0648279547    -1.5538037562     2.5382734192
   68      C       3.4099602466    -0.6866239235     2.0520167068
   69      C       7.7118198302    -0.0189311739     2.4251808998
   70      C       4.5799314728    -2.9083476603    -0.3739505162
   71      C       5.6230213627     1.4171219087    -3.6000770619
   72      C       2.5552403078     0.1931018260     1.3905241279
   73      C       3.2942898310     3.0173133788    -1.3987811453
   74      C       7.8821717239    -1.8686369086     0.9244854186
   75      C       6.0072871356     3.3285074515    -2.1959623507
   76      C       8.2730723866    -1.4290258090    -1.2594323347
   77      C       7.7372695401     3.2251810741    -0.7495082243
   78      C       4.5948542284     0.4535368247    -3.4983218163
   79      C       5.1230382112     2.5964715253    -3.0031303892
   80      C       4.8509439624    -2.4688958811    -1.6709518131
   81      C       5.6533369998    -2.8610659255     0.5324721292
   82      C       8.3842767514     2.1325989048     1.3529845514
   83      C       6.9566963581     0.9836361314    -3.4097245270
   84      C       3.9940392626     3.4200000966     0.7782985823
   85      C       6.6319768989     0.5867777212     3.0265950483
   86      C       6.3922052884     3.5860186184     1.3047722886
   87      C       7.0049475932    -2.6362814909     0.0863872026
   88      C       9.0322748232     0.2025033894     0.3221194776
   89      O     -10.8150552704    -3.0943964635    -0.5314878774
   90      C     -12.1355650524    -3.0644278856    -1.0188581677
   91      H     -12.4117438804    -4.0698288949    -1.3595325951
   92      H     -12.2028537850    -2.3570172790    -1.8543409385
   93      H     -12.9176410248    -2.9001330381    -0.2679165079
   94      O     -11.2558456725    -4.5454581760     1.1523012210
   95      C     -10.4796244449    -3.8954337449     0.4870382317
   96      C      -9.0256746559    -3.6836799331     0.9133671357
   97      H      -8.8102547268    -4.4551497399     1.6636468112
   98      H      -9.0947533952    -2.7003758477     1.3937911186
   99      C      -7.9374972268    -3.6869655703    -0.2451060350
  100      H      -8.0378292867    -4.5841910632    -0.8688599068
  101      H      -8.0833057977    -2.8200021628    -0.9009599142
  102      C      -6.6134969968    -3.4821465071     0.4790248525
  103      H      -6.7303374542    -2.8847798635     1.3922364383
  104      H      -6.2420291800    -4.4301855821     0.8885240263
  105      C      -5.4064150540    -2.9090212117    -0.3081584673
  106      C      -4.6296009910    -3.9176864526    -1.0527008390
  107      C      -5.0485764976    -4.4148078702    -2.2350539255
  108      H      -5.9942802458    -4.1147329514    -2.6763264759
  109      C      -4.3505869334    -5.4194957315    -2.9463716250
  110      H      -4.7460718162    -5.8859391334    -3.8441284186
  111      C      -3.1534883364    -6.0000907556    -2.3674360785
  112      H      -2.5263682199    -6.7326809288    -2.8663358657
  113      C      -2.7799999128    -5.5322168184    -1.0905498752
  114      H      -1.8453297981    -5.7801208865    -0.5943550044
  115      C      -3.4989416639    -4.4881225689    -0.4907541127
  116      H      -3.1291689859    -4.1240239448     0.4626033012
  117      C      -1.1425172391     0.4105604825     0.4764202732
  118      C      -1.5436846194     0.7307854450    -1.8393730480
  119      C      -3.2752642344     4.8940125617    -1.4169348724
  120      C      -5.1900894415     1.2285488179     3.3975536747
  121      C      -6.6213482588     3.8138091426    -1.4243696192
  122      C      -1.4644847561    -0.1953039463    -0.7362380513
  123      C      -6.7872535119     3.1885385156     2.1502492542
  124      C      -1.2490381985     3.8468677137    -0.3409229215
  125      C      -5.5696082563     0.0879763229    -2.5497703331
  126      C      -6.3331997952     0.8399291319     2.6795206260
  127      C      -5.5319674953    -1.4173258754    -0.7293408604
  128      C      -6.6923587203     0.3663649459    -1.6769701439
  129      C      -7.6455721738     1.3223807704     0.8301423098
  130      C      -6.8457626451     3.9995467790     0.9923855843
  131      C      -3.3171312470    -0.6645532174    -1.8486507900
  132      C      -5.1008772886     5.1853157988    -0.1099741229
  133      C      -4.6876859900    -1.7902522864     0.4469637905
  134      C      -5.0899156282    -1.1058662736     1.7239481693
  135      C      -5.5442483156     4.7474433397    -1.3958231973
  136      C      -2.7870746214     3.6961569390     2.7766543789
  137      C      -2.9105658275     5.0753000465     0.9890819438
  138      C      -1.7206011608     4.3626895950     0.9264685569
  139      C      -0.7366048944     2.5611199973    -0.4460795597
  140      C      -3.9438481476    -0.6739720383     2.4464048804
  141      C      -4.7590865196    -0.7783215656    -1.8336589711
  142      C      -1.2380085580     2.0569715650    -1.6648636770
  143      C      -7.1592642764     1.8161772739     2.0413795459
  144      C      -2.6804984438     0.3744288694    -2.5270672531
  145      C      -7.1442445798     1.6784368855    -1.5286852987
  146      C      -2.9072296300     1.3616676298     3.3136045061
  147      C      -2.0742065749     4.1774240267    -1.4557339703
  148      C      -6.6904789247    -0.5055575437    -0.5978882941
  149      C      -1.1099188035     2.1951720283     1.9151245418
  150      C      -7.6463171563     2.1480424067    -0.2863380113
  151      C      -4.9023872149     1.1636163905    -3.1777333311
  152      C      -4.9664332384     4.6435860960     2.1482317416
  153      C      -5.6221884332     3.5730898933     2.8633387298
  154      C      -5.4132362635     2.4769991741    -3.0765507579
  155      C      -4.0028417997     0.4735954465     3.2545556194
  156      C      -6.2359238089    -0.2642182348     1.7829382399
  157      C      -3.3824396752     2.6503771920     3.4541963877
  158      C      -3.2039733669    -1.4693535925     0.4493887332
  159      C      -3.1375901773     2.6673926852    -3.0839129106
  160      C      -7.0181961177     0.0163692899     0.6691507036
  161      C      -6.5266513141     2.7059532441    -2.2971907904
  162      C      -1.7599066803     1.1263219963     2.6037168518
  163      C      -4.4008964556     4.4952184096    -2.1859188300
  164      C      -0.6861991087     1.7334788060     0.6233381862
  165      C      -3.6861636883     5.3655431212    -0.1558057869
  166      C      -3.5047961699     1.3391980420    -3.2075888929
  167      C      -4.3622904384     3.3968612670    -3.0316552918
  168      C      -2.5714714277    -1.0286244832    -0.7524981788
  169      C      -2.7948996703    -0.8854662477     1.6838535077
  170      C      -3.5421025890     4.6623201076     2.1774761919
  171      C      -1.9824581147     3.0449464444    -2.3723624368
  172      C      -7.3089892811     3.4851084486    -0.2213356720
  173      C      -4.8202930538     2.5807283814     3.4844735220
  174      C      -5.7670791777     4.8641356430     1.0160091587
  175      C      -1.7482657478     0.0408218700     1.6662820730
  176      C      -1.6622022472     3.5085065660     2.0064995378
 ----------------------------------------------------------------

    9   -5804.3022070709      8.50E-06 Convergence criterion met
 Total energy in the final basis set = -5804.3022070709

                    Orbital Energies (a.u.)
 --------------------------------------------------------------

 Alpha MOs
 -- Occupied --
-19.198 -19.193 -19.142 -19.133 -10.319 -10.315 -10.252 -10.246
-10.242 -10.242 -10.240 -10.239 -10.234 -10.233 -10.233 -10.231
-10.229 -10.227 -10.227 -10.226 -10.226 -10.226 -10.225 -10.224
-10.224 -10.224 -10.224 -10.224 -10.224 -10.223 -10.223 -10.223
-10.222 -10.222 -10.222 -10.222 -10.221 -10.221 -10.221 -10.221
-10.221 -10.221 -10.220 -10.220 -10.220 -10.220 -10.219 -10.219
-10.218 -10.218 -10.218 -10.218 -10.218 -10.218 -10.218 -10.218
-10.218 -10.218 -10.218 -10.218 -10.218 -10.218 -10.217 -10.217
-10.217 -10.217 -10.217 -10.217 -10.217 -10.216 -10.216 -10.216
-10.216 -10.216 -10.216 -10.215 -10.215 -10.215 -10.215 -10.215
-10.215 -10.215 -10.215 -10.215 -10.214 -10.214 -10.214 -10.214
-10.214 -10.214 -10.213 -10.213 -10.213 -10.213 -10.213 -10.213
-10.213 -10.213 -10.212 -10.212 -10.212 -10.212 -10.211 -10.211
-10.211 -10.211 -10.211 -10.211 -10.210 -10.210 -10.210 -10.210
-10.209 -10.209 -10.209 -10.209 -10.209 -10.209 -10.209 -10.208
-10.207 -10.207 -10.207 -10.207 -10.206 -10.206 -10.206 -10.206
-10.206 -10.205 -10.204 -10.204 -10.204 -10.204 -10.204 -10.202
-10.201 -10.201 -10.200 -10.199 -10.199 -10.198 -10.197 -10.197
-10.197 -10.197 -10.196 -10.191  -1.109  -1.097  -1.021  -1.017
 -0.985  -0.978  -0.967  -0.966  -0.962  -0.961  -0.959  -0.957
 -0.937  -0.931  -0.930  -0.926  -0.926  -0.923  -0.922  -0.920
 -0.918  -0.916  -0.898  -0.895  -0.889  -0.888  -0.886  -0.880
 -0.878  -0.873  -0.857  -0.850  -0.847  -0.842  -0.840  -0.839
 -0.834  -0.832  -0.823  -0.816  -0.806  -0.802  -0.801  -0.798
 -0.796  -0.796  -0.793  -0.791  -0.790  -0.789  -0.785  -0.780
 -0.774  -0.773  -0.770  -0.767  -0.766  -0.766  -0.761  -0.759
 -0.752  -0.749  -0.748  -0.744  -0.736  -0.733  -0.720  -0.717
 -0.716  -0.714  -0.713  -0.713  -0.712  -0.712  -0.710  -0.707
 -0.705  -0.704  -0.703  -0.703  -0.702  -0.700  -0.675  -0.670
 -0.664  -0.660  -0.654  -0.653  -0.652  -0.645  -0.632  -0.631
 -0.629  -0.628  -0.627  -0.626  -0.623  -0.622  -0.620  -0.619
 -0.618  -0.615  -0.614  -0.611  -0.611  -0.610  -0.609  -0.606
 -0.605  -0.603  -0.602  -0.599  -0.578  -0.570  -0.565  -0.564
 -0.563  -0.561  -0.557  -0.557  -0.555  -0.554  -0.553  -0.550
 -0.540  -0.538  -0.536  -0.530  -0.529  -0.528  -0.526  -0.525
 -0.524  -0.522  -0.519  -0.518  -0.517  -0.517  -0.512  -0.508
 -0.507  -0.504  -0.501  -0.497  -0.495  -0.495  -0.490  -0.488
 -0.487  -0.485  -0.483  -0.481  -0.479  -0.478  -0.477  -0.476
 -0.475  -0.473  -0.473  -0.472  -0.469  -0.469  -0.468  -0.467
 -0.465  -0.464  -0.462  -0.461  -0.460  -0.459  -0.458  -0.457
 -0.456  -0.455  -0.452  -0.451  -0.449  -0.449  -0.449  -0.445
 -0.444  -0.442  -0.440  -0.439  -0.437  -0.436  -0.434  -0.434
 -0.431  -0.429  -0.428  -0.427  -0.426  -0.425  -0.425  -0.424
 -0.423  -0.423  -0.421  -0.421  -0.420  -0.419  -0.419  -0.418
 -0.418  -0.417  -0.416  -0.414  -0.414  -0.413  -0.412  -0.411
 -0.409  -0.408  -0.408  -0.407  -0.406  -0.402  -0.399  -0.399
 -0.397  -0.393  -0.392  -0.391  -0.389  -0.388  -0.386  -0.382
 -0.382  -0.380  -0.379  -0.372  -0.371  -0.370  -0.366  -0.365
 -0.365  -0.364  -0.362  -0.362  -0.361  -0.359  -0.359  -0.358
 -0.357  -0.357  -0.355  -0.355  -0.353  -0.353  -0.352  -0.351
 -0.351  -0.350  -0.348  -0.347  -0.346  -0.345  -0.344  -0.343
 -0.343  -0.341  -0.341  -0.339  -0.339  -0.338  -0.336  -0.335
 -0.333  -0.331  -0.330  -0.328  -0.328  -0.323  -0.323  -0.321
 -0.313  -0.312  -0.302  -0.301  -0.291  -0.281  -0.275  -0.275
 -0.273  -0.272  -0.269  -0.268  -0.268  -0.266  -0.264  -0.264
 -0.262  -0.261  -0.261  -0.259  -0.257  -0.253  -0.252  -0.251
 -0.250  -0.246  -0.245  -0.242  -0.226  -0.219  -0.216  -0.216
 -0.210  -0.208  -0.205  -0.202  -0.201  -0.197

          Ground-State Mulliken Net Atomic Charges

     Atom                 Charge (a.u.)
  ----------------------------------------
      1 O                    -0.471718
      2 C                    -0.090920
      3 H                     0.129369
      4 H                     0.133404
      5 H                     0.134952
      6 O                    -0.473146
      7 C                     0.604475
      8 C                    -0.265660
      9 H                     0.143490
     10 H                     0.125305
     11 C                    -0.171915
     12 H                     0.132976
     13 H                     0.098815
     14 C                    -0.205458
     15 H                     0.106632
     16 H                     0.107948
     17 C                     0.020359
     18 C                     0.080519
     19 C                    -0.106427
     20 H                     0.128956
     21 C                    -0.109184
     22 H                     0.089704
     23 C                    -0.094101
     24 H                     0.093967
     25 C                    -0.096547
     26 H                     0.092894
     27 C                    -0.105317
     28 H                     0.094708
     29 C                    -0.001022
     30 C                    -0.015514
     31 C                    -0.001474
     32 C                    -0.024801
     33 C                     0.003022
     34 C                     0.022964
     35 C                     0.017141
     36 C                    -0.002684
     37 C                     0.028285
     38 C                    -0.014638
     39 C                    -0.093497
     40 C                     0.013758
     41 C                    -0.027313
     42 C                     0.014257
     43 C                     0.001274
     44 C                     0.001135
     45 C                    -0.057381
     46 C                     0.003306
     47 C                     0.009882
     48 C                    -0.020774
     49 C                    -0.002781
     50 C                    -0.001174
     51 C                     0.000718
     52 C                     0.033370
     53 C                     0.023060
     54 C                    -0.008706
     55 C                     0.033597
     56 C                    -0.012956
     57 C                     0.001020
     58 C                    -0.023866
     59 C                    -0.008148
     60 C                    -0.004289
     61 C                     0.034458
     62 C                    -0.027354
     63 C                     0.018704
     64 C                     0.017604
     65 C                    -0.027628
     66 C                    -0.024394
     67 C                    -0.021009
     68 C                     0.013071
     69 C                     0.022820
     70 C                     0.006060
     71 C                     0.000340
     72 C                     0.009381
     73 C                    -0.006192
     74 C                    -0.011912
     75 C                    -0.010818
     76 C                    -0.018487
     77 C                     0.010780
     78 C                    -0.005452
     79 C                    -0.002236
     80 C                     0.022602
     81 C                     0.017421
     82 C                    -0.012651
     83 C                     0.005669
     84 C                     0.000270
     85 C                     0.013874
     86 C                    -0.033655
     87 C                    -0.022084
     88 C                     0.007470
     89 O                    -0.435293
     90 C                    -0.090767
     91 H                     0.121358
     92 H                     0.124081
     93 H                     0.130797
     94 O                    -0.471996
     95 C                     0.569632
     96 C                    -0.259440
     97 H                     0.133589
     98 H                     0.142137
     99 C                    -0.181016
    100 H                     0.112300
    101 H                     0.121885
    102 C                    -0.185718
    103 H                     0.114178
    104 H                     0.114583
    105 C                    -0.004150
    106 C                     0.144716
    107 C                    -0.127639
    108 H                     0.087984
    109 C                    -0.100472
    110 H                     0.094114
    111 C                    -0.097595
    112 H                     0.097508
    113 C                    -0.084731
    114 H                     0.103020
    115 C                    -0.122910
    116 H                     0.085784
    117 C                     0.057145
    118 C                    -0.010130
    119 C                     0.012536
    120 C                    -0.005286
    121 C                    -0.019889
    122 C                    -0.057556
    123 C                     0.004136
    124 C                    -0.010503
    125 C                    -0.025973
    126 C                    -0.019346
    127 C                    -0.069765
    128 C                    -0.015638
    129 C                    -0.023516
    130 C                     0.001887
    131 C                     0.024857
    132 C                    -0.000960
    133 C                    -0.092190
    134 C                     0.015914
    135 C                    -0.022228
    136 C                     0.031092
    137 C                    -0.004010
    138 C                    -0.018642
    139 C                     0.033706
    140 C                    -0.006997
    141 C                     0.052373
    142 C                     0.017103
    143 C                     0.000993
    144 C                    -0.022558
    145 C                     0.000538
    146 C                     0.029290
    147 C                    -0.010037
    148 C                     0.024476
    149 C                    -0.027403
    150 C                     0.021343
    151 C                     0.007754
    152 C                    -0.023035
    153 C                    -0.019359
    154 C                     0.008207
    155 C                     0.005390
    156 C                     0.030286
    157 C                    -0.011105
    158 C                     0.009115
    159 C                     0.005998
    160 C                    -0.010672
    161 C                     0.008598
    162 C                    -0.025912
    163 C                     0.013286
    164 C                     0.004599
    165 C                     0.002308
    166 C                    -0.006670
    167 C                    -0.003855
    168 C                     0.009625
    169 C                    -0.012093
    170 C                     0.005706
    171 C                    -0.020661
    172 C                     0.004554
    173 C                    -0.004842
    174 C                     0.029746
    175 C                    -0.013130
    176 C                     0.014959
  ----------------------------------------
  Sum of atomic charges =     0.000000

                    Cartesian Multipole Moments
 -----------------------------------------------------------------
    Charge (ESU x 10^10)
                 0.0000
    Dipole Moment (Debye)
         X      -2.3348      Y      -2.7370      Z      -0.0327
       Tot       3.5977
    Quadrupole Moments (Debye-Ang)
        XX    -826.5573     XY     -14.5987     YY    -800.3756
        XZ      33.0185     YZ       1.7451     ZZ    -794.4740

 Total job time:  880.11s(wall), 8406.72s(cpu)
        *  Thank you very much for using Q-Chem.  Have a nice day.  *
