 Q-Chem 4.4, Q-Chem, Inc., Pleasanton, CA (2016)
 Q-Chem 4.4.2 for Intel X86 Linux

User input:
--------------------------------------------------------------
$comment
SP
$end

$rem
MEM_STATIC 5000
MEM_TOTAL 20000
JOBTYPE SP
EXCHANGE B3LYP
BASIS 6-31g(d,p)
$end

$molecule
0 1
O         -10.519000      6.900000     -1.511000
C         -11.064000      7.939000     -2.343000
H         -10.225000      8.344000     -2.923000
H         -11.681000      8.676000     -1.813000
H         -11.662000      7.468000     -3.133000
O         -12.318000      6.782000     -0.120000
C         -11.196000      6.473000     -0.390000
C         -10.469000      5.413000      0.366000
H          -9.973000      5.929000      1.198000
H          -9.841000      5.018000     -0.442000
C         -11.287000      4.332000      1.050000
H         -11.628000      4.739000      2.010000
H         -12.146000      4.064000      0.422000
C         -10.410000      3.225000      1.498000
H          -9.844000      2.748000      0.689000
H          -9.538000      3.573000      2.065000
C         -11.129000      2.184000      2.334000
C         -12.272000      1.517000      1.526000
C         -11.981000      0.551000      0.616000
H         -10.932000      0.325000      0.451000
C         -12.975000     -0.199000      0.052000
H         -12.616000     -0.996000     -0.593000
C         -14.322000     -0.021000      0.470000
H         -15.146000     -0.703000      0.282000
C         -14.684000      1.089000      1.247000
H         -15.728000      1.296000      1.464000
C         -13.587000      1.768000      1.823000
H         -13.938000      2.614000      2.406000
C         -13.650000      1.365000      7.180000
C         -12.772000     -0.801000      6.488000
C          -9.391000     -1.091000      9.544000
C          -9.762000      4.663000      6.964000
C          -6.895000     -0.177000      7.244000
C         -13.287000      0.443000      6.173000
C          -7.388000      3.340000      7.622000
C         -11.657000     -0.220000      9.776000
C          -9.467000     -0.596000      4.251000
C          -8.900000      4.186000      5.961000
C         -10.390000      1.410000      3.385000
C          -8.418000      0.297000      4.147000
C          -7.465000      2.586000      5.357000
C          -6.789000      2.116000      8.014000
C         -11.842000     -0.224000      4.520000
C          -7.677000      0.409000      9.436000
C         -11.361000      2.466000      3.799000
C         -10.834000      3.632000      4.492000
C          -7.418000     -0.565000      8.461000
C         -10.623000      3.210000      9.935000
C          -9.757000      1.123000     10.419000
C         -11.182000      0.941000     10.298000
C         -12.723000     -0.136000      8.849000
C         -11.656000      3.965000      5.614000
C         -10.673000      0.016000      3.804000
C         -12.435000     -1.098000      7.837000
C          -7.706000      3.566000      6.315000
C         -11.845000     -1.163000      5.451000
C          -7.366000      0.249000      5.079000
C         -11.738000      4.271000      8.017000
C         -10.804000     -1.205000      9.365000
C          -8.891000      1.515000      3.682000
C         -12.820000      2.285000      9.071000
C          -6.869000      1.424000      5.723000
C          -9.487000     -1.644000      5.196000
C          -8.288000      2.752000      9.542000
C          -8.206000      3.790000      8.672000
C          -8.435000     -1.690000      6.126000
C         -11.138000      4.545000      6.771000
C          -9.426000      3.610000      4.785000
C         -10.688000      4.223000      8.981000
C         -12.551000      2.138000      4.642000
C         -10.360000     -2.147000      7.181000
C          -8.520000      2.662000      4.388000
C          -7.415000     -0.737000      6.094000
C         -12.798000      3.334000      8.043000
C          -8.469000     -1.488000      8.532000
C         -13.283000      1.118000      8.494000
C          -8.881000      0.054000     10.085000
C         -10.715000     -1.932000      5.823000
C          -8.994000     -2.036000      7.365000
C         -12.708000      0.818000      4.983000
C         -12.698000      3.035000      5.703000
C          -9.496000      2.511000     10.217000
C         -11.230000     -1.720000      8.114000
C          -6.561000      1.144000      7.051000
C          -9.451000      4.415000      8.323000
C          -7.366000      1.755000      9.223000
C         -13.332000      2.719000      6.884000
C         -11.698000      2.251000      9.983000
O           5.575000     10.909000      8.853000
C           6.953000     10.678000      8.680000
H           7.467000     11.643000      8.592000
H           7.115000     10.086000      7.771000
H           7.480000     10.264000      9.548000
O           5.802000     12.011000     10.820000
C           5.126000     11.622000      9.893000
C           3.597000     11.653000      9.935000
H           3.326000     12.348000     10.740000
H           3.380000     10.622000     10.239000
C           2.856000     12.025000      8.579000
H           3.257000     12.957000      8.161000
H           3.021000     11.239000      7.832000
C           1.376000     11.998000      8.937000
H           1.157000     11.276000      9.734000
H           1.072000     12.940000      9.411000
C           0.333000     11.786000      7.809000
C          -0.053000     13.018000      7.096000
C           0.729000     13.570000      6.145000
H           1.694000     13.146000      5.884000
C           0.409000     14.778000      5.481000
H           1.091000     15.268000      4.792000
C          -0.785000     15.507000      5.866000
H          -1.136000     16.409000      5.374000
C          -1.543000     14.962000      6.923000
H          -2.520000     15.326000      7.230000
C          -1.181000     13.726000      7.478000
H          -1.836000     13.323000      8.244000
C          -4.472000      9.317000      7.014000
C          -3.551000      9.226000      4.830000
C          -2.687000      4.781000      4.899000
C          -1.493000      7.331000     10.587000
C           0.680000      5.159000      5.839000
C          -3.757000      9.998000      6.031000
C           0.028000      5.269000      9.411000
C          -4.722000      6.065000      5.654000
C           0.572000      9.134000      5.174000
C          -0.157000      7.572000     10.226000
C           0.317000     10.367000      7.173000
C           1.374000      8.525000      6.216000
C           1.487000      7.080000      8.667000
C           0.247000      4.620000      8.173000
C          -1.631000     10.226000      5.467000
C          -1.328000      3.962000      6.514000
C          -0.727000     10.746000      8.174000
C          -0.781000      9.835000      9.369000
C          -0.506000      4.465000      5.459000
C          -4.027000      5.498000      9.016000
C          -3.678000      4.366000      7.090000
C          -4.680000      5.305000      6.885000
C          -4.974000      7.430000      5.662000
C          -2.128000      9.552000      9.726000
C          -0.242000     10.045000      5.828000
C          -4.103000      7.977000      4.696000
C           0.634000      6.541000      9.631000
C          -2.234000      9.433000      4.491000
C           1.553000      7.141000      6.231000
C          -3.669000      7.671000      9.966000
C          -3.705000      5.723000      4.715000
C           1.239000      9.232000      7.402000
C          -5.161000      7.404000      8.073000
C           1.638000      6.423000      7.453000
C          -0.079000      8.305000      4.233000
C          -1.944000      4.222000      8.742000
C          -1.327000      5.037000      9.763000
C           0.168000      6.914000      4.216000
C          -2.465000      8.321000     10.313000
C           0.159000      8.780000      9.538000
C          -3.462000      6.306000      9.983000
C          -2.194000     10.732000      7.784000
C          -2.030000      7.187000      3.660000
C           1.143000      8.495000      8.599000
C           0.993000      6.367000      5.175000
C          -4.543000      8.222000      9.067000
C          -1.353000      5.042000      4.487000
C          -5.160000      8.105000      6.820000
C          -2.694000      4.077000      6.118000
C          -1.432000      8.419000      3.857000
C          -0.995000      6.226000      3.860000
C          -2.562000     10.587000      6.412000
C          -2.994000     10.087000      8.772000
C          -3.312000      4.486000      8.444000
C          -3.374000      6.960000      4.014000
C           1.082000      5.184000      7.205000
C          -2.088000      6.081000     10.350000
C          -0.928000      3.994000      7.800000
C          -4.138000      9.400000      8.356000
C          -4.872000      6.006000      8.056000
$end

--------------------------------------------------------------

             Standard Nuclear Orientation (Angstroms)
    I     Atom           X                Y                Z
 ----------------------------------------------------------------
    1      O       4.1573150454    -8.5161167339    -0.6034312581
    2      C       4.1299316126    -9.8693093486    -0.1167178979
    3      H       3.3202582010   -10.3767190254    -0.6564496705
    4      H       4.1109204671    -9.9641839040     0.9766234921
    5      H       5.0098387379   -10.3934575841    -0.5098808133
    6      O       5.4359979352    -7.7084175702     1.0988607639
    7      C       4.7613120888    -7.5196913654     0.1311591424
    8      C       4.6677266271    -6.1777455128    -0.5123376255
    9      H       3.8365269781    -5.6655226846    -0.0111082193
   10      H       4.5261210506    -6.4902117697    -1.5542520649
   11      C       5.8338185129    -5.2198424110    -0.3444318139
   12      H       5.7139943026    -4.7271050771     0.6283898955
   13      H       6.7786867624    -5.7768651084    -0.3766607712
   14      C       5.6979527857    -4.0717706488    -1.2711214776
   15      H       5.6534431500    -4.3547704492    -2.3295618422
   16      H       4.7065122416    -3.6044699821    -1.2304676407
   17      C       6.7368168196    -2.9894852614    -1.0498572481
   18      C       8.1687449151    -3.5423610052    -1.2692025040
   19      C       8.6430899516    -3.7066558066    -2.5317162681
   20      H       7.9616358490    -3.4923599299    -3.3492733507
   21      C       9.9637105610    -3.9834218432    -2.7507910661
   22      H      10.2425955414    -4.0066449432    -3.8004571346
   23      C      10.8696957567    -4.0302802720    -1.6563450360
   24      H      11.9533651124    -3.9991480657    -1.7206529920
   25      C      10.3908326584    -4.0669954536    -0.3386898730
   26      H      11.0707213452    -4.2275738645     0.4930792941
   27      C       9.0268515954    -3.7200859001    -0.2144505015
   28      H       8.7234553698    -3.7719380003     0.8267354041
   29      C       8.4305528620     0.8580015076     2.5331612811
   30      C       9.0924303571     1.6403791469     0.3215764623
   31      C       6.0539962360     5.0281831053    -0.0593427296
   32      C       3.4521879875    -0.2328177908     2.2762557825
   33      C       3.9074786004     3.2045865016    -2.1622857785
   34      C       8.8378296975     0.6066429454     1.2039335157
   35      C       2.2092150174     1.5281365421     0.4949003903
   36      C       7.3254539556     4.2592161899     1.8743858321
   37      C       6.6978494388     0.4229912633    -2.6369988648
   38      C       3.2027746433    -0.6098582337     0.9450099419
   39      C       6.4200875220    -1.5566249993    -1.3603278929
   40      C       5.3603307638     0.0896281521    -2.7296208400
   41      C       3.0779242333     0.0634860827    -1.1798573026
   42      C       2.3724435359     2.6323934465    -0.3795217844
   43      C       8.3385109779    -0.0730388774    -0.9300853305
   44      C       3.8347989336     4.5122489335    -0.1511864199
   45      C       6.5190833156    -1.9936876216     0.0639435338
   46      C       5.3106304598    -1.9353467949     0.8725052466
   47      C       4.3500270778     4.2921531586    -1.4366745798
   48      C       4.4920314498     2.7828120430     3.5026624359
   49      C       4.9248544830     4.4811759128     1.9966725994
   50      C       6.1895487676     4.1691979919     2.6144169990
   51      C       8.2817416811     3.2248855905     2.0100877004
   52      C       5.5916546507    -1.3754846710     2.1582100363
   53      C       7.3824811919    -0.5315974652    -1.8314998133
   54      C       8.7729202504     2.9744685937     0.6953379368
   55      C       2.5476256768     0.2704088782     0.0898715652
   56      C       8.7302144329     1.1883103107    -0.9937848536
   57      C       4.3936353791     1.1057727554    -2.8324905568
   58      C       5.0861166662     0.4064992038     3.7214546800
   59      C       7.2793537645     4.6351238300     0.5616317734
   60      C       5.1117710556    -1.0436281778    -1.9697352157
   61      C       6.9251262032     2.0924307124     3.6825333330
   62      C       3.2120246540     1.1127427479    -2.0286762042
   63      C       7.1637826774     1.7502775601    -2.7507806892
   64      C       2.9533696405     3.2147451573     1.6964532506
   65      C       2.4313091893     1.9675736022     1.8108385534
   66      C       6.1962609014     2.7637202711    -2.8535205760
   67      C       4.6525593894    -0.6271221666     2.8663248944
   68      C       4.1490780155    -1.3776214364     0.2333375506
   69      C       4.1157680943     1.4483520163     3.6373929987
   70      C       7.5218688073    -1.3889559858     0.9929504801
   71      C       7.8265976103     3.4504838487    -1.4758932664
   72      C       4.0369269843    -0.9984911995    -1.0784670879
   73      C       4.8354775173     2.4508283283    -2.8530582637
   74      C       6.4706405231     0.6972356969     3.7499324093
   75      C       5.7118828143     4.6141386917    -1.3797073119
   76      C       8.0639258621     2.1433311871     2.9016802875
   77      C       4.8962157473     4.9698524654     0.6617313835
   78      C       8.2093244394     2.1489061755    -1.8952138298
   79      C       6.6397432792     3.8389954308    -2.0696680953
   80      C       8.3535642809    -0.4397292200     0.4538946515
   81      C       6.9473986408    -1.0330958107     2.2157695851
   82      C       3.9479002682     3.6318485889     2.5963996700
   83      C       8.1227675242     3.7952905996    -0.2097535874
   84      C       2.9093418359     2.4142832330    -1.6398015749
   85      C       3.1235418887     1.0776161359     2.7003556123
   86      C       2.8439075625     3.6872485896     0.3885493703
   87      C       7.4430684806    -0.0375564608     3.0280415917
   88      C       5.8976430312     3.1000030159     3.5381020884
   89      O     -12.7309645988     1.3151147660    -1.3998676062
   90      C     -13.6713621467     1.5971860853    -2.4089574053
   91      H     -14.6251682839     1.1219508306    -2.1490145166
   92      H     -13.3099312515     1.2059186938    -3.3677412893
   93      H     -13.9963331609     2.6421490155    -2.4796349434
   94      O     -13.8716476754     2.3831488898     0.2412196033
   95      C     -12.9542076943     1.6863036164    -0.1333955940
   96      C     -11.7560628933     1.3711163088     0.7641967394
   97      H     -12.0727075490     1.5986838986     1.7900817984
   98      H     -11.0371574390     2.1227361147     0.4167652854
   99      C     -11.1555742688    -0.0967119590     0.6588658896
  100      H     -11.9457774531    -0.8485402072     0.7792079554
  101      H     -10.7111300489    -0.2513862614    -0.3318788785
  102      C     -10.0150067331    -0.1120906209     1.6679061233
  103      H      -9.5538284717     0.8768783255     1.7849917083
  104      H     -10.3935276913    -0.2940199188     2.6818487325
  105      C      -8.8732259054    -1.1475774559     1.4967905016
  106      C      -9.1587439693    -2.4719782488     2.0795691689
  107      C      -9.9467970550    -3.3733951158     1.4574365737
  108      H     -10.4309923674    -3.1500988163     0.5114896079
  109      C     -10.2792908496    -4.6305765499     2.0155608595
  110      H     -10.9945732771    -5.3066120674     1.5558957337
  111      C      -9.8083805541    -4.9652881923     3.3465430570
  112      H      -9.9676455190    -5.9253073746     3.8280685917
  113      C      -9.0609648108    -3.9757818000     4.0181715302
  114      H      -8.5400817024    -4.1320722789     4.9591965424
  115      C      -8.7280055758    -2.7835559428     3.3590048949
  116      H      -8.0971873487    -2.0851867662     3.8998735089
  117      C      -3.4740825016    -1.5250667848     2.2198142304
  118      C      -3.7996789148    -3.0602328965     0.4411546270
  119      C      -1.9357490921    -0.4422904237    -2.7496798759
  120      C      -5.2966714534     3.1031712920     1.3019101952
  121      C      -5.0013092018     0.8570296093    -3.8798487419
  122      C      -4.2777720410    -2.5360971719     1.6971521209
  123      C      -5.1296781634     3.5746107188    -1.4726382560
  124      C      -1.1733471075    -0.9541927037    -0.4009344088
  125      C      -7.1007216338    -1.8322576404    -1.7316598468
  126      C      -6.4451235792     2.9704758373     0.5039455149
  127      C      -7.9367729503    -0.9129860871     0.2776367982
  128      C      -7.5616249914    -0.4811342427    -1.9804221013
  129      C      -7.2200740171     2.3174824664    -1.5813200501
  130      C      -4.7269228869     2.9574006961    -2.6803824240
  131      C      -6.0172600026    -2.6556735021     0.3370642074
  132      C      -2.8149724520     1.6103893638    -3.1229612359
  133      C      -7.4848826088    -0.5248835759     1.6490410274
  134      C      -7.1118896011     0.9260950347     1.7771007316
  135      C      -3.5896569103     0.6588794165    -3.8552254029
  136      C      -1.9537485704     2.2466244784     0.7185748247
  137      C      -1.2631761793     1.3535328778    -1.2405571682
  138      C      -0.9702264335     0.4664749525    -0.2133966727
  139      C      -1.7611823909    -1.7313795329     0.5876116509
  140      C      -5.9297341868     1.0755533154     2.5530632299
  141      C      -7.0829798278    -1.9616312762    -0.3521016963
  142      C      -2.6150711576    -2.6230012447    -0.0956823540
  143      C      -6.3848726269     3.2071181582    -0.9042580339
  144      C      -4.9169158399    -3.1609374359    -0.3550232733
  145      C      -6.9082081557     0.3090923672    -2.9271587826
  146      C      -3.6506058719     1.9404388468     2.3857636734
  147      C      -1.6351813187    -1.3172774868    -1.7001082238
  148      C      -8.0565160731     0.0809143259    -0.8125804067
  149      C      -1.9923724347     0.2115489357     2.0089300986
  150      C      -6.7622512967     1.7093444908    -2.7427039484
  151      C      -5.9469465337    -2.3001567757    -2.3997888894
  152      C      -2.8381178689     3.1576801887    -1.3861839350
  153      C      -3.9697480681     3.6910103019    -0.6634619396
  154      C      -5.3386237255    -1.5175288204    -3.4065737942
  155      C      -5.0458348021     2.1390419415     2.3056509834
  156      C      -7.2823683095     1.8321791863     0.6930645144
  157      C      -3.0308821150     2.7282514548     1.4362075878
  158      C      -6.2394331422    -1.1554822950     2.2453512502
  159      C      -3.6469495149    -2.5961724833    -2.3158697950
  160      C      -7.7507169802     1.4314730425    -0.5524418520
  161      C      -5.8400940806    -0.2623125181    -3.6757847103
  162      C      -3.1221024167     0.7214361758     2.7180204808
  163      C      -3.0857767843    -0.6277670408    -3.5623641514
  164      C      -2.1922109048    -1.1862257018     1.7487346937
  165      C      -1.7237984675     0.9280018415    -2.5067765192
  166      C      -4.8688759922    -2.9628396947    -1.7804374089
  167      C      -3.9527711910    -1.6942665726    -3.3778419372
  168      C      -5.6361654958    -2.2791049300     1.6031882485
  169      C      -5.3893634785    -0.1780985530     2.8405584308
  170      C      -1.8474557696     2.4753630296    -0.6226684477
  171      C      -2.4990325648    -2.4784133800    -1.5086520615
  172      C      -5.5615044449     2.0472285674    -3.3341448572
  173      C      -4.0601861593     3.4474233066     0.7315693602
  174      C      -3.3644773610     2.7310558255    -2.6160381287
  175      C      -4.0094359412    -0.4002523793     2.8261130412
  176      C      -1.4136009705     1.0070603108     0.9743290913
 ----------------------------------------------------------------

    9   -5804.2684158161      7.69E-06 Convergence criterion met
 Total energy in the final basis set = -5804.2684158161

                    Orbital Energies (a.u.)
 --------------------------------------------------------------

 Alpha MOs
 -- Occupied --
-19.197 -19.189 -19.132 -19.132 -10.314 -10.311 -10.245 -10.245
-10.240 -10.239 -10.237 -10.234 -10.231 -10.231 -10.230 -10.230
-10.227 -10.225 -10.224 -10.223 -10.223 -10.223 -10.223 -10.222
-10.222 -10.222 -10.222 -10.222 -10.221 -10.221 -10.221 -10.221
-10.220 -10.220 -10.220 -10.220 -10.220 -10.219 -10.219 -10.219
-10.219 -10.219 -10.219 -10.218 -10.218 -10.218 -10.218 -10.218
-10.218 -10.218 -10.218 -10.217 -10.217 -10.217 -10.217 -10.217
-10.217 -10.216 -10.216 -10.216 -10.216 -10.216 -10.216 -10.216
-10.215 -10.215 -10.215 -10.215 -10.215 -10.215 -10.215 -10.215
-10.215 -10.215 -10.215 -10.214 -10.214 -10.214 -10.214 -10.214
-10.213 -10.213 -10.213 -10.213 -10.213 -10.213 -10.213 -10.213
-10.212 -10.212 -10.212 -10.212 -10.212 -10.212 -10.212 -10.212
-10.212 -10.211 -10.211 -10.211 -10.211 -10.211 -10.211 -10.210
-10.210 -10.210 -10.210 -10.210 -10.209 -10.209 -10.209 -10.209
-10.209 -10.209 -10.209 -10.209 -10.209 -10.209 -10.208 -10.208
-10.208 -10.208 -10.208 -10.208 -10.207 -10.207 -10.207 -10.207
-10.207 -10.206 -10.205 -10.205 -10.205 -10.204 -10.203 -10.202
-10.200 -10.199 -10.198 -10.198 -10.197 -10.196 -10.196 -10.196
-10.195 -10.192 -10.190 -10.189  -1.107  -1.093  -1.016  -1.016
 -0.985  -0.982  -0.969  -0.965  -0.965  -0.963  -0.961  -0.959
 -0.934  -0.934  -0.930  -0.928  -0.927  -0.925  -0.924  -0.920
 -0.920  -0.919  -0.898  -0.896  -0.890  -0.886  -0.886  -0.883
 -0.877  -0.875  -0.859  -0.855  -0.845  -0.845  -0.841  -0.840
 -0.839  -0.837  -0.824  -0.821  -0.810  -0.804  -0.800  -0.799
 -0.798  -0.796  -0.795  -0.794  -0.792  -0.790  -0.787  -0.786
 -0.772  -0.772  -0.771  -0.771  -0.770  -0.769  -0.764  -0.764
 -0.754  -0.750  -0.747  -0.746  -0.734  -0.732  -0.720  -0.717
 -0.716  -0.715  -0.713  -0.713  -0.712  -0.711  -0.710  -0.710
 -0.709  -0.708  -0.705  -0.704  -0.703  -0.701  -0.676  -0.673
 -0.661  -0.661  -0.659  -0.658  -0.650  -0.645  -0.631  -0.630
 -0.629  -0.626  -0.625  -0.624  -0.623  -0.621  -0.621  -0.618
 -0.617  -0.617  -0.615  -0.614  -0.613  -0.612  -0.611  -0.609
 -0.608  -0.606  -0.604  -0.603  -0.576  -0.568  -0.566  -0.563
 -0.563  -0.562  -0.561  -0.557  -0.556  -0.554  -0.553  -0.552
 -0.538  -0.536  -0.536  -0.532  -0.530  -0.528  -0.526  -0.526
 -0.524  -0.524  -0.520  -0.520  -0.516  -0.516  -0.516  -0.512
 -0.506  -0.505  -0.505  -0.499  -0.497  -0.493  -0.488  -0.488
 -0.485  -0.485  -0.484  -0.482  -0.481  -0.479  -0.475  -0.474
 -0.474  -0.471  -0.470  -0.469  -0.469  -0.469  -0.467  -0.466
 -0.465  -0.465  -0.464  -0.463  -0.462  -0.461  -0.460  -0.458
 -0.458  -0.456  -0.453  -0.452  -0.449  -0.448  -0.447  -0.445
 -0.443  -0.443  -0.442  -0.440  -0.437  -0.437  -0.435  -0.434
 -0.432  -0.431  -0.430  -0.429  -0.427  -0.425  -0.424  -0.423
 -0.423  -0.422  -0.422  -0.421  -0.421  -0.420  -0.419  -0.419
 -0.418  -0.417  -0.417  -0.416  -0.415  -0.414  -0.413  -0.413
 -0.412  -0.410  -0.409  -0.406  -0.405  -0.401  -0.400  -0.397
 -0.397  -0.395  -0.395  -0.390  -0.389  -0.388  -0.386  -0.383
 -0.380  -0.380  -0.377  -0.374  -0.370  -0.369  -0.368  -0.367
 -0.365  -0.363  -0.362  -0.361  -0.361  -0.359  -0.359  -0.358
 -0.356  -0.356  -0.355  -0.353  -0.353  -0.352  -0.351  -0.350
 -0.350  -0.350  -0.348  -0.348  -0.346  -0.345  -0.344  -0.343
 -0.342  -0.341  -0.340  -0.339  -0.338  -0.337  -0.336  -0.336
 -0.334  -0.332  -0.332  -0.330  -0.329  -0.327  -0.326  -0.319
 -0.310  -0.309  -0.299  -0.296  -0.288  -0.286  -0.273  -0.272
 -0.271  -0.270  -0.269  -0.266  -0.266  -0.265  -0.265  -0.264
 -0.263  -0.262  -0.260  -0.260  -0.259  -0.257  -0.256  -0.255
 -0.249  -0.249  -0.244  -0.243  -0.223  -0.220  -0.214  -0.213
 -0.213  -0.210  -0.209  -0.206  -0.200  -0.199

          Ground-State Mulliken Net Atomic Charges

     Atom                 Charge (a.u.)
  ----------------------------------------
      1 O                    -0.481797
      2 C                    -0.086060
      3 H                     0.123717
      4 H                     0.137949
      5 H                     0.121029
      6 O                    -0.454214
      7 C                     0.588706
      8 C                    -0.262464
      9 H                     0.137837
     10 H                     0.125953
     11 C                    -0.166807
     12 H                     0.113324
     13 H                     0.124828
     14 C                    -0.179120
     15 H                     0.100082
     16 H                     0.100652
     17 C                     0.003255
     18 C                     0.124851
     19 C                    -0.103822
     20 H                     0.088302
     21 C                    -0.087928
     22 H                     0.089582
     23 C                    -0.095047
     24 H                     0.088450
     25 C                    -0.088832
     26 H                     0.099987
     27 C                    -0.137152
     28 H                     0.092256
     29 C                    -0.025335
     30 C                    -0.048641
     31 C                    -0.011424
     32 C                    -0.004894
     33 C                     0.015640
     34 C                     0.028642
     35 C                     0.012250
     36 C                     0.012814
     37 C                     0.035150
     38 C                    -0.030047
     39 C                    -0.088858
     40 C                     0.034356
     41 C                    -0.014220
     42 C                    -0.009458
     43 C                     0.037505
     44 C                    -0.016188
     45 C                    -0.058677
     46 C                    -0.011727
     47 C                    -0.000039
     48 C                     0.021229
     49 C                    -0.023236
     50 C                     0.003795
     51 C                    -0.017002
     52 C                     0.014959
     53 C                     0.007416
     54 C                    -0.010125
     55 C                     0.015130
     56 C                     0.008662
     57 C                    -0.041202
     58 C                     0.004225
     59 C                    -0.002907
     60 C                    -0.027780
     61 C                    -0.022915
     62 C                    -0.010809
     63 C                    -0.029168
     64 C                     0.011090
     65 C                    -0.028320
     66 C                    -0.004177
     67 C                    -0.013897
     68 C                     0.047359
     69 C                    -0.018158
     70 C                    -0.018472
     71 C                     0.022953
     72 C                     0.009552
     73 C                     0.017234
     74 C                    -0.013411
     75 C                    -0.007079
     76 C                     0.045045
     77 C                     0.007446
     78 C                    -0.020792
     79 C                     0.000642
     80 C                     0.031390
     81 C                     0.035221
     82 C                     0.023726
     83 C                     0.018948
     84 C                     0.016246
     85 C                     0.000304
     86 C                     0.014708
     87 C                    -0.015893
     88 C                    -0.024323
     89 O                    -0.435194
     90 C                    -0.090518
     91 H                     0.121083
     92 H                     0.123906
     93 H                     0.130565
     94 O                    -0.472520
     95 C                     0.569751
     96 C                    -0.259097
     97 H                     0.133609
     98 H                     0.142207
     99 C                    -0.181083
    100 H                     0.111806
    101 H                     0.121924
    102 C                    -0.185477
    103 H                     0.114344
    104 H                     0.114430
    105 C                    -0.004800
    106 C                     0.146143
    107 C                    -0.127480
    108 H                     0.088144
    109 C                    -0.098155
    110 H                     0.094233
    111 C                    -0.094913
    112 H                     0.096145
    113 C                    -0.084869
    114 H                     0.092520
    115 C                    -0.118912
    116 H                     0.087739
    117 C                     0.053393
    118 C                    -0.009181
    119 C                     0.012619
    120 C                    -0.005146
    121 C                    -0.018211
    122 C                    -0.055009
    123 C                     0.003851
    124 C                    -0.010007
    125 C                    -0.026557
    126 C                    -0.019937
    127 C                    -0.069216
    128 C                    -0.017426
    129 C                    -0.024646
    130 C                     0.003330
    131 C                     0.027872
    132 C                    -0.001374
    133 C                    -0.092479
    134 C                     0.016704
    135 C                    -0.023838
    136 C                     0.029965
    137 C                    -0.002826
    138 C                    -0.016271
    139 C                     0.018578
    140 C                    -0.007218
    141 C                     0.051650
    142 C                     0.017892
    143 C                     0.001352
    144 C                    -0.021600
    145 C                     0.001534
    146 C                     0.029931
    147 C                    -0.010899
    148 C                     0.024158
    149 C                    -0.024900
    150 C                     0.020921
    151 C                     0.008059
    152 C                    -0.022354
    153 C                    -0.020215
    154 C                     0.007685
    155 C                     0.006158
    156 C                     0.030033
    157 C                    -0.010448
    158 C                     0.009242
    159 C                     0.006527
    160 C                    -0.010077
    161 C                     0.007712
    162 C                    -0.024251
    163 C                     0.011618
    164 C                    -0.004844
    165 C                     0.001163
    166 C                    -0.008159
    167 C                    -0.004084
    168 C                     0.013657
    169 C                    -0.008645
    170 C                     0.004533
    171 C                    -0.023582
    172 C                     0.003181
    173 C                    -0.005609
    174 C                     0.028752
    175 C                    -0.006556
    176 C                     0.015981
  ----------------------------------------
  Sum of atomic charges =     0.000000

                    Cartesian Multipole Moments
 -----------------------------------------------------------------
    Charge (ESU x 10^10)
                 0.0000
    Dipole Moment (Debye)
         X      -0.7339      Y      -4.0546      Z      -2.0841
       Tot       4.6176
    Quadrupole Moments (Debye-Ang)
        XX    -801.6784     XY      18.4564     YY    -793.6856
        XZ      -0.4034     YZ       1.9160     ZZ    -799.7707

 Total job time:  848.00s(wall), 8064.80s(cpu)
        *  Thank you very much for using Q-Chem.  Have a nice day.  *
