 Q-Chem 4.4, Q-Chem, Inc., Pleasanton, CA (2016)
 Q-Chem 4.4.2 for Intel X86 Linux

User input:
--------------------------------------------------------------
$comment
SP
$end

$rem
MEM_STATIC 5000
MEM_TOTAL 20000
JOBTYPE SP
EXCHANGE B3LYP
BASIS 6-31g(d,p)
$end

$molecule
0 1
O          10.894000    -21.945000     10.533000
C          10.516000    -22.716000      9.370000
H           9.735000    -23.417000      9.688000
H          11.402000    -23.279000      9.054000
H          10.068000    -22.087000      8.590000
O          12.427000    -20.543000      9.458000
C          11.644000    -20.811000     10.378000
C          11.741000    -19.959000     11.632000
H          12.568000    -19.238000     11.614000
H          11.738000    -20.665000     12.471000
C          10.355000    -19.247000     11.867000
H           9.596000    -19.700000     11.217000
H          10.025000    -19.495000     12.883000
C          10.499000    -17.716000     11.634000
H           9.783000    -17.066000     12.151000
H          11.426000    -17.416000     12.140000
C          10.566000    -17.263000     10.202000
C           9.380000    -17.823000      9.510000
C           9.495000    -18.794000      8.507000
H          10.444000    -19.269000      8.279000
C           8.372000    -19.297000      7.788000
H           8.500000    -20.156000      7.136000
C           7.106000    -18.790000      8.070000
H           6.231000    -19.242000      7.611000
C           6.988000    -17.752000      8.968000
H           5.996000    -17.342000      9.131000
C           8.040000    -17.367000      9.749000
H           7.864000    -16.541000     10.432000
C          13.142000    -16.287000      5.394000
C          11.504000    -14.506000      5.538000
C          14.464000    -11.101000      6.375000
C          15.934000    -16.369000      9.640000
C          13.886000    -11.119000      9.791000
C          11.808000    -15.858000      5.767000
C          16.262000    -13.715000     10.607000
C          14.638000    -12.984000      4.783000
C          10.621000    -13.534000      9.386000
C          15.139000    -15.888000     10.719000
C          11.020000    -15.824000      9.902000
C          11.459000    -13.525000     10.466000
C          14.057000    -14.108000     11.501000
C          15.912000    -12.383000     10.332000
C          10.575000    -15.071000      7.517000
C          15.723000    -11.166000      8.240000
C          11.812000    -16.986000      9.354000
C          13.245000    -17.140000      9.749000
C          14.462000    -10.645000      8.585000
C          17.044000    -14.673000      6.704000
C          16.424000    -12.527000      6.303000
C          15.855000    -13.364000      5.341000
C          13.759000    -14.051000      4.585000
C          14.014000    -17.514000      8.666000
C          10.440000    -14.842000      8.904000
C          12.450000    -13.651000      4.934000
C          15.334000    -14.589000     11.160000
C          10.693000    -14.014000      6.580000
C          12.407000    -12.481000     10.720000
C          15.928000    -16.770000      7.401000
C          13.950000    -11.883000      5.308000
C          11.832000    -14.871000     10.769000
C          15.338000    -15.802000      5.323000
C          13.728000    -12.842000     11.226000
C          10.739000    -12.503000      8.360000
C          17.129000    -13.144000      8.565000
C          17.029000    -14.169000      9.479000
C          11.681000    -11.468000      8.702000
C          15.388000    -17.151000      8.606000
C          13.801000    -16.270000     10.745000
C          16.823000    -15.694000      7.624000
C          11.883000    -17.113000      7.890000
C          11.815000    -11.867000      6.440000
C          13.117000    -15.113000     11.207000
C          12.506000    -11.444000      9.832000
C          15.223000    -16.833000      6.250000
C          13.689000    -10.617000      7.461000
C          14.060000    -15.438000      4.762000
C          15.720000    -11.469000      6.867000
C          10.804000    -12.730000      6.968000
C          12.318000    -11.062000      7.501000
C          11.247000    -16.224000      7.035000
C          13.182000    -17.514000      7.521000
C          17.118000    -13.351000      7.193000
C          12.648000    -12.306000      5.435000
C          14.605000    -11.977000     10.639000
C          16.846000    -15.488000      9.016000
C          16.449000    -12.016000      9.106000
C          13.790000    -17.167000      6.250000
C          16.249000    -14.719000      5.548000
O           8.710000    -14.683000     -2.111000
C           7.300000    -14.622000     -2.575000
H           6.953000    -13.653000     -2.956000
H           6.748000    -14.946000     -1.684000
H           7.221000    -15.386000     -3.357000
O           9.452000    -13.278000     -3.684000
C           9.629000    -13.912000     -2.667000
C          10.955000    -13.730000     -1.772000
H          11.095000    -14.468000     -0.972000
H          10.576000    -12.926000     -1.128000
C          12.244000    -13.365000     -2.576000
H          12.657000    -14.148000     -3.224000
H          12.005000    -12.531000     -3.247000
C          13.264000    -12.762000     -1.520000
H          12.862000    -11.899000     -0.975000
H          13.373000    -13.487000     -0.704000
C          14.626000    -12.533000     -2.187000
C          14.434000    -11.688000     -3.437000
C          14.439000    -10.322000     -3.228000
H          14.450000     -9.873000     -2.239000
C          14.428000     -9.474000     -4.318000
H          14.628000     -8.428000     -4.105000
C          14.310000     -9.934000     -5.661000
H          14.334000     -9.246000     -6.502000
C          14.208000    -11.315000     -5.840000
H          13.835000    -11.722000     -6.776000
C          14.342000    -12.222000     -4.763000
H          14.184000    -13.282000     -4.942000
C          19.637000    -14.446000     -3.535000
C          20.051000    -12.146000     -3.014000
C          22.103000    -13.014000      1.031000
C          17.227000    -16.792000      0.194000
C          19.245000    -12.456000      3.026000
C          19.236000    -13.143000     -3.525000
C          17.890000    -15.769000      2.699000
C          22.357000    -14.130000     -1.199000
C          17.321000    -10.879000     -0.232000
C          16.337000    -15.884000      0.799000
C          15.795000    -12.409000     -1.286000
C          16.565000    -11.523000      0.819000
C          16.332000    -14.041000      2.037000
C          18.738000    -14.805000      3.266000
C          17.870000    -11.655000     -2.493000
C          20.953000    -14.140000      2.649000
C          15.768000    -13.632000     -2.108000
C          15.702000    -14.934000     -1.402000
C          20.569000    -12.813000      2.672000
C          20.624000    -17.037000     -0.129000
C          21.892000    -15.462000      0.864000
C          22.108000    -15.388000     -0.543000
C          21.717000    -13.858000     -2.403000
C          16.713000    -15.804000     -1.949000
C          16.925000    -11.457000     -1.456000
C          21.282000    -12.517000     -2.439000
C          16.673000    -15.338000      2.084000
C          19.217000    -11.198000     -2.359000
C          17.231000    -11.811000      2.062000
C          18.687000    -17.213000     -1.452000
C          22.325000    -12.949000     -0.390000
C          15.785000    -12.468000      0.259000
C          20.694000    -16.075000     -2.335000
C          17.069000    -13.077000      2.690000
C          18.637000    -10.556000     -0.024000
C          20.074000    -16.341000      2.243000
C          18.704000    -16.737000      2.035000
C          19.258000    -10.828000      1.206000
C          17.325000    -16.831000     -1.183000
C          15.712000    -14.926000      0.018000
C          19.331000    -17.487000     -0.241000
C          16.933000    -13.846000     -3.025000
C          20.818000    -11.089000     -0.515000
C          15.685000    -13.754000      0.816000
C          18.564000    -11.437000      2.282000
C          19.358000    -16.479000     -2.488000
C          21.239000    -12.178000      1.605000
C          20.839000    -14.876000     -2.980000
C          21.908000    -14.290000      1.640000
C          19.619000    -10.654000     -1.104000
C          20.545000    -11.167000      0.894000
C          17.887000    -12.852000     -3.232000
C          17.405000    -15.160000     -2.914000
C          20.980000    -16.486000      1.114000
C          21.728000    -11.958000     -1.214000
C          18.306000    -13.451000      3.248000
C          18.419000    -17.258000      0.770000
C          20.037000    -15.156000      2.958000
C          18.730000    -15.454000     -3.215000
C          21.297000    -16.330000     -1.109000
$end

--------------------------------------------------------------

             Standard Nuclear Orientation (Angstroms)
    I     Atom           X                Y                Z
 ----------------------------------------------------------------
    1      O      -9.4743399144     0.6768067032    -5.4508311714
    2      C      -8.8369607595     1.5960516487    -6.3665989056
    3      H      -9.6355454203     2.1403449788    -6.8847623066
    4      H      -8.2785853043     0.9934336484    -7.0924703796
    5      H      -8.2399913741     2.3511170996    -5.8391060452
    6      O      -7.5167240311    -0.1717728017    -4.4922014841
    7      C      -8.7306168641     0.0680989897    -4.4767511213
    8      C      -9.5594557322    -0.6528728465    -3.4274395650
    9      H      -8.9903003812    -1.3845467341    -2.8402347382
   10      H     -10.4366890433    -1.0415340668    -3.9582598490
   11      C     -10.2503839165     0.4212311427    -2.5043556769
   12      H     -10.1571958724     1.4131076952    -2.9640152172
   13      H     -11.3281443768     0.2186829019    -2.5125165868
   14      C      -9.6352018763     0.3682437615    -1.0768650832
   15      H     -10.2649667747     0.7219894135    -0.2518164868
   16      H      -9.5613962881    -0.6955218716    -0.8154833451
   17      C      -8.2801172950     0.9980039911    -0.9111248331
   18      C      -8.3766524388     2.3855746579    -1.4253121635
   19      C      -7.6889589530     2.8021750302    -2.5723068450
   20      H      -7.1558510421     2.0992106332    -3.2046414178
   21      C      -7.7198233830     4.1464870427    -3.0445055320
   22      H      -7.2996055251     4.3770421490    -4.0189952933
   23      C      -8.4409813173     5.0985322160    -2.3283559515
   24      H      -8.5649735118     6.0980874151    -2.7359407153
   25      C      -9.0253450911     4.7340927722    -1.1352612898
   26      H      -9.5381247447     5.5080956635    -0.5724917533
   27      C      -9.1076431100     3.4245445537    -0.7568428715
   28      H      -9.5844069753     3.2215654655     0.1977443202
   29      C      -2.7470610652     1.0775627777    -1.2012543862
   30      C      -3.2356052269     2.3869521700     0.7792922609
   31      C      -1.7788460188    -0.6950650991     3.8509719581
   32      C      -5.0689292275    -3.4310882619    -0.8673411654
   33      C      -4.9662597673    -1.8615255541     4.5461177001
   34      C      -3.5955687023     2.0464897587    -0.5349651883
   35      C      -5.1338477376    -4.2618117356     1.8514955523
   36      C      -0.7691988790    -0.0171368344     1.6988904260
   37      C      -6.7092884655     1.2483078153     2.5593458531
   38      C      -6.2533337687    -3.2787864841    -0.0917013963
   39      C      -7.4827734607     0.7100200423     0.3726761854
   40      C      -7.2328532602    -0.0107530361     2.6561481171
   41      C      -7.0238932472    -2.7661487463     1.9316840439
   42      C      -4.7609086522    -3.8582060667     3.1439226886
   43      C      -5.4883924247     2.2441586036     0.7221359944
   44      C      -2.7899190954    -2.7031116785     3.9650384670
   45      C      -6.9074353048     0.3190307313    -0.9666988050
   46      C      -6.6041173737    -1.1192895433    -1.2358883675
   47      C      -3.5592196335    -1.7866189537     4.7058520518
   48      C      -1.6576810755    -3.0085930059     0.0884285789
   49      C      -1.1191047589    -2.3299923845     2.1860352503
   50      C      -0.7580202909    -1.3407629951     1.2690743885
   51      C      -1.2576037821     0.8748805529     0.7417594886
   52      C      -5.4041746051    -1.2498625782    -1.9046290008
   53      C      -6.6817867271     1.6772424213     1.2209857528
   54      C      -2.0804896659     1.8345360832     1.3719991933
   55      C      -6.2413518269    -3.6996287133     1.2283952862
   56      C      -4.3935098719     2.5710026717     1.5609131703
   57      C      -6.7649079150    -0.9896930217     3.5920218578
   58      C      -3.2550806652    -2.3198632604    -1.6730026258
   59      C      -1.2898448367     0.2960857102     2.9606310587
   60      C      -7.6220087402    -0.4477267336     1.3522056336
   61      C      -1.5416395940    -0.8152911347    -1.0377149629
   62      C      -6.6560982781    -2.3790654298     3.1570474050
   63      C      -5.5444852305     1.6193871684     3.3562740415
   64      C      -2.8552113258    -4.0343144125     1.9111199668
   65      C      -3.9147246037    -4.3664665804     1.0967935265
   66      C      -5.1564083965     0.6028785656     4.3005513479
   67      C      -4.6231235536    -2.4281810754    -1.7472448398
   68      C      -6.9927815235    -2.1147084585    -0.2787398096
   69      C      -2.7783930909    -3.2383009065    -0.7046167281
   70      C      -5.6553326083     0.9766451200    -1.3719742090
   71      C      -3.2565571829     1.6032479835     3.4737337176
   72      C      -7.4450980069    -1.7756731692     1.0252593743
   73      C      -5.7252885192    -0.6697108708     4.4229953442
   74      C      -2.6206638697    -1.1405626737    -1.8534477860
   75      C      -2.9591113764    -0.5637042382     4.6281431168
   76      C      -1.5826407633     0.5634147087    -0.6158262320
   77      C      -1.6903187966    -2.0207337445     3.4153235064
   78      C      -4.3793478239     2.2497205238     2.8678554865
   79      C      -3.7403869560     0.6239994942     4.3868252502
   80      C      -5.0237736504     1.9252591176    -0.5800734789
   81      C      -4.8203414374     0.0355170561    -2.0055598085
   82      C      -1.7383608401    -3.3480481063     1.4561061762
   83      C      -2.1077456332     1.3804867436     2.7476177122
   84      C      -5.5456939587    -2.8799132551     3.7719268268
   85      C      -3.9068624064    -3.9447841679    -0.2484726661
   86      C      -3.3795726184    -3.7366225689     3.2010384917
   87      C      -3.3717692302     0.1177546594    -1.9858231113
   88      C      -1.0575248513    -1.7488451040    -0.0642957817
   89      O       1.9262836199     8.5688392709    -0.4389611632
   90      C       1.6714129341    10.0233734739    -0.2762092489
   91      H       2.0533974290    10.4860302177     0.6427943328
   92      H       0.5782877151    10.0775600048    -0.3517213368
   93      H       2.1265499595    10.4954063744    -1.1545578294
   94      O       3.9363687362     8.6533519200     0.5364020704
   95      C       3.0086393048     8.0187559947     0.0845391336
   96      C       2.9120126816     6.4200671544     0.2497126411
   97      H       2.1280841538     5.9266806599    -0.3387343238
   98      H       2.3678488193     6.4137333963     1.2029379945
   99      C       4.2875020622     5.6797048223     0.2821869535
  100      H       4.8558745418     5.6577859750    -0.6559144742
  101      H       4.9367362800     6.1937052715     1.0013645871
  102      C       4.0054458441     4.2576481109     0.9282086245
  103      H       3.5482550692     4.3181928498     1.9235522486
  104      H       3.1962415813     3.7831096346     0.3595578569
  105      C       5.2675895831     3.3903137459     0.8439573254
  106      C       6.4348813065     4.1462446159     1.4599017647
  107      C       6.5703336307     4.0027076523     2.8276414358
  108      H       5.8350005941     3.4972292770     3.4470120336
  109      C       7.6872199129     4.5225027374     3.4519034818
  110      H       7.8382155579     4.2156654514     4.4826974453
  111      C       8.6713163644     5.2947103705     2.7704179387
  112      H       9.5560452988     5.6665290520     3.2805224190
  113      C       8.4611895749     5.5085435240     1.4066994506
  114      H       8.9904057632     6.3025520725     0.8867430571
  115      C       7.3998792652     4.8894722317     0.7060532050
  116      H       7.2365040788     5.1434426425    -0.3376960843
  117      C       8.3409346485    -0.2671655247    -1.9424721988
  118      C       8.6159501788    -0.9451384771     0.3373427353
  119      C       5.9377270120    -4.6890855232    -0.0316209271
  120      C       3.4934607377     0.0733810978    -3.2086797973
  121      C       3.0184935668    -3.1883901951     1.2666635660
  122      C       8.4403721612     0.0422860452    -0.6184397570
  123      C       1.9041158633    -1.7575456002    -1.8365233570
  124      C       7.7034871237    -3.7895881229    -1.5665045236
  125      C       5.2478700913     0.0398481612     2.4547824267
  126      C       2.7655191312     0.5287971801    -2.0927558708
  127      C       5.0786815896     1.9271309395     0.9749071058
  128      C       3.8493995394     0.2022773985     2.1249796700
  129      C       2.1280381627    -0.1222328096    -0.0681334450
  130      C       2.0399983517    -2.8002375895    -0.9068898998
  131      C       7.2564662014     0.6881315892     1.2053952716
  132      C       3.7606676661    -4.4474634499    -0.6721920617
  133      C       5.4878307956     2.3858116866    -0.3646267309
  134      C       4.5584803562     2.1332491554    -1.4917983809
  135      C       3.8625023643    -4.1598402154     0.6753303200
  136      C       5.3130526031    -2.7234926997    -3.9640243570
  137      C       5.4229453338    -4.3572331014    -2.4169904570
  138      C       6.7405677953    -3.8593462161    -2.6355326689
  139      C       8.4900074835    -2.6500926668    -1.4394776407
  140      C       5.3026496426     1.5429487906    -2.5762279786
  141      C       5.9727226773     0.9994011538     1.7179494856
  142      C       8.6212867792    -2.2895283204    -0.0824363375
  143      C       1.9531303717    -0.4074190004    -1.3676622447
  144      C       7.8808911417    -0.5640811102     1.4939621606
  145      C       3.0382463124    -0.9785277257     1.9861319081
  146      C       5.4879681620    -0.3829546047    -4.1207405744
  147      C       7.2680559032    -4.1893382273    -0.2623321783
  148      C       3.7439117174     1.1817494942     1.2059955934
  149      C       7.4450981796    -1.7315352751    -3.4471277259
  150      C       2.1383467291    -1.1102201384     0.8924126349
  151      C       5.7641032606    -1.2179092169     2.6308468836
  152      C       3.1911678398    -3.4230329563    -2.7717372772
  153      C       2.6328671298    -2.1162239420    -3.0115924778
  154      C       4.9464762901    -2.3535577697     2.5112078361
  155      C       4.7041903028     0.6625228374    -3.5157627356
  156      C       3.3549179233     1.4297598154    -1.2214204626
  157      C       4.6969110983    -1.5293070025    -4.2489509555
  158      C       6.7692984021     1.8244852196    -0.9000362666
  159      C       7.0884533831    -2.8647168513     1.7274907145
  160      C       2.9291655437     1.0312745470     0.0712749393
  161      C       3.5638799981    -2.2583546843     2.2117802727
  162      C       6.8541206797    -0.4810526668    -3.6891191330
  163      C       5.2320471896    -4.2392256448     1.0049648523
  164      C       8.3362130195    -1.5748948547    -2.4194949506
  165      C       5.0361960232    -4.7824448488    -1.1341670316
  166      C       7.1247013787    -1.5431079703     2.2026570523
  167      C       5.7413654820    -3.3137814585     1.9501769635
  168      C       7.6215339646     1.0671528054    -0.0993221101
  169      C       6.5976855797     1.3942498433    -2.2218333615
  170      C       4.5470154840    -3.6567368605    -3.2445603422
  171      C       7.9148058799    -3.2926462291     0.6293650393
  172      C       2.1603132214    -2.4514445055     0.4657468754
  173      C       3.4579313047    -1.2349280441    -3.7154942094
  174      C       2.8343975681    -3.7725547045    -1.4804710301
  175      C       7.4113525764     0.3943003037    -2.7421303314
  176      C       6.6262739923    -2.8499948845    -3.5485429732
 ----------------------------------------------------------------

    9   -5804.2587283681      8.15E-06 Convergence criterion met
 Total energy in the final basis set = -5804.2587283681

                    Orbital Energies (a.u.)
 --------------------------------------------------------------

 Alpha MOs
 -- Occupied --
-19.203 -19.193 -19.139 -19.125 -10.323 -10.313 -10.256 -10.252
-10.240 -10.239 -10.235 -10.235 -10.233 -10.230 -10.225 -10.225
-10.222 -10.222 -10.222 -10.221 -10.221 -10.221 -10.220 -10.220
-10.220 -10.219 -10.219 -10.218 -10.218 -10.218 -10.218 -10.217
-10.217 -10.217 -10.217 -10.217 -10.216 -10.216 -10.216 -10.216
-10.216 -10.216 -10.215 -10.215 -10.215 -10.215 -10.215 -10.215
-10.215 -10.214 -10.214 -10.214 -10.214 -10.214 -10.214 -10.214
-10.214 -10.214 -10.213 -10.213 -10.213 -10.213 -10.213 -10.213
-10.213 -10.212 -10.212 -10.212 -10.212 -10.212 -10.212 -10.212
-10.212 -10.212 -10.212 -10.211 -10.211 -10.211 -10.211 -10.211
-10.211 -10.210 -10.210 -10.210 -10.210 -10.210 -10.210 -10.210
-10.210 -10.210 -10.210 -10.210 -10.210 -10.210 -10.210 -10.210
-10.209 -10.209 -10.209 -10.209 -10.209 -10.209 -10.209 -10.209
-10.209 -10.209 -10.208 -10.208 -10.208 -10.208 -10.208 -10.208
-10.208 -10.208 -10.207 -10.207 -10.207 -10.207 -10.207 -10.207
-10.206 -10.206 -10.206 -10.206 -10.205 -10.205 -10.205 -10.205
-10.204 -10.204 -10.203 -10.203 -10.202 -10.202 -10.202 -10.201
-10.201 -10.200 -10.200 -10.199 -10.198 -10.196 -10.196 -10.195
-10.195 -10.194 -10.193 -10.191  -1.097  -1.093  -1.011  -1.004
 -0.979  -0.979  -0.961  -0.961  -0.961  -0.959  -0.956  -0.956
 -0.930  -0.930  -0.924  -0.922  -0.921  -0.920  -0.919  -0.918
 -0.917  -0.916  -0.893  -0.892  -0.886  -0.884  -0.883  -0.879
 -0.874  -0.871  -0.854  -0.849  -0.840  -0.837  -0.836  -0.836
 -0.834  -0.832  -0.822  -0.815  -0.805  -0.796  -0.795  -0.794
 -0.791  -0.790  -0.790  -0.789  -0.788  -0.788  -0.783  -0.778
 -0.770  -0.769  -0.767  -0.766  -0.763  -0.761  -0.760  -0.758
 -0.752  -0.747  -0.745  -0.738  -0.732  -0.730  -0.714  -0.713
 -0.712  -0.711  -0.710  -0.709  -0.708  -0.707  -0.706  -0.706
 -0.704  -0.704  -0.703  -0.702  -0.701  -0.698  -0.670  -0.667
 -0.658  -0.655  -0.653  -0.652  -0.647  -0.643  -0.630  -0.628
 -0.625  -0.623  -0.623  -0.622  -0.621  -0.618  -0.616  -0.615
 -0.615  -0.611  -0.610  -0.608  -0.607  -0.607  -0.606  -0.605
 -0.603  -0.600  -0.600  -0.599  -0.572  -0.564  -0.563  -0.559
 -0.558  -0.557  -0.557  -0.554  -0.554  -0.551  -0.551  -0.550
 -0.538  -0.532  -0.528  -0.527  -0.525  -0.524  -0.524  -0.522
 -0.520  -0.518  -0.516  -0.516  -0.513  -0.513  -0.511  -0.508
 -0.506  -0.502  -0.501  -0.495  -0.492  -0.489  -0.486  -0.483
 -0.482  -0.481  -0.480  -0.480  -0.478  -0.477  -0.476  -0.474
 -0.472  -0.469  -0.468  -0.466  -0.465  -0.464  -0.464  -0.464
 -0.463  -0.461  -0.460  -0.459  -0.458  -0.456  -0.455  -0.453
 -0.453  -0.451  -0.449  -0.449  -0.447  -0.446  -0.442  -0.441
 -0.440  -0.438  -0.437  -0.435  -0.434  -0.434  -0.431  -0.430
 -0.429  -0.428  -0.426  -0.426  -0.424  -0.423  -0.423  -0.420
 -0.420  -0.419  -0.419  -0.419  -0.417  -0.417  -0.415  -0.415
 -0.413  -0.412  -0.412  -0.411  -0.411  -0.410  -0.410  -0.409
 -0.409  -0.408  -0.406  -0.405  -0.403  -0.397  -0.397  -0.393
 -0.393  -0.393  -0.391  -0.389  -0.388  -0.385  -0.383  -0.383
 -0.378  -0.378  -0.371  -0.370  -0.369  -0.367  -0.367  -0.365
 -0.363  -0.362  -0.361  -0.360  -0.358  -0.358  -0.356  -0.356
 -0.354  -0.354  -0.353  -0.351  -0.350  -0.350  -0.348  -0.348
 -0.347  -0.347  -0.345  -0.345  -0.343  -0.342  -0.341  -0.341
 -0.339  -0.336  -0.336  -0.335  -0.335  -0.334  -0.332  -0.332
 -0.332  -0.329  -0.328  -0.326  -0.325  -0.323  -0.321  -0.319
 -0.308  -0.302  -0.301  -0.296  -0.286  -0.285  -0.270  -0.269
 -0.268  -0.266  -0.265  -0.264  -0.264  -0.262  -0.262  -0.261
 -0.259  -0.259  -0.257  -0.255  -0.253  -0.252  -0.251  -0.250
 -0.249  -0.243  -0.240  -0.238  -0.219  -0.219  -0.211  -0.208
 -0.206  -0.205  -0.203  -0.201  -0.196  -0.193

          Ground-State Mulliken Net Atomic Charges

     Atom                 Charge (a.u.)
  ----------------------------------------
      1 O                    -0.466697
      2 C                    -0.087388
      3 H                     0.128343
      4 H                     0.138037
      5 H                     0.129139
      6 O                    -0.486876
      7 C                     0.607516
      8 C                    -0.235480
      9 H                     0.136278
     10 H                     0.129859
     11 C                    -0.203347
     12 H                     0.125829
     13 H                     0.103532
     14 C                    -0.195565
     15 H                     0.112646
     16 H                     0.103618
     17 C                     0.035011
     18 C                     0.086384
     19 C                    -0.143707
     20 H                     0.114363
     21 C                    -0.093091
     22 H                     0.087363
     23 C                    -0.082552
     24 H                     0.088403
     25 C                    -0.075479
     26 H                     0.087825
     27 C                    -0.111498
     28 H                     0.085859
     29 C                     0.014982
     30 C                    -0.009220
     31 C                    -0.012166
     32 C                    -0.018018
     33 C                    -0.006029
     34 C                    -0.022439
     35 C                    -0.013570
     36 C                    -0.006056
     37 C                    -0.012377
     38 C                    -0.010817
     39 C                    -0.097445
     40 C                     0.021811
     41 C                    -0.013507
     42 C                    -0.008925
     43 C                     0.023667
     44 C                     0.004270
     45 C                    -0.078311
     46 C                     0.037531
     47 C                    -0.018570
     48 C                    -0.028663
     49 C                     0.009916
     50 C                    -0.001151
     51 C                     0.002540
     52 C                     0.041031
     53 C                     0.012439
     54 C                    -0.000682
     55 C                     0.026564
     56 C                     0.011274
     57 C                    -0.028878
     58 C                     0.037592
     59 C                    -0.007550
     60 C                     0.035085
     61 C                    -0.015134
     62 C                     0.005435
     63 C                    -0.012327
     64 C                     0.032755
     65 C                    -0.018236
     66 C                    -0.000562
     67 C                    -0.007193
     68 C                    -0.017704
     69 C                     0.015525
     70 C                     0.026853
     71 C                     0.003860
     72 C                    -0.006924
     73 C                     0.009782
     74 C                    -0.012211
     75 C                     0.001638
     76 C                    -0.007774
     77 C                     0.014022
     78 C                    -0.004654
     79 C                    -0.014594
     80 C                     0.017356
     81 C                    -0.000388
     82 C                    -0.005539
     83 C                     0.000780
     84 C                     0.029012
     85 C                    -0.011084
     86 C                    -0.017150
     87 C                    -0.026708
     88 C                     0.019796
     89 O                    -0.455583
     90 C                    -0.095045
     91 H                     0.146036
     92 H                     0.130571
     93 H                     0.135945
     94 O                    -0.473549
     95 C                     0.569031
     96 C                    -0.266660
     97 H                     0.119268
     98 H                     0.132209
     99 C                    -0.175787
    100 H                     0.111392
    101 H                     0.145015
    102 C                    -0.188030
    103 H                     0.111967
    104 H                     0.105740
    105 C                     0.007899
    106 C                     0.068352
    107 C                    -0.082824
    108 H                     0.092565
    109 C                    -0.097955
    110 H                     0.085017
    111 C                    -0.078461
    112 H                     0.095219
    113 C                    -0.097766
    114 H                     0.093734
    115 C                    -0.101429
    116 H                     0.095358
    117 C                     0.010334
    118 C                     0.008611
    119 C                     0.007047
    120 C                     0.009496
    121 C                    -0.020502
    122 C                     0.011626
    123 C                    -0.001355
    124 C                    -0.006870
    125 C                    -0.014136
    126 C                    -0.019365
    127 C                    -0.084317
    128 C                     0.007850
    129 C                     0.027132
    130 C                     0.016729
    131 C                     0.000717
    132 C                     0.008017
    133 C                    -0.070394
    134 C                    -0.013362
    135 C                    -0.004204
    136 C                     0.008415
    137 C                    -0.005797
    138 C                    -0.008988
    139 C                    -0.006648
    140 C                    -0.000097
    141 C                     0.040485
    142 C                     0.015753
    143 C                    -0.012366
    144 C                    -0.032887
    145 C                    -0.018844
    146 C                    -0.027455
    147 C                    -0.006143
    148 C                     0.022705
    149 C                    -0.005147
    150 C                    -0.002883
    151 C                    -0.006840
    152 C                    -0.025896
    153 C                    -0.035875
    154 C                     0.028039
    155 C                    -0.029198
    156 C                     0.028760
    157 C                    -0.000889
    158 C                     0.019812
    159 C                    -0.000672
    160 C                    -0.007008
    161 C                    -0.016436
    162 C                    -0.004531
    163 C                     0.016508
    164 C                    -0.015543
    165 C                    -0.023591
    166 C                    -0.013336
    167 C                     0.002312
    168 C                     0.004548
    169 C                     0.035711
    170 C                     0.003250
    171 C                    -0.023095
    172 C                     0.011746
    173 C                     0.043332
    174 C                     0.019903
    175 C                    -0.008611
    176 C                     0.030932
  ----------------------------------------
  Sum of atomic charges =     0.000000

                    Cartesian Multipole Moments
 -----------------------------------------------------------------
    Charge (ESU x 10^10)
                 0.0000
    Dipole Moment (Debye)
         X      -6.0587      Y       4.7314      Z      -1.5310
       Tot       7.8383
    Quadrupole Moments (Debye-Ang)
        XX    -759.4751     XY     -21.2929     YY    -786.6317
        XZ      26.6258     YZ     -11.1769     ZZ    -795.5129

 Total job time:  858.60s(wall), 8183.69s(cpu)
        *  Thank you very much for using Q-Chem.  Have a nice day.  *
