 Q-Chem 4.4, Q-Chem, Inc., Pleasanton, CA (2016)
 Q-Chem 4.4.2 for Intel X86 Linux

User input:
--------------------------------------------------------------
$comment
SP
$end

$rem
MEM_STATIC 5000
MEM_TOTAL 20000
JOBTYPE SP
EXCHANGE B3LYP
BASIS 6-31g(d,p)
$end

$molecule
0 1
O          22.599000      6.203000     -0.874000
C          23.924000      6.853000     -0.846000
H          24.232000      7.430000     -1.726000
H          24.664000      6.074000     -0.622000
H          23.988000      7.560000     -0.010000
O          21.425000      8.203000     -0.523000
C          21.473000      7.001000     -0.776000
C          20.165000      6.118000     -1.086000
H          20.251000      5.815000     -2.137000
H          19.308000      6.802000     -1.058000
C          19.923000      4.977000     -0.022000
H          20.352000      5.273000      0.944000
H          18.857000      4.790000      0.155000
C          20.709000      3.697000     -0.462000
H          20.536000      3.447000     -1.516000
H          21.776000      3.806000     -0.233000
C          20.273000      2.446000      0.335000
C          20.927000      2.425000      1.724000
C          22.092000      1.651000      2.034000
H          22.523000      0.981000      1.297000
C          22.565000      1.626000      3.366000
H          23.511000      1.144000      3.590000
C          21.930000      2.482000      4.337000
H          22.423000      2.505000      5.304000
C          20.769000      3.084000      4.042000
H          20.293000      3.628000      4.852000
C          20.248000      3.091000      2.760000
H          19.319000      3.638000      2.625000
C          19.765000     -3.029000      0.175000
C          17.970000     -2.304000      1.692000
C          14.652000     -3.262000     -1.171000
C          19.442000     -0.513000     -4.229000
C          14.183000      0.074000     -2.148000
C          19.284000     -2.162000      1.204000
C          16.718000     -0.084000     -4.682000
C          16.595000     -4.452000     -0.673000
C          16.586000      1.323000      0.782000
C          18.890000      0.816000     -3.982000
C          18.835000      1.885000      0.133000
C          16.508000      1.988000     -0.427000
C          17.006000      1.796000     -3.137000
C          15.380000     -0.217000     -4.174000
C          18.360000     -0.089000      1.695000
C          14.416000     -2.177000     -3.175000
C          20.004000      1.162000     -0.385000
C          20.155000      0.870000     -1.888000
C          13.960000     -1.295000     -2.142000
C          18.073000     -3.597000     -3.721000
C          15.967000     -4.023000     -2.996000
C          16.832000     -4.588000     -2.088000
C          17.701000     -4.161000      0.178000
C          20.617000     -0.394000     -2.045000
C          17.912000      1.130000      1.101000
C          17.189000     -3.372000      1.255000
C          17.508000      0.963000     -4.150000
C          17.397000     -1.079000      1.950000
C          15.467000      1.699000     -1.368000
C          20.029000     -2.477000     -3.211000
C          15.498000     -3.778000     -0.198000
C          17.827000      2.290000     -0.919000
C          19.214000     -4.141000     -1.679000
C          15.699000      1.643000     -2.696000
C          15.650000      0.333000      1.125000
C          16.334000     -2.249000     -4.686000
C          17.318000     -1.346000     -4.995000
C          14.597000      0.036000      0.253000
C          20.268000     -1.054000     -3.196000
C          19.189000      1.401000     -2.750000
C          19.022000     -2.705000     -4.144000
C          20.294000     -0.205000      0.209000
C          15.218000     -1.863000      1.281000
C          18.083000      2.125000     -2.244000
C          14.486000      0.724000     -0.977000
C          20.165000     -3.166000     -2.025000
C          14.049000     -1.992000     -0.920000
C          18.996000     -4.032000     -0.332000
C          14.831000     -3.351000     -2.523000
C          16.058000     -0.846000      1.729000
C          14.305000     -1.328000      0.340000
C          19.537000     -0.743000      1.208000
C          20.694000     -1.046000     -0.829000
C          16.682000     -3.401000     -4.049000
C          15.806000     -3.134000      0.991000
C          14.849000      0.655000     -3.226000
C          18.698000     -1.559000     -4.861000
C          15.137000     -1.590000     -4.228000
C          20.458000     -2.444000     -0.859000
C          18.172000     -4.383000     -2.549000
O           1.453000      0.024000      0.125000
C           0.731000      1.208000      0.026000
H          -0.312000      1.138000      0.358000
H           0.713000      1.537000     -1.021000
H           1.085000      1.910000      0.790000
O          -0.019000     -1.363000     -0.949000
C           1.037000     -1.183000     -0.379000
C           2.054000     -2.229000     -0.233000
H           1.424000     -3.127000     -0.244000
H           2.436000     -2.065000      0.783000
C           3.233000     -2.132000     -1.213000
H           2.901000     -2.371000     -2.231000
H           3.446000     -1.056000     -1.217000
C           4.463000     -3.107000     -0.848000
H           4.688000     -3.028000      0.223000
H           4.019000     -4.107000     -0.922000
C           5.638000     -3.094000     -1.767000
C           5.971000     -1.747000     -2.338000
C           6.645000     -0.738000     -1.669000
H           6.654000     -0.905000     -0.596000
C           6.974000      0.414000     -2.357000
H           7.323000      1.239000     -1.743000
C           6.830000      0.514000     -3.778000
H           7.099000      1.444000     -4.271000
C           6.246000     -0.471000     -4.450000
H           6.040000     -0.362000     -5.511000
C           5.789000     -1.612000     -3.752000
H           5.179000     -2.319000     -4.307000
C           8.697000     -6.115000     -5.181000
C          10.347000     -4.758000     -4.099000
C          12.135000     -8.271000     -1.719000
C           5.816000     -8.639000     -2.001000
C          10.226000     -7.495000      1.011000
C           9.088000     -4.918000     -4.621000
C           7.262000     -9.373000      0.291000
C          11.425000     -8.175000     -4.096000
C           9.119000     -3.967000     -0.338000
C           5.684000     -7.912000     -0.800000
C           6.856000     -3.867000     -1.207000
C           8.313000     -4.697000      0.531000
C           6.765000     -7.024000      0.947000
C           8.539000     -9.249000      0.838000
C           8.914000     -3.638000     -2.691000
C          10.741000     -9.433000     -0.305000
C           6.079000     -4.456000     -2.360000
C           5.482000     -5.839000     -2.156000
C          11.155000     -8.269000      0.286000
C           8.584000    -10.119000     -3.565000
C          10.661000     -9.959000     -2.693000
C          10.694000     -9.339000     -3.936000
C          10.884000     -7.109000     -4.776000
C           5.658000     -6.579000     -3.334000
C           8.332000     -3.550000     -1.394000
C          11.261000     -5.914000     -4.189000
C           6.415000     -8.271000      0.356000
C          10.269000     -4.054000     -2.871000
C           8.858000     -5.779000      1.219000
C           6.632000     -8.723000     -4.120000
C          12.122000     -7.649000     -2.968000
C           6.974000     -4.691000      0.061000
C           8.842000     -8.353000     -5.129000
C           8.101000     -6.928000      1.435000
C          10.506000     -4.286000     -0.487000
C           8.718000    -10.444000     -1.158000
C           7.420000    -10.046000     -0.963000
C          11.053000     -5.373000      0.176000
C           5.807000     -8.002000     -3.262000
C           5.557000     -6.488000     -0.867000
C           7.174000     -9.793000     -3.408000
C           6.843000     -4.635000     -3.631000
C          11.977000     -5.430000     -1.865000
C           6.233000     -5.921000      0.223000
C          10.220000     -6.110000      1.010000
C           7.507000     -7.962000     -4.996000
C          11.970000     -7.501000     -0.583000
C           9.540000     -7.193000     -5.253000
C          11.369000     -9.434000     -1.588000
C          11.052000     -4.331000     -1.754000
C          11.931000     -6.072000     -0.620000
C           8.209000     -4.220000     -3.741000
C           6.490000     -5.852000     -4.225000
C           9.367000    -10.464000     -2.458000
C          12.069000     -6.220000     -3.066000
C           8.951000     -7.994000      1.352000
C           6.673000     -9.720000     -2.088000
C           9.384000     -9.852000     -0.117000
C           7.411000     -6.569000     -5.017000
C           9.378000     -9.474000     -4.460000
$end

--------------------------------------------------------------

             Standard Nuclear Orientation (Angstroms)
    I     Atom           X                Y                Z
 ----------------------------------------------------------------
    1      O      12.8318450709    -2.9433704026     0.9517148143
    2      C      14.3010675786    -2.8340717812     1.0430823907
    3      H      14.7753349616    -3.0716734319     2.0026702736
    4      H      14.5724480120    -1.8196559941     0.7238171854
    5      H      14.7822636274    -3.5024010005     0.3187707056
    6      O      12.8441117887    -5.2874071165     0.8691411406
    7      C      12.2654478183    -4.2056942763     0.9476417185
    8      C      10.6699403981    -4.0747708601     1.1021348618
    9      H      10.4998916690    -3.6518380714     2.1001415181
   10      H      10.2728043856    -5.0957776478     1.1561452970
   11      C       9.9886501322    -3.3423043889    -0.1192894879
   12      H      10.5921364614    -3.4896113455    -1.0242303208
   13      H       8.9914043362    -3.7405317266    -0.3419322732
   14      C       9.9915082718    -1.7999971363     0.1473116554
   15      H       9.6239999814    -1.5527848137     1.1508896165
   16      H      10.9870156359    -1.3809760697    -0.0429445768
   17      C       9.0643047028    -1.0407623442    -0.8295005435
   18      C       9.7420853011    -0.8516623988    -2.1941736440
   19      C      10.3904269510     0.3631237929    -2.5895830691
   20      H      10.3636748242     1.2382814636    -1.9483238584
   21      C      10.9049211606     0.4708213836    -3.9019377990
   22      H      11.5017455329     1.3350612426    -4.1745293153
   23      C      10.8689185957    -0.6932238623    -4.7519404348
   24      H      11.3920153208    -0.5747422571    -5.6958678290
   25      C      10.1398594862    -1.7605289090    -4.3960152287
   26      H      10.0716385443    -2.5589329126    -5.1284829413
   27      C       9.5794436529    -1.8827697518    -3.1366482170
   28      H       9.0375351329    -2.8042333607    -2.9424447841
   29      C       5.8898139409     3.4060719830    -1.4679062680
   30      C       4.8361523477     1.7062195829    -2.8994222702
   31      C       1.2410783357     1.1790288053    -0.2686106593
   32      C       6.4694181445     1.5940521479     3.2448895141
   33      C       2.4076635838    -1.8004600548     1.1684387454
   34      C       5.9973633610     2.3036984767    -2.3707333693
   35      C       4.2912691560    -0.0959549736     3.7020206914
   36      C       2.3708483130     3.1209121856    -0.8947589928
   37      C       5.3636453102    -1.9917236205    -1.5045558827
   38      C       6.6756859676     0.1499944001     3.1808207547
   39      C       7.5262942481    -1.2633370550    -0.7381039386
   40      C       5.5191937280    -2.4617881271    -0.2142713988
   41      C       5.6121023110    -1.7360848618     2.4491269503
   42      C       3.1156001664    -0.7155358159     3.1543720754
   43      C       6.2741668843     0.0073474947    -2.5764953116
   44      C       1.3982186348     0.3607993523     1.8655740770
   45      C       8.1296670742     0.0045679739    -0.3068591470
   46      C       7.9809143802     0.5026105219     1.1412086195
   47      C       1.5351586346    -0.7422501895     0.9614290970
   48      C       3.7999634942     3.4839683563     2.2725163371
   49      C       1.8351175771     2.7026811872     1.4531825334
   50      C       2.3817143426     3.5188005109     0.4903246906
   51      C       3.5459139743     3.3327104742    -1.6735273644
   52      C       7.7373009503     1.8353293304     1.1238283383
   53      C       6.4405786277    -1.1938697975    -1.8222505578
   54      C       3.5922083044     2.2759435376    -2.6356575411
   55      C       5.5410057785    -0.6540372756     3.3414163115
   56      C       4.9735739008     0.3392967190    -2.9897284222
   57      C       4.3932041332    -2.6321957298     0.6550914032
   58      C       6.0903925545     3.4543948912     1.9667449685
   59      C       1.8014272614     1.9361930375    -1.2891068165
   60      C       6.7639045479    -1.9982386012     0.3414675793
   61      C       4.6962520388     4.2916568345     0.1960079295
   62      C       4.4472767959    -2.3152406297     1.9654957727
   63      C       4.0941965386    -1.6562170539    -2.0043359943
   64      C       2.8832005429     1.5632750997     3.3873854350
   65      C       4.1538567144     1.3225479317     3.8419504188
   66      C       2.9600207336    -1.8337303219    -1.2046258699
   67      C       7.0054230396     2.3556497957     2.1610473783
   68      C       7.3343417802    -0.3406513704     2.0517108183
   69      C       5.0247857118     3.2480339364     2.8376176419
   70      C       7.7533120128     1.2526879805    -1.0854336886
   71      C       2.6435446148    -0.0129925334    -2.4826645124
   72      C       6.7847715120    -1.5762441964     1.6337025781
   73      C       3.0966500876    -2.3377273142     0.1091033455
   74      C       5.9709229042     3.9768990859     0.6968908945
   75      C       1.3743543475    -0.2407395806    -0.3461041112
   76      C       4.6823034035     3.9342416756    -1.1253072637
   77      C       1.2308635819     1.5002197379     1.0597710793
   78      C       3.9140374117    -0.5105587845    -2.7635005475
   79      C       2.0376653687    -0.8238899089    -1.4923964751
   80      C       6.9215084779     1.2167002912    -2.1658510920
   81      C       7.5879758299     2.2929642380    -0.1715331170
   82      C       2.6676188590     2.6517730431     2.5982886318
   83      C       2.4933502333     1.4045237481    -2.3670174658
   84      C       3.1752636686    -1.8381537028     2.3314393038
   85      C       5.2509707615     2.1859361113     3.7054710473
   86      C       2.2184989115     0.3428684498     3.0057660566
   87      C       6.6866263566     3.3735474260    -0.3473429600
   88      C       3.5990905528     4.0724032384     1.0018568820
   89      O      -8.4017958590    -8.4423311848    -1.3341725799
   90      C      -8.4451656360    -9.8085198949    -1.0800299607
   91      H      -9.3505856968   -10.3129905636    -1.4387734036
   92      H      -8.3904332542    -9.9793277994     0.0028380027
   93      H      -7.7225745282   -10.3179751500    -1.7282069690
   94      O     -10.4574757225    -7.8754899813    -0.4993670046
   95      C      -9.4057830296    -7.5617918602    -1.0170270945
   96      C      -9.0350102931    -6.1701855621    -1.2921279649
   97      H     -10.0261591901    -5.7184654791    -1.4225036933
   98      H      -8.5332552898    -6.2339823944    -2.2664214940
   99      C      -8.0565243779    -5.5460374402    -0.2857212699
  100      H      -8.5525878456    -5.3926009886     0.6807399509
  101      H      -7.3381311387    -6.3588056840    -0.1229947027
  102      C      -7.4471045010    -4.1327464264    -0.7631790416
  103      H      -7.1182100523    -4.2093374917    -1.8071470729
  104      H      -8.3340393158    -3.4926669327    -0.8422794592
  105      C      -6.5083947422    -3.4457186995     0.1707223939
  106      C      -5.6022283193    -4.3649408844     0.9357269617
  107      C      -4.4592942906    -4.9647254769     0.4318636382
  108      H      -4.4389428570    -4.9400564626    -0.6536207048
  109      C      -3.6639452260    -5.7057195502     1.2845280790
  110      H      -2.8978876054    -6.3057850130     0.8023464095
  111      C      -3.8651282125    -5.7013707275     2.7020905974
  112      H      -3.2145528129    -6.3049943874     3.3287484997
  113      C      -4.9187203869    -5.0763582333     3.2141139486
  114      H      -5.1368647453    -5.1521922333     4.2755753202
  115      C      -5.8181854594    -4.4105200107     2.3506580755
  116      H      -6.7455911864    -4.0498983271     2.7863696990
  117      C      -5.6742208293     1.0737703281     3.1736694152
  118      C      -3.4791121564     0.6215175232     2.3300828372
  119      C      -3.4702672386     4.2576043833    -0.4950378883
  120      C      -9.1321987017     1.4156916165    -0.3912451513
  121      C      -4.4888891014     2.3177859625    -3.1216080843
  122      C      -4.6917925896     0.1827633466     2.7991946994
  123      C      -8.0448475624     2.5112835103    -2.7365131321
  124      C      -4.2471269065     4.0891132114     1.8568857460
  125      C      -3.8106511371    -1.1054168380    -1.3012482709
  126      C      -8.7777040686     0.5895677465    -1.4776184326
  127      C      -5.7915372283    -2.2336453238    -0.4708743927
  128      C      -4.7917779611    -0.9869666216    -2.2815832653
  129      C      -7.2475955820     0.1753809827    -3.0575967059
  130      C      -6.8323006922     2.9870662629    -3.2351862312
  131      C      -4.0336810585    -1.2211665095     1.0701932038
  132      C      -5.1250911453     4.3866016591    -2.0880832550
  133      C      -6.8576993628    -1.9898531048     0.5702416704
  134      C      -8.0423177407    -1.1310692203     0.1580723625
  135      C      -4.1364550327     3.5318930589    -2.4975278124
  136      C      -7.6182718452     4.2580216995     0.9971010493
  137      C      -5.6683993356     5.0695569449     0.1975256984
  138      C      -5.4424482402     4.6979082949     1.5171322244
  139      C      -4.2447059229     2.9817214690     2.6724313718
  140      C      -8.3632498298    -0.2742471282     1.2206722386
  141      C      -4.3766889369    -1.7385946873    -0.2117157930
  142      C      -3.2729494935     2.0822709886     2.2706835961
  143      C      -8.2222557463     1.1334114047    -2.6588420510
  144      C      -3.0870389834    -0.1607621034     1.2147348140
  145      C      -4.7979878634     0.1352195208    -3.1072664363
  146      C      -8.6584795980     2.1418459713     1.7090793627
  147      C      -3.2835585931     3.8617155930     0.8299020905
  148      C      -5.9863488029    -1.6140896732    -1.8416126049
  149      C      -6.6570160554     3.0560339999     2.8033759112
  150      C      -6.0033029738     0.7116500093    -3.5007754918
  151      C      -2.7854065175    -0.1154116714    -1.1728183674
  152      C      -7.4497213477     4.3283376071    -1.4285692504
  153      C      -8.3547791662     3.3103860812    -1.5894357668
  154      C      -2.7946033898     1.0149227998    -1.9744457127
  155      C      -8.9356499526     1.0103592399     0.9478012459
  156      C      -8.1853733506    -0.6853634535    -1.2091249392
  157      C      -8.6591748113     3.2495036933     0.8613164904
  158      C      -6.4005314324    -1.3056802707     1.8168703307
  159      C      -2.2072983346     1.7635541517     0.0546747546
  160      C      -7.2229333935    -0.9540946708    -2.1930242540
  161      C      -3.8056320341     1.1297412100    -2.9216794817
  162      C      -7.6030122874     2.0324932254     2.7021315936
  163      C      -3.1286694742     3.3854687311    -1.5115571313
  164      C      -5.4889575888     2.4298880905     3.1062962288
  165      C      -4.6978834693     4.8511981734    -0.8066318589
  166      C      -2.4494202760     0.3436207194     0.0848908637
  167      C      -2.4552282459     2.1472383063    -1.2703241995
  168      C      -5.0250435528    -0.9588124869     2.0117980954
  169      C      -7.3631342722    -0.3744913365     2.2228468592
  170      C      -7.0153489608     4.8217356708    -0.1326217282
  171      C      -2.6276357155     2.6233993086     1.1312191302
  172      C      -5.8070126509     2.0622908759    -3.5554047751
  173      C      -8.9376800997     2.7831582812    -0.4439370332
  174      C      -6.4878499401     4.0387739443    -2.3605871045
  175      C      -6.9952382224     0.7944701566     2.9212561405
  176      C      -6.6920747219     4.2092239369     1.9907124759
 ----------------------------------------------------------------

    9   -5804.2371052132      8.61E-06 Convergence criterion met
 Total energy in the final basis set = -5804.2371052132

                    Orbital Energies (a.u.)
 --------------------------------------------------------------

 Alpha MOs
 -- Occupied --
-19.203 -19.190 -19.145 -19.134 -10.327 -10.314 -10.252 -10.246
-10.243 -10.242 -10.242 -10.237 -10.236 -10.236 -10.232 -10.230
-10.230 -10.230 -10.226 -10.224 -10.224 -10.224 -10.223 -10.223
-10.222 -10.222 -10.222 -10.221 -10.221 -10.221 -10.220 -10.220
-10.220 -10.220 -10.219 -10.219 -10.219 -10.219 -10.219 -10.218
-10.218 -10.218 -10.218 -10.218 -10.218 -10.217 -10.217 -10.217
-10.217 -10.216 -10.216 -10.216 -10.216 -10.216 -10.216 -10.216
-10.216 -10.216 -10.216 -10.215 -10.215 -10.215 -10.215 -10.215
-10.215 -10.215 -10.215 -10.215 -10.215 -10.214 -10.214 -10.214
-10.214 -10.214 -10.214 -10.214 -10.214 -10.214 -10.214 -10.214
-10.214 -10.213 -10.213 -10.213 -10.213 -10.213 -10.213 -10.213
-10.213 -10.212 -10.212 -10.212 -10.212 -10.212 -10.212 -10.212
-10.212 -10.211 -10.211 -10.211 -10.211 -10.211 -10.211 -10.210
-10.210 -10.210 -10.210 -10.210 -10.210 -10.210 -10.209 -10.209
-10.209 -10.209 -10.209 -10.209 -10.209 -10.209 -10.209 -10.208
-10.208 -10.208 -10.208 -10.207 -10.207 -10.207 -10.207 -10.207
-10.207 -10.207 -10.206 -10.206 -10.205 -10.205 -10.205 -10.205
-10.203 -10.202 -10.202 -10.200 -10.199 -10.199 -10.199 -10.198
-10.197 -10.195 -10.193 -10.191  -1.097  -1.084  -1.017  -1.010
 -0.983  -0.983  -0.966  -0.965  -0.964  -0.962  -0.961  -0.960
 -0.935  -0.933  -0.929  -0.927  -0.926  -0.923  -0.922  -0.921
 -0.920  -0.920  -0.897  -0.893  -0.893  -0.892  -0.888  -0.884
 -0.876  -0.874  -0.857  -0.856  -0.844  -0.840  -0.840  -0.839
 -0.836  -0.834  -0.821  -0.821  -0.808  -0.798  -0.798  -0.797
 -0.796  -0.795  -0.794  -0.793  -0.791  -0.790  -0.785  -0.785
 -0.772  -0.772  -0.770  -0.768  -0.768  -0.766  -0.763  -0.761
 -0.755  -0.751  -0.743  -0.738  -0.733  -0.732  -0.717  -0.717
 -0.715  -0.714  -0.714  -0.712  -0.709  -0.709  -0.709  -0.708
 -0.708  -0.707  -0.705  -0.705  -0.703  -0.702  -0.673  -0.672
 -0.661  -0.658  -0.657  -0.654  -0.648  -0.645  -0.634  -0.631
 -0.629  -0.628  -0.625  -0.623  -0.623  -0.621  -0.621  -0.617
 -0.616  -0.615  -0.614  -0.612  -0.611  -0.610  -0.610  -0.608
 -0.608  -0.606  -0.604  -0.601  -0.570  -0.570  -0.565  -0.562
 -0.561  -0.561  -0.559  -0.559  -0.556  -0.556  -0.554  -0.554
 -0.539  -0.535  -0.532  -0.532  -0.528  -0.527  -0.526  -0.524
 -0.524  -0.523  -0.520  -0.518  -0.517  -0.514  -0.514  -0.513
 -0.510  -0.505  -0.497  -0.496  -0.492  -0.488  -0.488  -0.486
 -0.485  -0.485  -0.484  -0.482  -0.480  -0.477  -0.476  -0.473
 -0.472  -0.472  -0.471  -0.470  -0.469  -0.468  -0.467  -0.466
 -0.465  -0.464  -0.463  -0.461  -0.461  -0.460  -0.459  -0.457
 -0.456  -0.454  -0.451  -0.450  -0.448  -0.448  -0.445  -0.444
 -0.443  -0.441  -0.441  -0.437  -0.437  -0.437  -0.432  -0.432
 -0.431  -0.431  -0.429  -0.429  -0.426  -0.426  -0.426  -0.424
 -0.423  -0.421  -0.421  -0.421  -0.421  -0.420  -0.418  -0.417
 -0.417  -0.416  -0.415  -0.415  -0.414  -0.414  -0.412  -0.412
 -0.411  -0.411  -0.408  -0.406  -0.404  -0.404  -0.398  -0.397
 -0.395  -0.394  -0.390  -0.390  -0.389  -0.388  -0.386  -0.385
 -0.380  -0.379  -0.374  -0.374  -0.371  -0.370  -0.369  -0.367
 -0.366  -0.365  -0.364  -0.363  -0.361  -0.359  -0.359  -0.358
 -0.357  -0.356  -0.356  -0.354  -0.354  -0.353  -0.351  -0.351
 -0.349  -0.349  -0.349  -0.347  -0.347  -0.346  -0.344  -0.344
 -0.343  -0.341  -0.340  -0.340  -0.338  -0.337  -0.336  -0.332
 -0.332  -0.331  -0.329  -0.329  -0.327  -0.327  -0.326  -0.322
 -0.306  -0.306  -0.304  -0.297  -0.290  -0.288  -0.272  -0.271
 -0.270  -0.269  -0.269  -0.267  -0.267  -0.265  -0.264  -0.263
 -0.263  -0.261  -0.260  -0.259  -0.258  -0.257  -0.256  -0.256
 -0.249  -0.248  -0.245  -0.241  -0.223  -0.222  -0.213  -0.210
 -0.209  -0.208  -0.206  -0.204  -0.201  -0.196

          Ground-State Mulliken Net Atomic Charges

     Atom                 Charge (a.u.)
  ----------------------------------------
      1 O                    -0.459101
      2 C                    -0.097355
      3 H                     0.132899
      4 H                     0.127174
      5 H                     0.137227
      6 O                    -0.456422
      7 C                     0.573822
      8 C                    -0.245171
      9 H                     0.128641
     10 H                     0.126000
     11 C                    -0.194037
     12 H                     0.120428
     13 H                     0.112675
     14 C                    -0.169819
     15 H                     0.103452
     16 H                     0.131303
     17 C                     0.002428
     18 C                     0.066053
     19 C                    -0.108576
     20 H                     0.095444
     21 C                    -0.100646
     22 H                     0.092519
     23 C                    -0.078728
     24 H                     0.089023
     25 C                    -0.078985
     26 H                     0.087602
     27 C                    -0.096718
     28 H                     0.093957
     29 C                    -0.014797
     30 C                     0.009132
     31 C                     0.015005
     32 C                    -0.014095
     33 C                     0.012308
     34 C                    -0.000242
     35 C                    -0.015466
     36 C                    -0.012530
     37 C                     0.032407
     38 C                    -0.048551
     39 C                    -0.066473
     40 C                    -0.001706
     41 C                    -0.001820
     42 C                     0.030353
     43 C                    -0.023336
     44 C                    -0.009500
     45 C                    -0.118169
     46 C                     0.015747
     47 C                     0.009224
     48 C                     0.007336
     49 C                    -0.010983
     50 C                    -0.008988
     51 C                    -0.004728
     52 C                     0.010390
     53 C                     0.024420
     54 C                    -0.028500
     55 C                     0.001013
     56 C                     0.021612
     57 C                    -0.011454
     58 C                    -0.017164
     59 C                     0.029695
     60 C                     0.011685
     61 C                    -0.013213
     62 C                     0.007387
     63 C                    -0.008230
     64 C                    -0.006236
     65 C                     0.041100
     66 C                     0.003466
     67 C                     0.014666
     68 C                     0.014556
     69 C                     0.013493
     70 C                     0.039356
     71 C                    -0.022509
     72 C                     0.013851
     73 C                     0.000090
     74 C                    -0.005630
     75 C                    -0.022704
     76 C                     0.022614
     77 C                     0.018413
     78 C                     0.017194
     79 C                    -0.018726
     80 C                    -0.005306
     81 C                     0.014250
     82 C                     0.004304
     83 C                    -0.003838
     84 C                    -0.027308
     85 C                    -0.035757
     86 C                    -0.022453
     87 C                     0.001074
     88 C                     0.009105
     89 O                    -0.457489
     90 C                    -0.079691
     91 H                     0.119196
     92 H                     0.122511
     93 H                     0.120086
     94 O                    -0.461511
     95 C                     0.568051
     96 C                    -0.232417
     97 H                     0.132648
     98 H                     0.119290
     99 C                    -0.197610
    100 H                     0.115401
    101 H                     0.124924
    102 C                    -0.195884
    103 H                     0.108905
    104 H                     0.119834
    105 C                     0.019460
    106 C                     0.071258
    107 C                    -0.088613
    108 H                     0.091414
    109 C                    -0.104460
    110 H                     0.090930
    111 C                    -0.075205
    112 H                     0.091517
    113 C                    -0.076850
    114 H                     0.092279
    115 C                    -0.112668
    116 H                     0.090875
    117 C                     0.017754
    118 C                    -0.007788
    119 C                     0.006634
    120 C                     0.004577
    121 C                     0.005660
    122 C                    -0.000835
    123 C                     0.003324
    124 C                     0.013412
    125 C                     0.025260
    126 C                    -0.011022
    127 C                    -0.066635
    128 C                     0.001941
    129 C                    -0.020043
    130 C                    -0.026562
    131 C                    -0.006589
    132 C                     0.002078
    133 C                    -0.093663
    134 C                     0.024959
    135 C                    -0.016911
    136 C                     0.018701
    137 C                     0.008826
    138 C                    -0.006513
    139 C                    -0.000465
    140 C                    -0.004860
    141 C                     0.025925
    142 C                    -0.015638
    143 C                     0.011606
    144 C                     0.001128
    145 C                    -0.015106
    146 C                    -0.018020
    147 C                    -0.005528
    148 C                     0.016160
    149 C                     0.007334
    150 C                     0.005038
    151 C                     0.008136
    152 C                    -0.011899
    153 C                     0.016435
    154 C                    -0.010233
    155 C                     0.003892
    156 C                    -0.002682
    157 C                    -0.006526
    158 C                     0.038164
    159 C                    -0.022356
    160 C                    -0.004633
    161 C                     0.010310
    162 C                    -0.024302
    163 C                     0.004971
    164 C                     0.011843
    165 C                    -0.020549
    166 C                    -0.004103
    167 C                     0.021505
    168 C                     0.004839
    169 C                    -0.010072
    170 C                    -0.013585
    171 C                    -0.009496
    172 C                     0.008642
    173 C                    -0.004103
    174 C                     0.020365
    175 C                     0.005670
    176 C                    -0.010474
  ----------------------------------------
  Sum of atomic charges =     0.000000

                    Cartesian Multipole Moments
 -----------------------------------------------------------------
    Charge (ESU x 10^10)
                 0.0000
    Dipole Moment (Debye)
         X       4.0972      Y      -1.5391      Z      -1.0442
       Tot       4.4996
    Quadrupole Moments (Debye-Ang)
        XX    -805.1297     XY      19.2752     YY    -806.1889
        XZ      -6.9782     YZ       5.8325     ZZ    -797.1230

 Total job time:  829.71s(wall), 7906.23s(cpu)
        *  Thank you very much for using Q-Chem.  Have a nice day.  *
