 Q-Chem 4.4, Q-Chem, Inc., Pleasanton, CA (2016)
 Q-Chem 4.4.2 for Intel X86 Linux

User input:
--------------------------------------------------------------
$comment
SP
$end

$rem
MEM_STATIC 5000
MEM_TOTAL 20000
JOBTYPE SP
EXCHANGE B3LYP
BASIS 6-31g(d,p)
$end

$molecule
0 1
O          17.000000     -8.810000     -7.590000
C          17.960000     -9.267000     -6.563000
H          18.582000    -10.121000     -6.858000
H          17.357000     -9.545000     -5.690000
H          18.674000     -8.491000     -6.260000
O          18.680000     -8.570000     -9.036000
C          17.495000     -8.520000     -8.786000
C          16.370000     -8.060000     -9.721000
H          15.763000     -7.330000     -9.171000
H          15.849000     -9.006000     -9.913000
C          16.846000     -7.603000    -11.134000
H          17.095000     -6.537000    -11.052000
H          17.729000     -8.140000    -11.503000
C          15.674000     -7.722000    -12.137000
H          15.966000     -7.612000    -13.189000
H          15.194000     -8.708000    -12.182000
C          14.553000     -6.738000    -11.752000
C          15.040000     -5.272000    -11.784000
C          15.335000     -4.631000    -13.027000
H          15.265000     -5.287000    -13.889000
C          15.695000     -3.292000    -13.145000
H          15.891000     -2.891000    -14.135000
C          15.622000     -2.532000    -11.977000
H          15.711000     -1.454000    -12.082000
C          15.471000     -3.139000    -10.718000
H          15.473000     -2.566000     -9.795000
C          15.109000     -4.487000    -10.605000
H          15.023000     -4.881000     -9.596000
C           9.869000     -5.508000     -9.000000
C           9.582000     -4.548000    -11.240000
C           6.440000     -7.537000    -12.718000
C          11.032000    -10.436000     -9.467000
C           8.780000     -9.416000    -14.516000
C          10.410000     -4.879000    -10.126000
C           9.761000    -11.376000    -11.742000
C           6.693000     -6.501000    -10.585000
C          11.638000     -6.583000    -14.125000
C          11.811000    -10.589000    -10.662000
C          13.250000     -7.060000    -12.357000
C          11.980000     -7.970000    -14.154000
C          11.607000    -10.419000    -12.911000
C           8.933000    -11.167000    -12.812000
C          11.590000     -5.135000    -12.136000
C           6.968000     -9.738000    -12.919000
C          13.332000     -7.184000    -10.908000
C          12.956000     -8.457000    -10.315000
C           7.518000     -9.074000    -14.041000
C           7.716000     -9.377000     -9.005000
C           6.337000     -8.885000    -10.736000
C           6.580000     -7.743000     -9.969000
C           7.681000     -5.616000    -10.083000
C          12.170000     -8.309000     -9.161000
C          12.319000     -6.042000    -12.994000
C           8.204000     -4.930000    -11.188000
C          11.148000    -11.123000    -11.776000
C          10.314000     -4.709000    -12.481000
C          10.950000     -8.900000    -14.636000
C           9.951000     -8.906000     -8.285000
C           6.657000     -6.408000    -11.950000
C          12.887000     -8.292000    -13.171000
C           8.362000     -7.140000     -8.463000
C          10.785000    -10.130000    -13.985000
C          10.323000     -6.198000    -14.423000
C           7.694000    -10.947000    -10.893000
C           9.011000    -11.328000    -10.582000
C           9.347000     -7.087000    -14.863000
C          11.253000     -9.264000     -8.738000
C          12.682000     -9.592000    -11.117000
C           8.995000     -9.857000     -8.711000
C          12.405000     -6.263000    -10.099000
C           8.332000     -5.588000    -13.507000
C          12.574000     -9.481000    -12.518000
C           9.694000     -8.466000    -15.003000
C           9.626000     -7.610000     -8.131000
C           7.166000     -7.704000    -13.925000
C           8.465000     -5.849000     -8.947000
C           6.275000     -8.772000    -12.168000
C           9.702000     -5.220000    -13.607000
C           8.117000     -6.721000    -14.315000
C          11.664000     -5.179000    -10.692000
C          11.807000     -6.946000     -9.026000
C           7.054000     -9.949000    -10.125000
C           7.618000     -5.374000    -12.328000
C           9.423000    -10.456000    -13.920000
C           9.661000    -10.851000     -9.438000
C           7.622000    -10.854000    -12.326000
C          10.563000     -6.606000     -8.491000
C           7.396000     -8.061000     -8.864000
O           1.453000      0.024000      0.125000
C           0.731000      1.208000      0.026000
H          -0.312000      1.138000      0.358000
H           0.713000      1.537000     -1.021000
H           1.085000      1.910000      0.790000
O          -0.019000     -1.363000     -0.949000
C           1.037000     -1.183000     -0.379000
C           2.054000     -2.229000     -0.233000
H           1.424000     -3.127000     -0.244000
H           2.436000     -2.065000      0.783000
C           3.233000     -2.132000     -1.213000
H           2.901000     -2.371000     -2.231000
H           3.446000     -1.056000     -1.217000
C           4.463000     -3.107000     -0.848000
H           4.688000     -3.028000      0.223000
H           4.019000     -4.107000     -0.922000
C           5.638000     -3.094000     -1.767000
C           5.971000     -1.747000     -2.338000
C           6.645000     -0.738000     -1.669000
H           6.654000     -0.905000     -0.596000
C           6.974000      0.414000     -2.357000
H           7.323000      1.239000     -1.743000
C           6.830000      0.514000     -3.778000
H           7.099000      1.444000     -4.271000
C           6.246000     -0.471000     -4.450000
H           6.040000     -0.362000     -5.511000
C           5.789000     -1.612000     -3.752000
H           5.179000     -2.319000     -4.307000
C           8.697000     -6.115000     -5.181000
C          10.347000     -4.758000     -4.099000
C          12.135000     -8.271000     -1.719000
C           5.816000     -8.639000     -2.001000
C          10.226000     -7.495000      1.011000
C           9.088000     -4.918000     -4.621000
C           7.262000     -9.373000      0.291000
C          11.425000     -8.175000     -4.096000
C           9.119000     -3.967000     -0.338000
C           5.684000     -7.912000     -0.800000
C           6.856000     -3.867000     -1.207000
C           8.313000     -4.697000      0.531000
C           6.765000     -7.024000      0.947000
C           8.539000     -9.249000      0.838000
C           8.914000     -3.638000     -2.691000
C          10.741000     -9.433000     -0.305000
C           6.079000     -4.456000     -2.360000
C           5.482000     -5.839000     -2.156000
C          11.155000     -8.269000      0.286000
C           8.584000    -10.119000     -3.565000
C          10.661000     -9.959000     -2.693000
C          10.694000     -9.339000     -3.936000
C          10.884000     -7.109000     -4.776000
C           5.658000     -6.579000     -3.334000
C           8.332000     -3.550000     -1.394000
C          11.261000     -5.914000     -4.189000
C           6.415000     -8.271000      0.356000
C          10.269000     -4.054000     -2.871000
C           8.858000     -5.779000      1.219000
C           6.632000     -8.723000     -4.120000
C          12.122000     -7.649000     -2.968000
C           6.974000     -4.691000      0.061000
C           8.842000     -8.353000     -5.129000
C           8.101000     -6.928000      1.435000
C          10.506000     -4.286000     -0.487000
C           8.718000    -10.444000     -1.158000
C           7.420000    -10.046000     -0.963000
C          11.053000     -5.373000      0.176000
C           5.807000     -8.002000     -3.262000
C           5.557000     -6.488000     -0.867000
C           7.174000     -9.793000     -3.408000
C           6.843000     -4.635000     -3.631000
C          11.977000     -5.430000     -1.865000
C           6.233000     -5.921000      0.223000
C          10.220000     -6.110000      1.010000
C           7.507000     -7.962000     -4.996000
C          11.970000     -7.501000     -0.583000
C           9.540000     -7.193000     -5.253000
C          11.369000     -9.434000     -1.588000
C          11.052000     -4.331000     -1.754000
C          11.931000     -6.072000     -0.620000
C           8.209000     -4.220000     -3.741000
C           6.490000     -5.852000     -4.225000
C           9.367000    -10.464000     -2.458000
C          12.069000     -6.220000     -3.066000
C           8.951000     -7.994000      1.352000
C           6.673000     -9.720000     -2.088000
C           9.384000     -9.852000     -0.117000
C           7.411000     -6.569000     -5.017000
C           9.378000     -9.474000     -4.460000
$end

--------------------------------------------------------------

             Standard Nuclear Orientation (Angstroms)
    I     Atom           X                Y                Z
 ----------------------------------------------------------------
    1      O       4.5473794784    -6.3020809332     1.5078515553
    2      C       4.1561726317    -7.7275469834     1.4943703547
    3      H       4.8782184662    -8.4013383963     1.0170026297
    4      H       3.2055446322    -7.7734934900     0.9491939383
    5      H       4.0028101123    -8.1453137299     2.4972322012
    6      O       6.4586644882    -6.8488453725     2.5172841975
    7      C       5.7333716732    -6.0111793957     2.0258668150
    8      C       5.9743806483    -4.4979945766     1.9655644336
    9      H       5.0645790478    -4.0051876879     2.3306006210
   10      H       6.1514794371    -4.3505358362     0.8931312474
   11      C       7.3028648013    -4.0249199850     2.6313904515
   12      H       7.0801552486    -3.8588577481     3.6934190710
   13      H       8.1229173072    -4.7502433375     2.5562976966
   14      C       7.7222092990    -2.6605825291     2.0343247108
   15      H       8.7402671449    -2.3459123701     2.2962577433
   16      H       7.7970427207    -2.6311926852     0.9397210400
   17      C       6.6821175487    -1.5855812575     2.4027041579
   18      C       6.5630782254    -1.4023046787     3.9322754492
   19      C       7.6230557105    -0.7978758933     4.6766332762
   20      H       8.5065112476    -0.5768733012     4.0859183126
   21      C       7.5568163495    -0.5207315271     6.0387082915
   22      H       8.4109652625    -0.0498393509     6.5162092787
   23      C       6.3205389143    -0.7359056703     6.6490124707
   24      H       6.1922426513    -0.3489089001     7.6563870628
   25      C       5.2984519419    -1.4492290663     5.9987517894
   26      H       4.3529723532    -1.6769649332     6.4829694289
   27      C       5.3703919641    -1.7257909671     4.6278925157
   28      H       4.5437749142    -2.2902819855     4.2050838795
   29      C       2.0218125708     1.2696810160     1.3278577212
   30      C       3.6372636384     2.9336515655     2.1297859343
   31      C       4.3372678117     5.0022407768    -1.8978314547
   32      C       4.0933841362    -1.2888757536    -2.5474771684
   33      C       7.3385861298     3.3011390750    -2.4786811368
   34      C       3.0846242022     1.6186177326     2.1674246359
   35      C       5.7830634419     0.4537069487    -3.8827881319
   36      C       2.3247159860     4.1703741846    -0.9259121568
   37      C       7.5106969910     1.9197937666     1.3172636719
   38      C       5.5027320599    -1.3907298572    -2.2992047950
   39      C       6.7462913984    -0.3849840660     1.5530182743
   40      C       8.0100278515     1.1389419655     0.2298294640
   41      C       7.3493818589    -0.0865634497    -2.1667227156
   42      C       6.3262566287     1.7015652752    -4.0309628896
   43      C       5.4005130216     1.5510071487     2.5281513817
   44      C       5.2594245520     3.8490892269    -3.6250993694
   45      C       5.5393641979    -1.1915487093     1.4326803797
   46      C       5.1666043073    -1.6588485691     0.1074502469
   47      C       6.3141209643     4.2021980870    -2.7503367670
   48      C       2.0526079211     1.5162189215    -3.0928736332
   49      C       2.8781359310     3.6243587817    -3.2125224306
   50      C       2.0340434552     3.4954288246    -2.1069063315
   51      C       2.0850489430     3.4813185548     0.2902848040
   52      C       3.7914878801    -1.5336791165    -0.1471149115
   53      C       6.6735707795     1.0423938679     2.0689232516
   54      C       3.1083237921     3.8559723169     1.1721539222
   55      C       6.3307831004    -0.5330954592    -3.0371178751
   56      C       5.0692658188     2.8880616907     2.3514102082
   57      C       8.2253913716     1.8346805715    -1.0459802187
   58      C       2.2406055720    -0.4214927516    -1.6980989722
   59      C       3.4845623648     4.8885163064    -0.8154663751
   60      C       7.6030628399    -0.1724566519     0.3148891230
   61      C       1.3123233154     1.5895216164    -0.8209021506
   62      C       7.8794761239     1.1886752594    -2.2405285760
   63      C       7.1317634087     3.2497195284     1.0849690133
   64      C       4.0741703565     1.8459471087    -4.4473080695
   65      C       4.4415817660     0.5097145340    -4.2109558691
   66      C       7.3230170351     3.8980308001    -0.1314238284
   67      C       3.2662776998    -1.3708280260    -1.4236245232
   68      C       6.0267929221    -1.4859372204    -1.0046118973
   69      C       2.4427300765     0.1808467279    -2.9614856256
   70      C       4.2233746996    -0.4973145683     1.8177279062
   71      C       5.3525692370     4.6179951147     0.7141226580
   72      C       7.1838893229    -0.6867030224    -0.9090157888
   73      C       7.9198661023     3.1694631049    -1.2059517733
   74      C       1.6604773315     0.2515874605    -0.6884598026
   75      C       5.7383841832     4.9428348560    -1.6853276894
   76      C       1.4713614312     2.2276024513     0.3952827554
   77      C       4.0811213356     4.4027752999    -3.0936492187
   78      C       5.9236121585     3.7197390408     1.6571868168
   79      C       6.2421430526     4.7478041210    -0.3696605530
   80      C       4.1755263332     0.7833919533     2.4759735590
   81      C       3.1961739378    -0.7960832004     0.9061260746
   82      C       2.8954143763     2.3615859585    -3.8641452143
   83      C       3.9697854568     4.6990727205     0.5499019557
   84      C       7.3324310394     2.1132394401    -3.1413436243
   85      C       3.5954157951    -0.3735353004    -3.5307809801
   86      C       5.2786402204     2.6252104648    -4.3507525467
   87      C       2.1270733935     0.0611931311     0.6388017067
   88      C       1.4811880363     2.1991256899    -2.0627014821
   89      O     -10.8111425520     5.6501486704     2.2358615447
   90      C     -11.3081800095     6.7167069051     2.9763669788
   91      H     -12.0175124971     7.3572522133     2.4382943720
   92      H     -10.4760767394     7.3572484075     3.2958739922
   93      H     -11.9982607585     6.3351078170     3.7379355546
   94      O     -10.1517512763     6.8072541233     0.3729769223
   95      C     -10.2543040915     5.7654590233     0.9866396063
   96      C      -9.7084415116     4.4948126787     0.4995945256
   97      H      -9.7469898134     4.6599534516    -0.5842262868
   98      H     -10.4793393908     3.7670068867     0.7843596727
   99      C      -8.3805707953     4.0674458148     1.1429971404
  100      H      -7.5691562686     4.7282782863     0.8134885511
  101      H      -8.5452598898     4.3070369569     2.2006523709
  102      C      -7.9549106438     2.5498875256     0.8074672993
  103      H      -8.8192030910     1.8879680362     0.9444642164
  104      H      -7.8362901156     2.5593788192    -0.2826937372
  105      C      -6.6621392192     2.0647144873     1.3720061966
  106      C      -6.3442778492     2.5834754317     2.7435710810
  107      C      -6.8909458061     2.1099021142     3.9254342109
  108      H      -7.7882980997     1.5252085317     3.7460149371
  109      C      -6.4255689468     2.6142822720     5.1244813473
  110      H      -7.0155677825     2.3550226614     5.9986139620
  111      C      -5.2633164284     3.4474677072     5.1948241799
  112      H      -4.9409413060     3.8220275599     6.1623412067
  113      C      -4.6822230841     3.8602538802     4.0746442387
  114      H      -3.8636832803     4.5733338511     4.1139830830
  115      C      -5.2123689343     3.4566238422     2.8280640488
  116      H      -4.8111252949     3.9389023554     1.9412805479
  117      C      -1.6710541221     0.1376155938     0.1412838851
  118      C      -2.2560752986    -1.1756524827     2.0564210035
  119      C      -2.7586310690    -5.0599520595    -0.3647703345
  120      C      -5.0582402837    -0.0583659995    -3.5017503064
  121      C      -6.1341171105    -4.5637244426    -0.6080996100
  122      C      -2.2850387890     0.0114798461     1.3686398245
  123      C      -6.2900109142    -2.5799708275    -3.5865217957
  124      C      -0.9930383953    -3.3215511620    -0.5199793223
  125      C      -6.2553508317    -1.7075403016     2.0973668077
  126      C      -6.3401766544    -0.2550923280    -2.9483138663
  127      C      -6.4607420930     0.5394545518     1.2056501719
  128      C      -7.1791515426    -1.7614853391     1.0574729769
  129      C      -7.6336162864    -1.6136438236    -1.7274675401
  130      C      -6.2668675092    -3.8069451804    -2.9237153985
  131      C      -4.3558909853    -0.2926625131     2.3749422673
  132      C      -4.3023733430    -5.0726173386    -2.0705180832
  133      C      -5.6328861078     1.4853169368     0.3689555942
  134      C      -5.7303780903     1.3380490038    -1.1408528272
  135      C      -4.9260716832    -5.2442995347    -0.8634146892
  136      C      -2.1789764323    -2.0599942500    -3.5422968322
  137      C      -2.1158750318    -4.0628955128    -2.5009910439
  138      C      -1.1601269442    -3.2588646736    -1.8922070079
  139      C      -0.8768970455    -2.1643501248     0.2140737728
  140      C      -4.4471604370     1.4839841979    -1.6870353731
  141      C      -5.7570220661    -0.4203121472     2.1530993827
  142      C      -1.5199198649    -2.2930978466     1.4325435828
  143      C      -6.9634068452    -1.5240050118    -2.9802940198
  144      C      -3.5336800366    -1.4367859123     2.6124960573
  145      C      -7.2968190991    -2.9317337516     0.3106356458
  146      C      -2.8396207941     0.2795790912    -3.1459502559
  147      C      -1.8172793387    -4.2158517323     0.2254885557
  148      C      -7.3267255123    -0.4732210213     0.4808847608
  149      C      -1.1216327814    -0.8474417330    -1.7978322159
  150      C      -7.5274422671    -2.8696383245    -1.0615389467
  151      C      -5.4701523676    -2.8552396143     2.4349770258
  152      C      -4.1563530365    -3.4430136310    -3.8496551848
  153      C      -4.9636520391    -2.3580313717    -4.0783795114
  154      C      -5.5638673236    -4.0169734985     1.6853511930
  155      C      -4.1082798510     0.7939850646    -2.8959088753
  156      C      -6.6745076948     0.4154605758    -1.7288977936
  157      C      -2.9824529478    -0.8952684273    -3.8841509633
  158      C      -4.1569322834     1.4219656950     0.5896928329
  159      C      -3.3750685911    -3.7917790349     2.1109725765
  160      C      -7.4839730676    -0.4284998453    -0.9549070844
  161      C      -6.4665600172    -4.0353932388     0.6282700163
  162      C      -1.8883151118     0.2939331238    -2.0473450218
  163      C      -4.0075948644    -5.1831313354     0.2144854846
  164      C      -0.9989198221    -0.9027608237    -0.4450346228
  165      C      -2.9151200514    -4.9552587893    -1.7507849512
  166      C      -4.1206122451    -2.6972179416     2.6782887783
  167      C      -4.3327363307    -4.5947805397     1.4766492490
  168      C      -3.5900137975     0.5494243263     1.5733370726
  169      C      -3.4925085532     1.5267499736    -0.6375379366
  170      C      -2.7408965585    -3.3413142411    -3.5370193058
  171      C      -2.0947628667    -3.5871625964     1.4833466010
  172      C      -6.8456087647    -3.9057528975    -1.6336531541
  173      C      -4.3663972432    -1.1037727422    -4.0840362753
  174      C      -4.9329877484    -4.2461157966    -3.0562029582
  175      C      -2.2426564294     0.9061657369    -0.8433020582
  176      C      -1.2170750615    -2.0161807258    -2.5829678334
 ----------------------------------------------------------------

    9   -5804.2558279066      8.43E-06 Convergence criterion met
 Total energy in the final basis set = -5804.2558279066

                    Orbital Energies (a.u.)
 --------------------------------------------------------------

 Alpha MOs
 -- Occupied --
-19.194 -19.190 -19.135 -19.128 -10.314 -10.310 -10.247 -10.246
-10.244 -10.243 -10.243 -10.242 -10.240 -10.236 -10.236 -10.233
-10.231 -10.231 -10.230 -10.228 -10.227 -10.225 -10.224 -10.224
-10.224 -10.224 -10.223 -10.223 -10.223 -10.222 -10.222 -10.221
-10.221 -10.221 -10.221 -10.221 -10.221 -10.221 -10.220 -10.220
-10.220 -10.220 -10.219 -10.219 -10.219 -10.219 -10.218 -10.218
-10.218 -10.218 -10.218 -10.217 -10.217 -10.217 -10.217 -10.217
-10.217 -10.217 -10.216 -10.216 -10.216 -10.216 -10.216 -10.216
-10.216 -10.216 -10.216 -10.216 -10.215 -10.215 -10.215 -10.215
-10.215 -10.215 -10.215 -10.215 -10.215 -10.215 -10.214 -10.214
-10.214 -10.214 -10.214 -10.214 -10.214 -10.214 -10.214 -10.213
-10.213 -10.213 -10.213 -10.213 -10.213 -10.213 -10.213 -10.212
-10.212 -10.212 -10.212 -10.212 -10.212 -10.212 -10.212 -10.212
-10.212 -10.211 -10.211 -10.211 -10.211 -10.211 -10.210 -10.210
-10.210 -10.210 -10.210 -10.210 -10.210 -10.209 -10.209 -10.209
-10.209 -10.208 -10.208 -10.208 -10.208 -10.208 -10.207 -10.207
-10.206 -10.206 -10.205 -10.205 -10.204 -10.203 -10.203 -10.203
-10.202 -10.202 -10.202 -10.202 -10.201 -10.200 -10.199 -10.199
-10.199 -10.197 -10.194 -10.192  -1.101  -1.098  -1.017  -1.005
 -0.983  -0.983  -0.967  -0.966  -0.963  -0.963  -0.960  -0.960
 -0.937  -0.934  -0.928  -0.926  -0.925  -0.924  -0.923  -0.922
 -0.921  -0.920  -0.898  -0.897  -0.893  -0.889  -0.889  -0.884
 -0.876  -0.873  -0.858  -0.855  -0.841  -0.841  -0.839  -0.838
 -0.837  -0.835  -0.822  -0.821  -0.809  -0.802  -0.798  -0.798
 -0.796  -0.796  -0.795  -0.793  -0.791  -0.791  -0.786  -0.783
 -0.772  -0.772  -0.769  -0.769  -0.767  -0.765  -0.764  -0.762
 -0.756  -0.755  -0.744  -0.742  -0.735  -0.734  -0.717  -0.716
 -0.715  -0.714  -0.714  -0.713  -0.710  -0.710  -0.709  -0.709
 -0.709  -0.706  -0.706  -0.704  -0.703  -0.701  -0.674  -0.672
 -0.659  -0.658  -0.657  -0.655  -0.649  -0.646  -0.634  -0.633
 -0.631  -0.626  -0.625  -0.624  -0.622  -0.622  -0.619  -0.618
 -0.616  -0.615  -0.613  -0.613  -0.612  -0.611  -0.609  -0.609
 -0.607  -0.606  -0.602  -0.602  -0.570  -0.568  -0.566  -0.563
 -0.563  -0.560  -0.560  -0.557  -0.557  -0.555  -0.554  -0.552
 -0.540  -0.538  -0.535  -0.532  -0.528  -0.526  -0.525  -0.525
 -0.524  -0.523  -0.521  -0.520  -0.517  -0.514  -0.513  -0.512
 -0.510  -0.507  -0.498  -0.497  -0.493  -0.493  -0.489  -0.488
 -0.487  -0.485  -0.484  -0.483  -0.481  -0.480  -0.477  -0.474
 -0.472  -0.471  -0.470  -0.470  -0.469  -0.468  -0.466  -0.466
 -0.466  -0.465  -0.464  -0.462  -0.461  -0.460  -0.459  -0.459
 -0.457  -0.454  -0.453  -0.452  -0.449  -0.446  -0.445  -0.444
 -0.443  -0.442  -0.441  -0.440  -0.437  -0.437  -0.433  -0.433
 -0.432  -0.431  -0.430  -0.428  -0.427  -0.426  -0.425  -0.424
 -0.423  -0.422  -0.422  -0.421  -0.421  -0.420  -0.418  -0.418
 -0.417  -0.417  -0.416  -0.415  -0.415  -0.414  -0.413  -0.412
 -0.412  -0.411  -0.409  -0.406  -0.405  -0.400  -0.399  -0.398
 -0.395  -0.395  -0.391  -0.389  -0.388  -0.386  -0.386  -0.383
 -0.381  -0.379  -0.375  -0.374  -0.372  -0.371  -0.368  -0.366
 -0.365  -0.363  -0.362  -0.362  -0.361  -0.360  -0.359  -0.358
 -0.357  -0.356  -0.355  -0.355  -0.354  -0.354  -0.352  -0.350
 -0.350  -0.350  -0.349  -0.348  -0.347  -0.345  -0.344  -0.343
 -0.342  -0.341  -0.341  -0.341  -0.340  -0.339  -0.336  -0.333
 -0.333  -0.332  -0.331  -0.330  -0.328  -0.327  -0.325  -0.325
 -0.311  -0.306  -0.301  -0.298  -0.290  -0.289  -0.272  -0.272
 -0.271  -0.269  -0.268  -0.267  -0.266  -0.266  -0.265  -0.264
 -0.263  -0.261  -0.261  -0.259  -0.258  -0.258  -0.256  -0.255
 -0.250  -0.249  -0.246  -0.242  -0.226  -0.223  -0.213  -0.211
 -0.210  -0.209  -0.205  -0.203  -0.198  -0.197

          Ground-State Mulliken Net Atomic Charges

     Atom                 Charge (a.u.)
  ----------------------------------------
      1 O                    -0.454510
      2 C                    -0.093324
      3 H                     0.136661
      4 H                     0.123873
      5 H                     0.132789
      6 O                    -0.482714
      7 C                     0.584435
      8 C                    -0.256630
      9 H                     0.134978
     10 H                     0.138602
     11 C                    -0.182269
     12 H                     0.120501
     13 H                     0.121274
     14 C                    -0.190322
     15 H                     0.108407
     16 H                     0.101882
     17 C                     0.010036
     18 C                     0.083142
     19 C                    -0.103925
     20 H                     0.084907
     21 C                    -0.078004
     22 H                     0.099913
     23 C                    -0.090794
     24 H                     0.090453
     25 C                    -0.086800
     26 H                     0.091547
     27 C                    -0.113916
     28 H                     0.094460
     29 C                    -0.012833
     30 C                    -0.023505
     31 C                     0.028482
     32 C                    -0.010796
     33 C                     0.026701
     34 C                     0.021012
     35 C                     0.052774
     36 C                     0.003546
     37 C                    -0.011723
     38 C                    -0.025683
     39 C                    -0.086211
     40 C                    -0.010701
     41 C                    -0.005523
     42 C                    -0.007876
     43 C                     0.005770
     44 C                     0.025134
     45 C                    -0.053937
     46 C                     0.031509
     47 C                    -0.010943
     48 C                     0.008140
     49 C                    -0.013104
     50 C                    -0.011151
     51 C                     0.010923
     52 C                     0.008425
     53 C                     0.037649
     54 C                     0.009770
     55 C                    -0.012538
     56 C                     0.006802
     57 C                     0.008866
     58 C                    -0.006094
     59 C                    -0.005228
     60 C                     0.017558
     61 C                     0.023616
     62 C                    -0.025995
     63 C                     0.011686
     64 C                    -0.010185
     65 C                     0.001254
     66 C                    -0.003995
     67 C                     0.002026
     68 C                    -0.013065
     69 C                     0.015322
     70 C                     0.000775
     71 C                    -0.002252
     72 C                     0.035287
     73 C                    -0.017198
     74 C                    -0.004286
     75 C                    -0.036218
     76 C                    -0.036138
     77 C                    -0.006174
     78 C                    -0.013300
     79 C                     0.014856
     80 C                    -0.025312
     81 C                     0.014007
     82 C                    -0.002536
     83 C                    -0.007069
     84 C                     0.003195
     85 C                    -0.020913
     86 C                    -0.033934
     87 C                     0.004561
     88 C                     0.013562
     89 O                    -0.457416
     90 C                    -0.079660
     91 H                     0.119296
     92 H                     0.122499
     93 H                     0.120010
     94 O                    -0.461673
     95 C                     0.568392
     96 C                    -0.232770
     97 H                     0.132815
     98 H                     0.119299
     99 C                    -0.197804
    100 H                     0.115550
    101 H                     0.124847
    102 C                    -0.194793
    103 H                     0.108717
    104 H                     0.119825
    105 C                     0.018856
    106 C                     0.071789
    107 C                    -0.088895
    108 H                     0.091237
    109 C                    -0.104703
    110 H                     0.090480
    111 C                    -0.075663
    112 H                     0.091325
    113 C                    -0.076717
    114 H                     0.092808
    115 C                    -0.112658
    116 H                     0.091349
    117 C                     0.027814
    118 C                    -0.007776
    119 C                     0.004878
    120 C                     0.003927
    121 C                     0.006363
    122 C                    -0.006021
    123 C                     0.004219
    124 C                     0.013113
    125 C                     0.025123
    126 C                    -0.011455
    127 C                    -0.067666
    128 C                     0.001162
    129 C                    -0.020331
    130 C                    -0.026703
    131 C                    -0.007091
    132 C                     0.002546
    133 C                    -0.093856
    134 C                     0.024944
    135 C                    -0.018408
    136 C                     0.018449
    137 C                     0.007404
    138 C                    -0.005612
    139 C                    -0.001318
    140 C                    -0.003321
    141 C                     0.026278
    142 C                    -0.015846
    143 C                     0.011508
    144 C                     0.000195
    145 C                    -0.015267
    146 C                    -0.019338
    147 C                    -0.006475
    148 C                     0.017008
    149 C                     0.021466
    150 C                     0.004788
    151 C                     0.006165
    152 C                    -0.011669
    153 C                     0.015291
    154 C                    -0.010681
    155 C                     0.004220
    156 C                    -0.001326
    157 C                    -0.004517
    158 C                     0.040157
    159 C                    -0.024434
    160 C                    -0.004042
    161 C                     0.010412
    162 C                    -0.020507
    163 C                     0.005620
    164 C                     0.001575
    165 C                    -0.021282
    166 C                    -0.004454
    167 C                     0.020422
    168 C                     0.006005
    169 C                    -0.012848
    170 C                    -0.013032
    171 C                    -0.009588
    172 C                     0.008174
    173 C                    -0.002729
    174 C                     0.020471
    175 C                     0.006139
    176 C                    -0.016031
  ----------------------------------------
  Sum of atomic charges =     0.000000

                    Cartesian Multipole Moments
 -----------------------------------------------------------------
    Charge (ESU x 10^10)
                 0.0000
    Dipole Moment (Debye)
         X      -1.7415      Y       0.2313      Z       4.0799
       Tot       4.4421
    Quadrupole Moments (Debye-Ang)
        XX    -788.9512     XY       8.9612     YY    -825.3571
        XZ     -20.6483     YZ      23.7433     ZZ    -791.6128

 Total job time:  862.87s(wall), 8261.36s(cpu)
        *  Thank you very much for using Q-Chem.  Have a nice day.  *
