 Q-Chem 4.4, Q-Chem, Inc., Pleasanton, CA (2016)
 Q-Chem 4.4.2 for Intel X86 Linux

User input:
--------------------------------------------------------------
$comment
SP
$end

$rem
MEM_STATIC 5000
MEM_TOTAL 20000
JOBTYPE SP
EXCHANGE B3LYP
BASIS 6-31g(d,p)
$end

$molecule
0 1
O          14.935000     16.356000     -1.314000
C          15.946000     16.691000     -0.286000
H          16.842000     17.030000     -0.821000
H          16.273000     15.791000      0.249000
H          15.578000     17.375000      0.489000
O          13.258000     16.045000      0.272000
C          13.716000     15.905000     -0.818000
C          13.029000     15.122000     -1.852000
H          12.628000     15.732000     -2.671000
H          12.074000     14.746000     -1.463000
C          13.886000     13.966000     -2.362000
H          13.391000     13.437000     -3.187000
H          14.849000     14.295000     -2.773000
C          14.028000     12.921000     -1.244000
H          14.310000     13.435000     -0.317000
H          13.030000     12.481000     -1.127000
C          15.103000     11.876000     -1.647000
C          16.598000     12.275000     -1.364000
C          17.359000     13.044000     -2.324000
H          17.035000     13.342000     -3.316000
C          18.665000     13.490000     -2.029000
H          19.202000     13.920000     -2.870000
C          19.163000     13.215000     -0.760000
H          20.129000     13.640000     -0.503000
C          18.502000     12.387000      0.125000
H          18.932000     12.191000      1.103000
C          17.233000     11.939000     -0.147000
H          16.726000     11.337000      0.602000
C          16.722000      8.649000     -5.750000
C          17.423000      7.372000     -3.796000
C          14.231000      4.201000     -4.185000
C          11.882000      9.907000     -5.546000
C          12.099000      5.618000     -1.781000
C          17.264000      8.647000     -4.393000
C          10.532000      7.789000     -4.128000
C          15.602000      5.338000     -5.900000
C          14.970000      8.248000     -0.697000
C          11.520000     10.037000     -4.158000
C          14.732000     10.409000     -1.635000
C          13.617000      8.554000     -0.644000
C          11.368000      8.955000     -2.194000
C          10.678000      6.545000     -3.477000
C          16.700000      8.888000     -2.197000
C          12.081000      4.718000     -4.074000
C          14.855000     11.082000     -2.912000
C          13.606000     11.158000     -3.755000
C          12.546000      4.775000     -2.773000
C          12.885000      7.054000     -7.278000
C          13.166000      5.121000     -6.224000
C          14.412000      5.567000     -6.691000
C          16.537000      6.303000     -5.832000
C          14.042000     10.894000     -5.075000
C          15.641000      9.283000     -1.367000
C          17.133000      6.196000     -4.519000
C          10.880000      9.001000     -3.514000
C          17.024000      7.544000     -2.417000
C          12.611000      7.527000     -0.695000
C          13.550000      9.391000     -7.039000
C          15.489000      4.609000     -4.684000
C          13.412000      9.770000     -1.205000
C          15.257000      7.741000     -7.236000
C          11.473000      7.731000     -1.499000
C          15.361000      6.881000     -0.850000
C          11.178000      6.361000     -5.678000
C          10.812000      7.702000     -5.544000
C          14.349000      5.815000     -0.938000
C          13.148000     10.284000     -5.993000
C          12.392000     10.604000     -3.294000
C          12.561000      8.369000     -7.021000
C          15.919000     10.559000     -3.837000
C          16.048000      5.346000     -2.419000
C          12.303000      9.899000     -2.063000
C          13.023000      6.211000     -0.887000
C          14.894000      9.075000     -7.052000
C          13.884000      4.325000     -2.810000
C          16.419000      7.521000     -6.488000
C          13.096000      4.471000     -4.951000
C          16.417000      6.497000     -1.717000
C          14.807000      4.888000     -1.930000
C          16.818000      9.566000     -3.451000
C          15.403000     10.603000     -5.119000
C          12.176000      6.037000     -6.617000
C          16.415000      5.105000     -3.788000
C          11.133000      6.513000     -2.151000
C          11.525000      8.723000     -6.215000
C          11.081000      5.658000     -4.464000
C          15.828000      9.671000     -6.081000
C          14.260000      6.802000     -7.341000
O          22.599000      6.203000     -0.874000
C          23.924000      6.853000     -0.846000
H          24.232000      7.430000     -1.726000
H          24.664000      6.074000     -0.622000
H          23.988000      7.560000     -0.010000
O          21.425000      8.203000     -0.523000
C          21.473000      7.001000     -0.776000
C          20.165000      6.118000     -1.086000
H          20.251000      5.815000     -2.137000
H          19.308000      6.802000     -1.058000
C          19.923000      4.977000     -0.022000
H          20.352000      5.273000      0.944000
H          18.857000      4.790000      0.155000
C          20.709000      3.697000     -0.462000
H          20.536000      3.447000     -1.516000
H          21.776000      3.806000     -0.233000
C          20.273000      2.446000      0.335000
C          20.927000      2.425000      1.724000
C          22.092000      1.651000      2.034000
H          22.523000      0.981000      1.297000
C          22.565000      1.626000      3.366000
H          23.511000      1.144000      3.590000
C          21.930000      2.482000      4.337000
H          22.423000      2.505000      5.304000
C          20.769000      3.084000      4.042000
H          20.293000      3.628000      4.852000
C          20.248000      3.091000      2.760000
H          19.319000      3.638000      2.625000
C          19.765000     -3.029000      0.175000
C          17.970000     -2.304000      1.692000
C          14.652000     -3.262000     -1.171000
C          19.442000     -0.513000     -4.229000
C          14.183000      0.074000     -2.148000
C          19.284000     -2.162000      1.204000
C          16.718000     -0.084000     -4.682000
C          16.595000     -4.452000     -0.673000
C          16.586000      1.323000      0.782000
C          18.890000      0.816000     -3.982000
C          18.835000      1.885000      0.133000
C          16.508000      1.988000     -0.427000
C          17.006000      1.796000     -3.137000
C          15.380000     -0.217000     -4.174000
C          18.360000     -0.089000      1.695000
C          14.416000     -2.177000     -3.175000
C          20.004000      1.162000     -0.385000
C          20.155000      0.870000     -1.888000
C          13.960000     -1.295000     -2.142000
C          18.073000     -3.597000     -3.721000
C          15.967000     -4.023000     -2.996000
C          16.832000     -4.588000     -2.088000
C          17.701000     -4.161000      0.178000
C          20.617000     -0.394000     -2.045000
C          17.912000      1.130000      1.101000
C          17.189000     -3.372000      1.255000
C          17.508000      0.963000     -4.150000
C          17.397000     -1.079000      1.950000
C          15.467000      1.699000     -1.368000
C          20.029000     -2.477000     -3.211000
C          15.498000     -3.778000     -0.198000
C          17.827000      2.290000     -0.919000
C          19.214000     -4.141000     -1.679000
C          15.699000      1.643000     -2.696000
C          15.650000      0.333000      1.125000
C          16.334000     -2.249000     -4.686000
C          17.318000     -1.346000     -4.995000
C          14.597000      0.036000      0.253000
C          20.268000     -1.054000     -3.196000
C          19.189000      1.401000     -2.750000
C          19.022000     -2.705000     -4.144000
C          20.294000     -0.205000      0.209000
C          15.218000     -1.863000      1.281000
C          18.083000      2.125000     -2.244000
C          14.486000      0.724000     -0.977000
C          20.165000     -3.166000     -2.025000
C          14.049000     -1.992000     -0.920000
C          18.996000     -4.032000     -0.332000
C          14.831000     -3.351000     -2.523000
C          16.058000     -0.846000      1.729000
C          14.305000     -1.328000      0.340000
C          19.537000     -0.743000      1.208000
C          20.694000     -1.046000     -0.829000
C          16.682000     -3.401000     -4.049000
C          15.806000     -3.134000      0.991000
C          14.849000      0.655000     -3.226000
C          18.698000     -1.559000     -4.861000
C          15.137000     -1.590000     -4.228000
C          20.458000     -2.444000     -0.859000
C          18.172000     -4.383000     -2.549000
$end

--------------------------------------------------------------

             Standard Nuclear Orientation (Angstroms)
    I     Atom           X                Y                Z
 ----------------------------------------------------------------
    1      O      11.4950795829     2.9447876236    -0.9827952054
    2      C      11.4006135135     4.4046291786    -1.2087792671
    3      H      11.5632689029     4.8871797430    -0.2368481085
    4      H      10.3794246500     4.6920673619    -1.4875382953
    5      H      12.0398151677     4.7677527693    -2.0233144125
    6      O      11.4158105393     2.4709552369    -3.2617522668
    7      C      11.3165879374     2.1592363771    -2.1170032866
    8      C      10.8989207316     0.8108668357    -1.7149240840
    9      H      11.7035817398     0.2186472058    -1.2616487022
   10      H      10.7373996588     0.1889341776    -2.6047739094
   11      C       9.6424099747     0.8328580016    -0.8479857319
   12      H       9.3864210669    -0.1737681012    -0.4920860713
   13      H       9.7601244041     1.4343994289     0.0624110082
   14      C       8.4487115703     1.2675257776    -1.7130065663
   15      H       8.7321819027     2.1646127782    -2.2768580397
   16      H       8.2763090325     0.4386560885    -2.4105346328
   17      C       7.2251564162     1.5505159074    -0.8003793855
   18      C       7.1699657660     2.9758020772    -0.1371838440
   19      C       7.8390624007     3.2407938704     1.1174758879
   20      H       8.3504467699     2.5161596029     1.7429638617
   21      C       7.8769750814     4.5421096624     1.6621930971
   22      H       8.2650102418     4.6023946829     2.6752796830
   23      C       7.3020070668     5.5646871207     0.9153750979
   24      H       7.4152318925     6.5776303646     1.2908163363
   25      C       6.5608843264     5.3160224632    -0.2224442954
   26      H       6.1207482404     6.1442445511    -0.7702840521
   27      C       6.5079984456     4.0555595327    -0.7641871167
   28      H       5.9610967244     3.9146604526    -1.6923573363
   29      C       4.3041932430    -0.5068556448     3.3353787600
   30      C       2.6221544494     0.7632561132     2.1115292516
   31      C       0.4973762906    -2.8474614966     0.4252724153
   32      C       6.7550461695    -3.7242031696     0.3871971446
   33      C       2.0699430532    -2.6896240729    -2.7107521581
   34      C       3.9654235525     0.6808073314     2.5544122102
   35      C       4.8897520994    -4.5809984593    -1.6390624301
   36      C       1.4638021673    -2.4357198649     2.6636032339
   37      C       3.6645082906     0.9100823605    -1.7974765712
   38      C       6.7768447003    -3.1721554770    -0.9429367468
   39      C       5.9223571646     0.8365370673    -1.0881680686
   40      C       4.3066495499    -0.0051978753    -2.6202588591
   41      C       5.5049691709    -2.4918012623    -2.6664722934
   42      C       3.5717880442    -4.4685215517    -2.1319850351
   43      C       4.0312927864     1.5714218942     0.4565418747
   44      C       1.5432856158    -4.2774919768    -0.9025816841
   45      C       6.7138330869     0.4036012052     0.0453747862
   46      C       7.2368707909    -1.0108695740    -0.0007768658
   47      C       1.2891402461    -3.1631612457    -1.6808824953
   48      C       4.0156033253    -4.7915252707     2.2584850530
   49      C       1.9473037812    -4.5511023965     1.4899150579
   50      C       2.1097500154    -3.7298341971     2.6162590398
   51      C       2.1272246049    -1.3934838016     3.1962275457
   52      C       7.0579958859    -1.5073679533     1.3121150291
   53      C       4.5697607000     1.3504897708    -0.8192509387
   54      C       1.6802997508    -0.2207649769     2.4781587933
   55      C       5.8661473862    -3.6039224124    -1.8819999585
   56      C       2.6950813041     1.2943304806     0.7687456912
   57      C       3.6004458517    -1.1105948134    -3.2108009371
   58      C       6.0346491439    -3.4504084855     2.5513583208
   59      C       0.6249681224    -2.0465382479     1.5829732722
   60      C       5.6006773043    -0.1199385360    -2.2359038778
   61      C       4.0375240796    -2.7459423164     3.6424022678
   62      C       4.2106499268    -2.3797174532    -3.2181976907
   63      C       2.2790850532     0.7156422678    -1.5012089497
   64      C       3.5779244857    -5.3940515241    -0.0651967986
   65      C       4.9346467131    -5.1990201440    -0.3325178763
   66      C       1.5425468027    -0.4270354205    -2.0669324742
   67      C       6.8435392413    -2.8967545598     1.5062108953
   68      C       6.9638075734    -1.8431819578    -1.1079921000
   69      C       5.3188785281    -4.5019870288     1.9151319515
   70      C       6.0655051433     0.5361523811     1.3956899581
   71      C       0.8570677999    -0.1086680157     0.1076212116
   72      C       6.1393779231    -1.4199263400    -2.1857107245
   73      C       2.2636734260    -1.2959854913    -2.8685528130
   74      C       5.3796461042    -2.5222128475     3.3360779367
   75      C       0.5113387648    -2.2931134588    -0.8858009245
   76      C       3.4136977473    -1.4950958599     3.7085222300
   77      C       1.1643180728    -4.0729966453     0.3916085109
   78      C       1.7571786394     0.9164723177    -0.1967696118
   79      C       0.6787163902    -0.9171444462    -1.0340979466
   80      C       4.8255801413     1.1492457346     1.5687463920
   81      C       6.4267622007    -0.5763678247     2.1329199969
   82      C       3.1388527640    -5.2608146849     1.2660300671
   83      C       0.7253667214    -0.6790960372     1.4207082986
   84      C       3.2318350532    -3.3740974021    -2.9400646999
   85      C       5.8155805664    -4.7311724858     0.6705400058
   86      C       2.7599425254    -4.9860137601    -1.1337587742
   87      C       5.5626124925    -1.0761565366     3.1219344181
   88      C       3.4205742300    -3.8490165393     3.1044848562
   89      O      -0.2784585270     6.0452606502     2.7299897851
   90      C      -0.0129223565     7.2697449623     3.5103984675
   91      H       0.5814471012     7.1761234438     4.4269970486
   92      H      -0.9835822678     7.7324305709     3.7303038203
   93      H       0.5252627847     8.0054201663     2.9004970425
   94      O       1.8895646872     5.9410186900     1.8410094948
   95      C       0.7664934223     5.4759437295     2.0241302612
   96      C       0.3144426441     4.0344964585     1.4722853021
   97      H       0.1525767913     3.4114933211     2.3608079729
   98      H       1.1895001312     3.5974583218     0.9759375798
   99      C      -0.8615591095     4.1156479562     0.4220589885
  100      H      -0.8304548964     5.0826907727    -0.0962784682
  101      H      -0.7832245737     3.3441573874    -0.3533892707
  102      C      -2.2275441450     4.0862186047     1.1856130443
  103      H      -2.2699313498     3.2788584761     1.9270427089
  104      H      -2.4384362969     5.0665440730     1.6297948500
  105      C      -3.4190784370     3.8339095872     0.2333041706
  106      C      -3.8101550969     5.1199509208    -0.5087434925
  107      C      -4.9007135055     5.9587099897    -0.1092856326
  108      H      -5.5486432406     5.6696646135     0.7119754884
  109      C      -5.2396062129     7.0724252427    -0.9113879129
  110      H      -5.9814731713     7.7813178286    -0.5585129808
  111      C      -4.3936874483     7.3938407006    -2.0338475100
  112      H      -4.6400370802     8.3292371221    -2.5268103824
  113      C      -3.4703778651     6.5155025147    -2.4502264776
  114      H      -2.9411342479     6.7741598704    -3.3621527718
  115      C      -3.1430886355     5.3881403162    -1.7174575961
  116      H      -2.3564133043     4.7623157691    -2.1297203272
  117      C      -8.4839054596     1.7241829617    -0.1614993203
  118      C      -7.5340000965     1.4289647073    -2.4108247711
  119      C      -7.1619130014    -3.0290173723    -2.0767529654
  120      C      -5.3707124067    -0.2832739446     3.3181481883
  121      C      -3.7167049966    -2.9520611770    -1.4225316358
  122      C      -7.6764957998     2.1998925765    -1.2402397913
  123      C      -4.1764967332    -2.5005266436     2.1069234388
  124      C      -8.8818220553    -1.6109370565    -1.3909584888
  125      C      -3.5787958044     0.9297057921    -2.3347685852
  126      C      -3.9923569621    -0.1699377447     2.8499119508
  127      C      -3.5450279989     2.4502215296    -0.4687735082
  128      C      -2.7514871111     0.3791388819    -1.3743382633
  129      C      -2.6798662035    -0.8402613476     1.1029387753
  130      C      -4.0219215293    -3.2757693578     0.9064642598
  131      C      -5.5249302687     2.3886546612    -2.0930707480
  132      C      -5.7788541868    -4.0285139221    -0.5479979286
  133      C      -4.4699242964     2.8355441020     0.6053341931
  134      C      -4.5740322205     2.0081249275     1.8982429485
  135      C      -4.9643200664    -3.5269089320    -1.6147104488
  136      C      -8.0225719540    -1.9605048635     1.9773206878
  137      C      -7.9752827643    -3.2876988058     0.1392083485
  138      C      -8.8724331618    -2.2759143500    -0.1124409692
  139      C      -9.0181393043    -0.1922401522    -1.4198496879
  140      C      -5.8794226790     1.8964531925     2.2436038819
  141      C      -4.1590668701     2.0698445127    -1.8242245733
  142      C      -8.2837714359     0.2638505470    -2.5588312980
  143      C      -3.4626827398    -1.2806495438     2.1824379681
  144      C      -6.2508533876     1.5015278153    -2.9045728026
  145      C      -2.6176189673    -1.0404354275    -1.2344415145
  146      C      -7.5443761358     0.1618434556     2.7566809204
  147      C      -8.0165719156    -1.9801782250    -2.3901147105
  148      C      -2.7421284266     1.1992357917    -0.1909606931
  149      C      -9.1344026871    -0.0850306824     0.9703400442
  150      C      -2.5430111142    -1.6358742045    -0.0259588580
  151      C      -4.3244090671     0.1133939041    -3.2016830932
  152      C      -6.1393213402    -3.4413092663     1.7955641302
  153      C      -5.4942313253    -2.5947477114     2.6594729254
  154      C      -4.2048372262    -1.2784479492    -3.1249965224
  155      C      -6.2524827776     0.7769825514     2.9434707596
  156      C      -3.6891581483     0.9350496038     2.0520877604
  157      C      -7.3624599294    -1.2089719588     2.9125449434
  158      C      -5.9351609496     2.9892637908     0.2378062247
  159      C      -6.3269229433    -0.7822419042    -3.6719496926
  160      C      -2.7782589602     0.5914533273     1.0246383611
  161      C      -3.3438688721    -1.8594142281    -2.1659466406
  162      C      -8.4066356367     0.7365996905     1.8478482496
  163      C      -5.8269131595    -2.9700327120    -2.5805448193
  164      C      -9.1648718748     0.5477302973    -0.2431257243
  165      C      -7.1013403264    -3.6885526045    -0.8812571567
  166      C      -5.6429677759     0.4191607472    -3.5003979556
  167      C      -5.4409853050    -1.8585264129    -3.4229493767
  168      C      -6.3905516497     2.8183004479    -1.0365111791
  169      C      -6.6950658601     2.4541105153     1.2774602530
  170      C      -7.4209649624    -3.1546745314     1.4361101632
  171      C      -7.6533478088    -0.8752325057    -3.1454187590
  172      C      -3.1849680008    -2.8830194561    -0.1357954515
  173      C      -6.0814781525    -1.5245786565     3.3505621800
  174      C      -5.2595058986    -3.9013092709     0.7509690964
  175      C      -7.9617688387     1.8401650079     1.1056042721
  176      C      -8.9655668843    -1.4509376619     1.0541290347
 ----------------------------------------------------------------

    9   -5804.2642722468      7.91E-06 Convergence criterion met
 Total energy in the final basis set = -5804.2642722468

                    Orbital Energies (a.u.)
 --------------------------------------------------------------

 Alpha MOs
 -- Occupied --
-19.201 -19.191 -19.143 -19.142 -10.324 -10.314 -10.250 -10.246
-10.242 -10.236 -10.235 -10.234 -10.233 -10.231 -10.229 -10.227
-10.226 -10.225 -10.224 -10.223 -10.223 -10.222 -10.222 -10.222
-10.221 -10.221 -10.221 -10.220 -10.220 -10.220 -10.220 -10.220
-10.219 -10.219 -10.219 -10.219 -10.219 -10.218 -10.218 -10.218
-10.218 -10.218 -10.218 -10.217 -10.217 -10.217 -10.217 -10.216
-10.216 -10.216 -10.216 -10.216 -10.215 -10.215 -10.215 -10.215
-10.215 -10.215 -10.215 -10.215 -10.215 -10.215 -10.215 -10.215
-10.215 -10.215 -10.214 -10.214 -10.214 -10.214 -10.214 -10.214
-10.214 -10.214 -10.214 -10.214 -10.214 -10.214 -10.213 -10.213
-10.213 -10.213 -10.213 -10.213 -10.213 -10.213 -10.213 -10.213
-10.212 -10.212 -10.212 -10.212 -10.212 -10.212 -10.212 -10.212
-10.212 -10.212 -10.212 -10.212 -10.211 -10.211 -10.211 -10.211
-10.211 -10.211 -10.211 -10.211 -10.211 -10.210 -10.210 -10.210
-10.209 -10.209 -10.209 -10.209 -10.208 -10.208 -10.208 -10.208
-10.207 -10.207 -10.207 -10.207 -10.207 -10.206 -10.206 -10.205
-10.205 -10.205 -10.204 -10.204 -10.204 -10.204 -10.203 -10.202
-10.201 -10.201 -10.200 -10.199 -10.197 -10.197 -10.196 -10.195
-10.194 -10.194 -10.192 -10.190  -1.090  -1.082  -1.020  -1.008
 -0.984  -0.982  -0.969  -0.964  -0.964  -0.962  -0.960  -0.960
 -0.936  -0.933  -0.928  -0.927  -0.926  -0.924  -0.921  -0.921
 -0.920  -0.918  -0.897  -0.892  -0.892  -0.890  -0.887  -0.883
 -0.876  -0.873  -0.857  -0.854  -0.844  -0.842  -0.840  -0.838
 -0.837  -0.835  -0.822  -0.820  -0.811  -0.798  -0.797  -0.797
 -0.796  -0.795  -0.794  -0.793  -0.791  -0.789  -0.785  -0.783
 -0.773  -0.770  -0.768  -0.767  -0.766  -0.765  -0.760  -0.759
 -0.755  -0.750  -0.739  -0.737  -0.730  -0.730  -0.720  -0.716
 -0.716  -0.714  -0.713  -0.711  -0.710  -0.709  -0.708  -0.707
 -0.707  -0.706  -0.704  -0.703  -0.700  -0.700  -0.674  -0.671
 -0.660  -0.660  -0.657  -0.657  -0.646  -0.644  -0.634  -0.629
 -0.628  -0.627  -0.624  -0.622  -0.620  -0.619  -0.617  -0.616
 -0.615  -0.614  -0.614  -0.612  -0.611  -0.609  -0.608  -0.608
 -0.606  -0.605  -0.603  -0.602  -0.569  -0.568  -0.565  -0.561
 -0.560  -0.560  -0.559  -0.558  -0.557  -0.555  -0.554  -0.553
 -0.535  -0.534  -0.533  -0.531  -0.530  -0.527  -0.526  -0.524
 -0.523  -0.523  -0.520  -0.517  -0.516  -0.513  -0.513  -0.512
 -0.509  -0.504  -0.504  -0.494  -0.491  -0.487  -0.486  -0.486
 -0.484  -0.483  -0.483  -0.481  -0.478  -0.475  -0.475  -0.473
 -0.471  -0.471  -0.469  -0.469  -0.469  -0.468  -0.467  -0.466
 -0.465  -0.463  -0.461  -0.460  -0.459  -0.458  -0.458  -0.456
 -0.455  -0.453  -0.451  -0.448  -0.447  -0.446  -0.445  -0.444
 -0.443  -0.440  -0.439  -0.437  -0.436  -0.435  -0.433  -0.431
 -0.430  -0.429  -0.428  -0.427  -0.426  -0.425  -0.425  -0.424
 -0.424  -0.423  -0.422  -0.421  -0.420  -0.420  -0.419  -0.418
 -0.417  -0.416  -0.415  -0.414  -0.414  -0.413  -0.412  -0.411
 -0.410  -0.410  -0.409  -0.404  -0.402  -0.401  -0.396  -0.395
 -0.394  -0.393  -0.392  -0.390  -0.388  -0.387  -0.385  -0.382
 -0.378  -0.377  -0.375  -0.372  -0.370  -0.369  -0.368  -0.367
 -0.365  -0.364  -0.363  -0.363  -0.362  -0.361  -0.359  -0.358
 -0.358  -0.357  -0.356  -0.355  -0.355  -0.354  -0.353  -0.352
 -0.350  -0.350  -0.347  -0.347  -0.346  -0.345  -0.344  -0.343
 -0.342  -0.342  -0.341  -0.337  -0.336  -0.336  -0.335  -0.333
 -0.332  -0.331  -0.330  -0.328  -0.327  -0.325  -0.324  -0.320
 -0.305  -0.304  -0.302  -0.301  -0.289  -0.288  -0.274  -0.273
 -0.271  -0.270  -0.268  -0.268  -0.267  -0.265  -0.263  -0.263
 -0.263  -0.262  -0.259  -0.259  -0.257  -0.256  -0.255  -0.254
 -0.248  -0.248  -0.247  -0.244  -0.222  -0.216  -0.214  -0.212
 -0.211  -0.208  -0.207  -0.205  -0.203  -0.199

          Ground-State Mulliken Net Atomic Charges

     Atom                 Charge (a.u.)
  ----------------------------------------
      1 O                    -0.481747
      2 C                    -0.099388
      3 H                     0.126615
      4 H                     0.129289
      5 H                     0.138919
      6 O                    -0.450674
      7 C                     0.614870
      8 C                    -0.261984
      9 H                     0.125770
     10 H                     0.124606
     11 C                    -0.189345
     12 H                     0.103784
     13 H                     0.123079
     14 C                    -0.191303
     15 H                     0.121654
     16 H                     0.113874
     17 C                     0.012217
     18 C                     0.071590
     19 C                    -0.112561
     20 H                     0.091734
     21 C                    -0.087809
     22 H                     0.098209
     23 C                    -0.088877
     24 H                     0.086953
     25 C                    -0.071273
     26 H                     0.094468
     27 C                    -0.106868
     28 H                     0.094287
     29 C                     0.013996
     30 C                     0.003913
     31 C                    -0.000259
     32 C                    -0.020080
     33 C                     0.006778
     34 C                    -0.012718
     35 C                    -0.021694
     36 C                     0.014460
     37 C                     0.013919
     38 C                    -0.000445
     39 C                    -0.090543
     40 C                     0.009997
     41 C                    -0.005561
     42 C                     0.037837
     43 C                     0.003657
     44 C                    -0.014259
     45 C                    -0.082568
     46 C                     0.006685
     47 C                     0.030989
     48 C                    -0.007306
     49 C                     0.009403
     50 C                    -0.031349
     51 C                     0.023575
     52 C                     0.007171
     53 C                     0.042203
     54 C                    -0.050968
     55 C                    -0.003795
     56 C                     0.000113
     57 C                     0.001113
     58 C                    -0.029718
     59 C                     0.010149
     60 C                     0.014126
     61 C                     0.016059
     62 C                    -0.021823
     63 C                    -0.035586
     64 C                     0.024327
     65 C                    -0.020508
     66 C                    -0.019418
     67 C                     0.004853
     68 C                     0.011816
     69 C                     0.022374
     70 C                     0.062218
     71 C                     0.035605
     72 C                     0.015118
     73 C                     0.015050
     74 C                    -0.016146
     75 C                    -0.023395
     76 C                    -0.004965
     77 C                     0.010832
     78 C                    -0.019036
     79 C                     0.006232
     80 C                     0.005451
     81 C                    -0.005572
     82 C                    -0.023696
     83 C                    -0.023472
     84 C                    -0.009222
     85 C                     0.014391
     86 C                    -0.024242
     87 C                    -0.016178
     88 C                     0.025074
     89 O                    -0.458736
     90 C                    -0.096883
     91 H                     0.131971
     92 H                     0.126676
     93 H                     0.135502
     94 O                    -0.458106
     95 C                     0.571676
     96 C                    -0.249498
     97 H                     0.128158
     98 H                     0.128290
     99 C                    -0.195698
    100 H                     0.117995
    101 H                     0.113852
    102 C                    -0.169433
    103 H                     0.103896
    104 H                     0.130215
    105 C                     0.001977
    106 C                     0.066420
    107 C                    -0.108910
    108 H                     0.095296
    109 C                    -0.100805
    110 H                     0.091948
    111 C                    -0.078531
    112 H                     0.088312
    113 C                    -0.079365
    114 H                     0.087039
    115 C                    -0.096257
    116 H                     0.094515
    117 C                    -0.014967
    118 C                     0.008257
    119 C                     0.013950
    120 C                    -0.014340
    121 C                     0.009771
    122 C                    -0.000494
    123 C                    -0.015439
    124 C                    -0.013385
    125 C                     0.031491
    126 C                    -0.048353
    127 C                    -0.065970
    128 C                    -0.002362
    129 C                     0.004584
    130 C                     0.028435
    131 C                    -0.024049
    132 C                    -0.009484
    133 C                    -0.118277
    134 C                     0.016328
    135 C                     0.008020
    136 C                     0.008053
    137 C                    -0.010136
    138 C                    -0.009294
    139 C                    -0.004934
    140 C                     0.010625
    141 C                     0.024147
    142 C                    -0.027773
    143 C                    -0.002612
    144 C                     0.020918
    145 C                    -0.003786
    146 C                    -0.017335
    147 C                     0.031553
    148 C                     0.012415
    149 C                    -0.013090
    150 C                     0.009309
    151 C                    -0.007522
    152 C                    -0.006323
    153 C                     0.039461
    154 C                     0.003433
    155 C                     0.014613
    156 C                     0.013159
    157 C                     0.012647
    158 C                     0.038133
    159 C                    -0.022937
    160 C                     0.017325
    161 C                    -0.001564
    162 C                    -0.005855
    163 C                    -0.023708
    164 C                     0.022539
    165 C                     0.011079
    166 C                     0.017677
    167 C                    -0.016756
    168 C                    -0.004453
    169 C                     0.013837
    170 C                     0.003733
    171 C                    -0.004488
    172 C                    -0.023668
    173 C                    -0.035100
    174 C                    -0.022929
    175 C                     0.001021
    176 C                     0.008305
  ----------------------------------------
  Sum of atomic charges =     0.000000

                    Cartesian Multipole Moments
 -----------------------------------------------------------------
    Charge (ESU x 10^10)
                 0.0000
    Dipole Moment (Debye)
         X       0.9346      Y       4.6194      Z       2.0297
       Tot       5.1315
    Quadrupole Moments (Debye-Ang)
        XX    -817.0787     XY      -1.8062     YY    -770.1866
        XZ      16.3911     YZ       9.4929     ZZ    -810.9670

 Total job time:  860.94s(wall), 8247.02s(cpu)
        *  Thank you very much for using Q-Chem.  Have a nice day.  *
