 Q-Chem 4.4, Q-Chem, Inc., Pleasanton, CA (2016)
 Q-Chem 4.4.2 for Intel X86 Linux

User input:
--------------------------------------------------------------
$comment
SP
$end

$rem
MEM_STATIC 5000
MEM_TOTAL 20000
JOBTYPE SP
EXCHANGE B3LYP
BASIS 6-31g(d,p)
$end

$molecule
0 1
O          12.628000     -5.565000      8.016000
C          11.528000     -5.198000      7.140000
H          10.556000     -5.403000      7.604000
H          11.507000     -5.814000      6.232000
H          11.637000     -4.153000      6.826000
O          12.095000     -7.753000      8.149000
C          12.817000     -6.845000      8.415000
C          14.032000     -6.975000      9.341000
H          13.940000     -7.955000      9.826000
H          13.959000     -6.264000     10.173000
C          15.355000     -6.847000      8.513000
H          15.532000     -7.747000      7.910000
H          15.392000     -5.984000      7.837000
C          16.608000     -6.808000      9.478000
H          16.494000     -5.984000     10.193000
H          16.783000     -7.750000     10.012000
C          17.820000     -6.675000      8.578000
C          18.207000     -7.992000      7.938000
C          18.823000     -9.012000      8.739000
H          19.026000     -8.839000      9.792000
C          19.194000    -10.221000      8.102000
H          19.640000    -11.051000      8.641000
C          18.932000    -10.397000      6.740000
H          19.189000    -11.295000      6.186000
C          18.272000     -9.454000      5.966000
H          18.054000     -9.612000      4.914000
C          18.015000     -8.255000      6.571000
H          17.535000     -7.524000      5.927000
C          22.851000     -4.616000      8.167000
C          21.943000     -4.498000      5.894000
C          21.524000      0.027000      5.843000
C          19.621000     -2.401000     11.325000
C          18.080000     -0.034000      6.385000
C          22.039000     -5.182000      7.092000
C          18.392000     -0.274000     10.027000
C          23.343000     -1.362000      6.677000
C          18.061000     -4.060000      5.800000
C          18.352000     -2.544000     10.833000
C          18.030000     -5.359000      7.823000
C          17.181000     -3.478000      6.722000
C          17.028000     -2.019000      9.109000
C          18.305000      0.353000      8.804000
C          19.994000     -5.442000      6.252000
C          20.073000      1.108000      7.268000
C          18.971000     -5.705000      8.987000
C          18.921000     -4.805000     10.187000
C          19.339000      0.490000      6.175000
C          22.447000     -0.672000     10.093000
C          22.327000      0.432000      8.077000
C          23.264000     -0.603000      7.915000
C          23.407000     -2.732000      6.815000
C          20.231000     -4.615000     10.622000
C          18.629000     -5.249000      6.397000
C          22.687000     -3.257000      5.723000
C          17.701000     -1.512000     10.173000
C          20.681000     -4.568000      5.366000
C          17.046000     -2.067000      6.669000
C          21.813000     -2.860000     10.981000
C          22.462000     -1.026000      5.666000
C          17.311000     -4.138000      7.939000
C          23.507000     -2.667000      9.234000
C          16.947000     -1.346000      7.852000
C          18.814000     -3.244000      4.938000
C          20.422000      0.587000      9.586000
C          19.713000     -0.091000     10.573000
C          18.664000     -1.885000      4.860000
C          20.576000     -3.430000     11.213000
C          17.980000     -3.757000     10.228000
C          21.678000     -1.477000     10.968000
C          20.392000     -5.836000      8.692000
C          20.779000     -2.325000      4.458000
C          17.199000     -3.402000      9.113000
C          17.741000     -1.250000      5.747000
C          22.758000     -3.463000     10.090000
C          20.242000     -0.105000      5.258000
C          23.547000     -3.413000      8.032000
C          21.414000      0.797000      7.020000
C          20.096000     -3.571000      4.610000
C          19.873000     -1.288000      4.559000
C          20.828000     -5.798000      7.340000
C          21.146000     -5.245000      9.716000
C          21.760000      0.340000      9.418000
C          22.056000     -2.178000      5.010000
C          17.569000     -0.118000      7.728000
C          20.313000     -1.195000     11.161000
C          19.541000      0.968000      8.558000
C          22.378000     -4.639000      9.427000
C          23.317000     -1.249000      9.148000
O          22.599000      6.203000     -0.874000
C          23.924000      6.853000     -0.846000
H          24.232000      7.430000     -1.726000
H          24.664000      6.074000     -0.622000
H          23.988000      7.560000     -0.010000
O          21.425000      8.203000     -0.523000
C          21.473000      7.001000     -0.776000
C          20.165000      6.118000     -1.086000
H          20.251000      5.815000     -2.137000
H          19.308000      6.802000     -1.058000
C          19.923000      4.977000     -0.022000
H          20.352000      5.273000      0.944000
H          18.857000      4.790000      0.155000
C          20.709000      3.697000     -0.462000
H          20.536000      3.447000     -1.516000
H          21.776000      3.806000     -0.233000
C          20.273000      2.446000      0.335000
C          20.927000      2.425000      1.724000
C          22.092000      1.651000      2.034000
H          22.523000      0.981000      1.297000
C          22.565000      1.626000      3.366000
H          23.511000      1.144000      3.590000
C          21.930000      2.482000      4.337000
H          22.423000      2.505000      5.304000
C          20.769000      3.084000      4.042000
H          20.293000      3.628000      4.852000
C          20.248000      3.091000      2.760000
H          19.319000      3.638000      2.625000
C          19.765000     -3.029000      0.175000
C          17.970000     -2.304000      1.692000
C          14.652000     -3.262000     -1.171000
C          19.442000     -0.513000     -4.229000
C          14.183000      0.074000     -2.148000
C          19.284000     -2.162000      1.204000
C          16.718000     -0.084000     -4.682000
C          16.595000     -4.452000     -0.673000
C          16.586000      1.323000      0.782000
C          18.890000      0.816000     -3.982000
C          18.835000      1.885000      0.133000
C          16.508000      1.988000     -0.427000
C          17.006000      1.796000     -3.137000
C          15.380000     -0.217000     -4.174000
C          18.360000     -0.089000      1.695000
C          14.416000     -2.177000     -3.175000
C          20.004000      1.162000     -0.385000
C          20.155000      0.870000     -1.888000
C          13.960000     -1.295000     -2.142000
C          18.073000     -3.597000     -3.721000
C          15.967000     -4.023000     -2.996000
C          16.832000     -4.588000     -2.088000
C          17.701000     -4.161000      0.178000
C          20.617000     -0.394000     -2.045000
C          17.912000      1.130000      1.101000
C          17.189000     -3.372000      1.255000
C          17.508000      0.963000     -4.150000
C          17.397000     -1.079000      1.950000
C          15.467000      1.699000     -1.368000
C          20.029000     -2.477000     -3.211000
C          15.498000     -3.778000     -0.198000
C          17.827000      2.290000     -0.919000
C          19.214000     -4.141000     -1.679000
C          15.699000      1.643000     -2.696000
C          15.650000      0.333000      1.125000
C          16.334000     -2.249000     -4.686000
C          17.318000     -1.346000     -4.995000
C          14.597000      0.036000      0.253000
C          20.268000     -1.054000     -3.196000
C          19.189000      1.401000     -2.750000
C          19.022000     -2.705000     -4.144000
C          20.294000     -0.205000      0.209000
C          15.218000     -1.863000      1.281000
C          18.083000      2.125000     -2.244000
C          14.486000      0.724000     -0.977000
C          20.165000     -3.166000     -2.025000
C          14.049000     -1.992000     -0.920000
C          18.996000     -4.032000     -0.332000
C          14.831000     -3.351000     -2.523000
C          16.058000     -0.846000      1.729000
C          14.305000     -1.328000      0.340000
C          19.537000     -0.743000      1.208000
C          20.694000     -1.046000     -0.829000
C          16.682000     -3.401000     -4.049000
C          15.806000     -3.134000      0.991000
C          14.849000      0.655000     -3.226000
C          18.698000     -1.559000     -4.861000
C          15.137000     -1.590000     -4.228000
C          20.458000     -2.444000     -0.859000
C          18.172000     -4.383000     -2.549000
$end

--------------------------------------------------------------

             Standard Nuclear Orientation (Angstroms)
    I     Atom           X                Y                Z
 ----------------------------------------------------------------
    1      O       5.1782523213    -5.3969056486     4.0672083967
    2      C       4.1424102244    -6.0619295766     4.8397621653
    3      H       4.5687748497    -6.6963311764     5.6257983073
    4      H       3.5699214500    -6.7711508607     4.2285152647
    5      H       3.4362498818    -5.3190848097     5.2296611560
    6      O       6.1558890245    -7.2874211006     3.3193449048
    7      C       6.0825515677    -6.0997911020     3.3450471179
    8      C       7.0756296574    -5.1763383290     2.6297626405
    9      H       7.9116567511    -5.8145000907     2.3168772551
   10      H       7.5323783314    -4.4779774142     3.3416240607
   11      C       6.3791198903    -4.4763392099     1.4143728357
   12      H       6.2164940990    -5.1841137290     0.5912409616
   13      H       5.4133718772    -4.0100682457     1.6446686525
   14      C       7.3411559423    -3.3954007863     0.7749873815
   15      H       7.6418575051    -2.6726352835     1.5433529183
   16      H       8.2277810818    -3.8244174625     0.2923016106
   17      C       6.5681857467    -2.7813265438    -0.3748225599
   18      C       6.5606717531    -3.6702365820    -1.6010527519
   19      C       7.7576972162    -3.8053592344    -2.3822882539
   20      H       8.6589287616    -3.2641013897    -2.1088496917
   21      C       7.7071625032    -4.6249818671    -3.5358722268
   22      H       8.5743199096    -4.8005364878    -4.1648043438
   23      C       6.5218582585    -5.2899734973    -3.8637502213
   24      H       6.4094081164    -5.9325348555    -4.7319891668
   25      C       5.3774419758    -5.2311803340    -3.0822262384
   26      H       4.4697237890    -5.7707015605    -3.3355176509
   27      C       5.4123311635    -4.3557867163    -2.0323958908
   28      H       4.4878250751    -4.3023188828    -1.4650100579
   29      C       5.7577469387     1.7717600607    -3.2613350423
   30      C       3.5718569269     0.6649719886    -3.2186499157
   31      C       1.6294514615     3.6780073676    -0.4253604905
   32      C       7.4498712225     2.2113176310     1.4562484016
   33      C       1.8659612669     1.6130553133     2.3743997003
   34      C       4.9486398346     0.5552064277    -3.2871798129
   35      C       5.2962267763     2.6297576432     3.1609764021
   36      C       3.1062860510     4.0410534839    -2.3281991890
   37      C       2.9900093438    -1.4866022118    -0.0088546185
   38      C       6.9587000078     1.1738661738     2.2014459002
   39      C       5.3584164643    -1.8982544226    -0.0544744489
   40      C       3.5157881752    -1.3656289058     1.2842540698
   41      C       5.0698060452     0.2510745360     2.9638842199
   42      C       3.9209376264     2.6969086165     3.1832811371
   43      C       4.1264845785    -1.1510213346    -2.1175334740
   44      C       2.3599837294     3.9397184930     1.7431451914
   45      C       6.6340998082    -1.2394133480    -0.6009663928
   46      C       7.3490100727    -0.2886035639     0.3141095976
   47      C       1.5622891193     2.7295467193     1.6227434176
   48      C       5.8502926750     4.9117092297    -0.1694129050
   49      C       3.5561768085     5.0883774913    -0.1120307095
   50      C       3.9113481280     4.8814396387    -1.4560798377
   51      C       3.8005072914     3.1227151775    -3.0863229418
   52      C       7.7724392208     0.7932766098    -0.4550900165
   53      C       4.0674804767    -1.8305756752    -0.9107926509
   54      C       2.9665929645     1.9892663130    -3.1661325079
   55      C       5.8818802860     1.3341897972     3.0612020416
   56      C       3.0185379831    -0.3248155647    -2.4502185617
   57      C       2.8760715199    -0.4389639434     2.1468140088
   58      C       7.5050647416     3.1638173703    -0.5988863682
   59      C       1.9784944821     3.4545115912    -1.7848459107
   60      C       4.9027131725    -1.4313415340     1.2086901739
   61      C       5.9777975288     3.8936836655    -2.3577621603
   62      C       3.6452133302     0.3461702794     2.9959995763
   63      C       1.9330926811    -0.6544623537    -0.4167509591
   64      C       4.7070072113     4.4137229628     1.9252620164
   65      C       5.8241947271     3.7437922847     2.4147708939
   66      C       1.2908569513     0.2181118466     0.4208721855
   67      C       7.8494285525     2.0337346564     0.1175071170
   68      C       6.8783236913    -0.1077803068     1.6298691805
   69      C       6.9131803708     4.0810450040     0.2610260457
   70      C       6.5359893264    -0.5204784305    -1.8646649003
   71      C       1.2793081483     1.1201014421    -1.5828020383
   72      C       5.6564536182    -0.6459427379     2.0732941708
   73      C       1.7595517662     0.3409930002     1.7651743809
   74      C       7.0213637813     3.0769686831    -1.9438791884
   75      C       1.0482723648     2.6149676154     0.3063159016
   76      C       5.1968882334     3.0480271553    -3.1811489096
   77      C       2.3720876579     4.4902114338     0.4573314347
   78      C       1.8743519469    -0.1746080770    -1.6912416021
   79      C       0.8704657810     1.3313523834    -0.2810236552
   80      C       5.3285746056    -0.5875877051    -2.6110495445
   81      C       7.2837875973     0.6638045441    -1.7965137285
   82      C       4.7651530412     5.0307221146     0.7023932135
   83      C       1.8239512655     2.1818878497    -2.3128811432
   84      C       3.0780237648     1.5970265301     3.1505914159
   85      C       6.8611269066     3.4793266384     1.5319404588
   86      C       3.5452667564     3.8552638880     2.4879240617
   87      C       6.8724601977     1.8013507578    -2.5074141308
   88      C       5.3007630150     4.7817930778    -1.4593714107
   89      O      -6.9217695829     7.0117195740    -0.0014836535
   90      C      -7.0558628855     8.3264111901    -0.6591415743
   91      H      -8.0670308425     8.6996124354    -0.8602713665
   92      H      -6.4716842332     8.2870339290    -1.5874743452
   93      H      -6.5826750933     9.1092224105    -0.0540457913
   94      O      -7.5217658631     7.8228415925     2.1159587979
   95      C      -7.2529148058     6.9098079710     1.3380091111
   96      C      -7.2775507354     5.3593460370     1.7647571187
   97      H      -8.0999273073     4.9060707990     1.1972676187
   98      H      -7.6034135056     5.3247931706     2.8115181012
   99      C      -5.8618984802     4.6677933244     1.6636406607
  100      H      -5.0718419904     5.4170481760     1.8023522688
  101      H      -5.7111284979     3.9089003368     2.4408175040
  102      C      -5.6705753390     4.1116637786     0.2131540582
  103      H      -6.5385860227     3.5330251198    -0.1260800136
  104      H      -5.4206144377     4.9253563786    -0.4783912408
  105      C      -4.4678397783     3.1450261673     0.1164850379
  106      C      -3.1450249082     3.9209607055     0.0418900532
  107      C      -2.4502087136     4.1763256368    -1.1846580330
  108      H      -2.8084222524     3.7591573201    -2.1203308691
  109      C      -1.1922376598     4.8198092791    -1.1397622664
  110      H      -0.7134862575     5.1261400211    -2.0640861119
  111      C      -0.7147637802     5.3077054627     0.1301897045
  112      H       0.1937503925     5.8989941751     0.0698021508
  113      C      -1.3248620833     4.9338695013     1.2639342677
  114      H      -0.8522007583     5.2510079276     2.1883943752
  115      C      -2.5339488438     4.2607275946     1.2621512976
  116      H      -2.9572704190     4.0366822692     2.2373833398
  117      C      -2.4015896897    -1.2002461743    -2.5496934723
  118      C      -1.4690815210    -1.3889181835    -0.2817052915
  119      C      -3.9441513633    -4.9569188894     0.8439310790
  120      C      -7.4610108156    -0.7767892156    -2.3200348663
  121      C      -6.2419670923    -3.0929960536     2.7278685880
  122      C      -1.8634444553    -0.5915366819    -1.3742091209
  123      C      -8.2706951917    -2.3037920723    -0.1241069334
  124      C      -2.8441092644    -4.4628447955    -1.1523532621
  125      C      -3.9003689143     0.1287736215     2.4903225215
  126      C      -7.8286306355    -0.0903946207    -1.0848538561
  127      C      -4.5375268954     1.7763788361     0.8549409868
  128      C      -5.2778524871     0.2330512063     2.5310065719
  129      C      -7.6183221978    -0.3332109116     1.1780406642
  130      C      -7.8638356839    -3.1042779245     0.9982498465
  131      C      -2.3460229254     0.4683353777     0.6347645568
  132      C      -6.2290069272    -4.8638340385     0.9843136375
  133      C      -4.6150019329     1.8451912056    -0.6102813432
  134      C      -5.8469198032     1.3173853067    -1.3658429182
  135      C      -5.6913660226    -4.2273811353     2.1499975396
  136      C      -5.8423837743    -3.7429080871    -2.7948678280
  137      C      -5.1805465220    -5.1808038077    -1.1710561554
  138      C      -4.0533284507    -4.7990105181    -1.8606410332
  139      C      -2.1012298601    -3.3223412282    -1.5760274336
  140      C      -5.4316802392     0.6461730586    -2.4671327177
  141      C      -3.4233382883     0.9105078512     1.4614302162
  142      C      -1.4899416671    -2.7767666118    -0.4041617916
  143      C      -8.1542226763    -0.8996002966     0.0101041326
  144      C      -1.7856324036    -0.7883763341     0.9160689050
  145      C      -6.0979580349    -0.8896511073     2.8769103239
  146      C      -5.6809204459    -1.5574244222    -3.5283708916
  147      C      -2.7796392247    -4.5337001961     0.2166365575
  148      C      -5.7412767706     1.1488484583     1.5212628783
  149      C      -3.6719115355    -2.8623074578    -3.3251260599
  150      C      -7.2615276643    -1.1470220085     2.2441307914
  151      C      -3.2578950328    -1.0869001801     2.7787831247
  152      C      -7.4147469707    -4.1211782024    -1.0180629151
  153      C      -7.9866467250    -2.9292634462    -1.3805762044
  154      C      -4.0130504522    -2.2041299478     3.1515296053
  155      C      -6.2333750059    -0.3679569609    -2.9265103451
  156      C      -6.9266190727     0.8598319344    -0.6022622748
  157      C      -6.5160943030    -2.6121701320    -3.1726770398
  158      C      -3.4896598256     1.1958957233    -1.3961856110
  159      C      -2.2478587985    -2.9133532706     1.9558178072
  160      C      -6.8553157891     0.8281392240     0.8110173911
  161      C      -5.4217499856    -2.1096411750     3.2236579391
  162      C      -4.3097143104    -1.6489165571    -3.6343705300
  163      C      -4.2880177152    -4.3444533354     2.0873746351
  164      C      -2.5117623964    -2.5523870773    -2.6679979654
  165      C      -5.1202465805    -5.2782176741     0.2263283499
  166      C      -2.1912204196    -1.5224386354     2.0081778278
  167      C      -3.3965994438    -3.3562025465     2.6554994838
  168      C      -2.4230978617     0.6008328066    -0.7888638658
  169      C      -4.0532730796     0.5526320203    -2.4976741078
  170      C      -6.3341146530    -4.5658483148    -1.7169758462
  171      C      -1.9402060171    -3.5466438487     0.7109974146
  172      C      -7.4053507948    -2.5455408433     2.1893222543
  173      C      -7.6649236922    -2.1786024002    -2.5210705202
  174      C      -7.3676842196    -4.2705541672     0.4145312070
  175      C      -3.5244777381    -0.6208622747    -3.0928939212
  176      C      -4.4469868869    -3.9320657026    -2.9300267085
 ----------------------------------------------------------------

    9   -5804.2665349447      8.39E-06 Convergence criterion met
 Total energy in the final basis set = -5804.2665349447

                    Orbital Energies (a.u.)
 --------------------------------------------------------------

 Alpha MOs
 -- Occupied --
-19.202 -19.188 -19.144 -19.131 -10.326 -10.311 -10.251 -10.246
-10.240 -10.237 -10.237 -10.236 -10.235 -10.233 -10.231 -10.228
-10.227 -10.226 -10.224 -10.223 -10.222 -10.222 -10.222 -10.221
-10.221 -10.221 -10.220 -10.220 -10.220 -10.220 -10.220 -10.220
-10.219 -10.219 -10.219 -10.219 -10.219 -10.219 -10.218 -10.218
-10.218 -10.218 -10.218 -10.218 -10.217 -10.217 -10.217 -10.217
-10.217 -10.217 -10.217 -10.217 -10.217 -10.217 -10.216 -10.216
-10.216 -10.216 -10.216 -10.216 -10.216 -10.216 -10.216 -10.216
-10.216 -10.215 -10.215 -10.215 -10.215 -10.215 -10.215 -10.215
-10.215 -10.214 -10.214 -10.214 -10.214 -10.214 -10.214 -10.214
-10.214 -10.214 -10.214 -10.214 -10.214 -10.213 -10.213 -10.213
-10.213 -10.213 -10.213 -10.212 -10.212 -10.212 -10.212 -10.212
-10.212 -10.212 -10.211 -10.211 -10.211 -10.211 -10.211 -10.211
-10.211 -10.211 -10.210 -10.210 -10.210 -10.210 -10.210 -10.210
-10.210 -10.209 -10.209 -10.209 -10.209 -10.209 -10.209 -10.209
-10.209 -10.208 -10.208 -10.208 -10.208 -10.208 -10.208 -10.207
-10.207 -10.207 -10.207 -10.206 -10.206 -10.205 -10.204 -10.204
-10.204 -10.203 -10.202 -10.202 -10.201 -10.200 -10.198 -10.197
-10.196 -10.195 -10.193 -10.190  -1.095  -1.083  -1.016  -1.010
 -0.984  -0.984  -0.967  -0.966  -0.964  -0.964  -0.963  -0.962
 -0.935  -0.933  -0.930  -0.929  -0.928  -0.926  -0.923  -0.922
 -0.921  -0.920  -0.897  -0.895  -0.894  -0.894  -0.886  -0.885
 -0.875  -0.874  -0.855  -0.855  -0.845  -0.844  -0.840  -0.840
 -0.839  -0.837  -0.822  -0.820  -0.802  -0.800  -0.799  -0.798
 -0.798  -0.796  -0.793  -0.793  -0.792  -0.791  -0.785  -0.782
 -0.773  -0.772  -0.772  -0.770  -0.768  -0.768  -0.763  -0.761
 -0.755  -0.751  -0.741  -0.738  -0.732  -0.730  -0.719  -0.718
 -0.716  -0.715  -0.713  -0.713  -0.712  -0.710  -0.710  -0.709
 -0.708  -0.708  -0.706  -0.705  -0.703  -0.702  -0.673  -0.673
 -0.662  -0.660  -0.659  -0.657  -0.646  -0.646  -0.633  -0.630
 -0.629  -0.627  -0.626  -0.623  -0.622  -0.621  -0.621  -0.618
 -0.617  -0.616  -0.614  -0.613  -0.612  -0.611  -0.610  -0.609
 -0.608  -0.607  -0.604  -0.603  -0.569  -0.568  -0.565  -0.563
 -0.562  -0.561  -0.560  -0.560  -0.557  -0.557  -0.555  -0.554
 -0.537  -0.536  -0.534  -0.533  -0.529  -0.528  -0.527  -0.526
 -0.525  -0.523  -0.520  -0.519  -0.517  -0.515  -0.515  -0.515
 -0.507  -0.506  -0.498  -0.496  -0.492  -0.489  -0.487  -0.485
 -0.484  -0.483  -0.483  -0.479  -0.478  -0.477  -0.475  -0.473
 -0.472  -0.471  -0.470  -0.469  -0.469  -0.469  -0.467  -0.467
 -0.467  -0.466  -0.464  -0.464  -0.461  -0.460  -0.460  -0.456
 -0.455  -0.454  -0.453  -0.450  -0.449  -0.448  -0.445  -0.444
 -0.443  -0.441  -0.441  -0.438  -0.438  -0.436  -0.434  -0.433
 -0.431  -0.431  -0.430  -0.429  -0.427  -0.427  -0.426  -0.425
 -0.424  -0.423  -0.423  -0.422  -0.422  -0.421  -0.420  -0.419
 -0.419  -0.418  -0.418  -0.416  -0.416  -0.415  -0.414  -0.412
 -0.411  -0.410  -0.409  -0.406  -0.404  -0.399  -0.398  -0.396
 -0.395  -0.392  -0.391  -0.391  -0.389  -0.388  -0.387  -0.387
 -0.382  -0.379  -0.374  -0.373  -0.371  -0.370  -0.368  -0.368
 -0.367  -0.366  -0.365  -0.364  -0.363  -0.362  -0.361  -0.359
 -0.359  -0.357  -0.356  -0.356  -0.355  -0.354  -0.352  -0.352
 -0.350  -0.349  -0.348  -0.347  -0.347  -0.346  -0.346  -0.345
 -0.344  -0.343  -0.341  -0.339  -0.339  -0.338  -0.336  -0.333
 -0.333  -0.333  -0.330  -0.329  -0.328  -0.328  -0.327  -0.322
 -0.307  -0.306  -0.304  -0.298  -0.291  -0.285  -0.274  -0.272
 -0.271  -0.269  -0.269  -0.268  -0.267  -0.265  -0.265  -0.264
 -0.263  -0.262  -0.262  -0.260  -0.259  -0.258  -0.257  -0.255
 -0.253  -0.247  -0.246  -0.239  -0.224  -0.221  -0.214  -0.213
 -0.209  -0.209  -0.207  -0.205  -0.202  -0.199

          Ground-State Mulliken Net Atomic Charges

     Atom                 Charge (a.u.)
  ----------------------------------------
      1 O                    -0.462646
      2 C                    -0.088967
      3 H                     0.129796
      4 H                     0.127600
      5 H                     0.128067
      6 O                    -0.450798
      7 C                     0.571278
      8 C                    -0.242799
      9 H                     0.129670
     10 H                     0.122762
     11 C                    -0.194770
     12 H                     0.122936
     13 H                     0.123180
     14 C                    -0.187211
     15 H                     0.110353
     16 H                     0.109987
     17 C                     0.018027
     18 C                     0.087698
     19 C                    -0.115266
     20 H                     0.096588
     21 C                    -0.086455
     22 H                     0.095058
     23 C                    -0.085928
     24 H                     0.085791
     25 C                    -0.078697
     26 H                     0.098923
     27 C                    -0.105622
     28 H                     0.088565
     29 C                     0.008646
     30 C                    -0.021730
     31 C                     0.008133
     32 C                     0.016689
     33 C                    -0.012991
     34 C                    -0.007389
     35 C                    -0.024577
     36 C                    -0.033803
     37 C                    -0.013366
     38 C                    -0.011088
     39 C                    -0.076582
     40 C                    -0.012252
     41 C                     0.007416
     42 C                     0.040055
     43 C                     0.011256
     44 C                    -0.026212
     45 C                    -0.114703
     46 C                     0.037040
     47 C                     0.003345
     48 C                    -0.013142
     49 C                    -0.041381
     50 C                     0.011273
     51 C                     0.037033
     52 C                    -0.002937
     53 C                    -0.032940
     54 C                    -0.037473
     55 C                    -0.000689
     56 C                     0.042850
     57 C                     0.003874
     58 C                    -0.004221
     59 C                     0.005940
     60 C                     0.085402
     61 C                    -0.020407
     62 C                    -0.006669
     63 C                     0.052775
     64 C                     0.036990
     65 C                    -0.040218
     66 C                     0.003947
     67 C                    -0.005551
     68 C                    -0.023079
     69 C                     0.001720
     70 C                     0.051494
     71 C                    -0.001799
     72 C                    -0.018711
     73 C                    -0.022093
     74 C                    -0.000889
     75 C                     0.034402
     76 C                    -0.010683
     77 C                    -0.004368
     78 C                    -0.034243
     79 C                    -0.005163
     80 C                     0.003792
     81 C                     0.000170
     82 C                     0.000470
     83 C                     0.005310
     84 C                    -0.015724
     85 C                     0.010524
     86 C                     0.001001
     87 C                     0.011669
     88 C                     0.017884
     89 O                    -0.459345
     90 C                    -0.097575
     91 H                     0.132848
     92 H                     0.127271
     93 H                     0.137442
     94 O                    -0.456339
     95 C                     0.574550
     96 C                    -0.245476
     97 H                     0.128478
     98 H                     0.126321
     99 C                    -0.194314
    100 H                     0.120921
    101 H                     0.112768
    102 C                    -0.170725
    103 H                     0.103376
    104 H                     0.131842
    105 C                     0.004383
    106 C                     0.066043
    107 C                    -0.111119
    108 H                     0.095446
    109 C                    -0.098231
    110 H                     0.095580
    111 C                    -0.087163
    112 H                     0.095892
    113 C                    -0.081361
    114 H                     0.089991
    115 C                    -0.096522
    116 H                     0.094172
    117 C                    -0.017388
    118 C                     0.012809
    119 C                     0.013981
    120 C                    -0.013601
    121 C                     0.012133
    122 C                     0.005098
    123 C                    -0.014679
    124 C                    -0.013740
    125 C                     0.032398
    126 C                    -0.048924
    127 C                    -0.066733
    128 C                    -0.001532
    129 C                    -0.001854
    130 C                     0.028986
    131 C                    -0.018678
    132 C                    -0.009931
    133 C                    -0.119502
    134 C                     0.016884
    135 C                     0.008497
    136 C                     0.007044
    137 C                    -0.010102
    138 C                    -0.009292
    139 C                    -0.006041
    140 C                     0.010108
    141 C                     0.020334
    142 C                    -0.034702
    143 C                     0.000737
    144 C                     0.031217
    145 C                    -0.011535
    146 C                    -0.017697
    147 C                     0.031482
    148 C                     0.011683
    149 C                    -0.013347
    150 C                     0.008352
    151 C                    -0.007055
    152 C                    -0.006536
    153 C                     0.041304
    154 C                     0.003026
    155 C                     0.015301
    156 C                     0.015552
    157 C                     0.014650
    158 C                     0.033795
    159 C                    -0.023947
    160 C                     0.013576
    161 C                     0.000684
    162 C                    -0.005629
    163 C                    -0.024439
    164 C                     0.023211
    165 C                     0.011720
    166 C                     0.010356
    167 C                    -0.017827
    168 C                    -0.000152
    169 C                     0.014246
    170 C                     0.004498
    171 C                    -0.006207
    172 C                    -0.025236
    173 C                    -0.036499
    174 C                    -0.021684
    175 C                     0.001642
    176 C                     0.008878
  ----------------------------------------
  Sum of atomic charges =     0.000000

                    Cartesian Multipole Moments
 -----------------------------------------------------------------
    Charge (ESU x 10^10)
                 0.0000
    Dipole Moment (Debye)
         X       1.2006      Y       0.8962      Z      -1.9816
       Tot       2.4842
    Quadrupole Moments (Debye-Ang)
        XX    -806.0082     XY       1.8931     YY    -820.6700
        XZ       5.0239     YZ      -8.6783     ZZ    -802.8971

 Total job time:  877.04s(wall), 8341.14s(cpu)
        *  Thank you very much for using Q-Chem.  Have a nice day.  *
