 Q-Chem 4.4, Q-Chem, Inc., Pleasanton, CA (2016)
 Q-Chem 4.4.2 for Intel X86 Linux

User input:
--------------------------------------------------------------
$comment
SP
$end

$rem
MEM_STATIC 5000
MEM_TOTAL 20000
JOBTYPE SP
EXCHANGE B3LYP
BASIS 6-31g(d,p)
$end

$molecule
0 1
O          -7.545000    -29.149000      3.478000
C          -7.223000    -29.496000      2.072000
H          -6.378000    -30.195000      2.073000
H          -7.157000    -28.595000      1.450000
H          -8.009000    -30.151000      1.675000
O          -9.154000    -27.664000      2.872000
C          -8.600000    -28.376000      3.733000
C          -9.014000    -28.340000      5.228000
H          -8.118000    -27.864000      5.646000
H          -8.875000    -29.370000      5.578000
C         -10.355000    -27.689000      5.603000
H         -10.382000    -27.818000      6.692000
H         -10.264000    -26.619000      5.382000
C         -11.576000    -28.402000      4.965000
H         -11.537000    -28.161000      3.895000
H         -11.521000    -29.494000      5.056000
C         -12.958000    -27.812000      5.566000
C         -13.442000    -28.606000      6.791000
C         -14.449000    -29.580000      6.559000
H         -14.868000    -29.807000      5.583000
C         -14.854000    -30.349000      7.663000
H         -15.720000    -30.991000      7.532000
C         -14.258000    -30.143000      8.886000
H         -14.452000    -30.822000      9.711000
C         -13.227000    -29.265000      9.078000
H         -12.640000    -29.258000      9.991000
C         -12.855000    -28.468000      8.056000
H         -11.983000    -27.834000      8.188000
C         -17.878000    -26.017000      4.055000
C         -17.526000    -24.753000      6.093000
C         -16.839000    -20.823000      4.107000
C         -14.044000    -25.406000      0.799000
C         -13.335000    -20.997000      4.270000
C         -17.416000    -25.905000      5.343000
C         -12.997000    -22.803000      1.139000
C         -18.468000    -22.487000      3.657000
C         -13.573000    -24.199000      6.646000
C         -12.878000    -25.235000      1.549000
C         -13.228000    -26.271000      5.535000
C         -12.508000    -24.031000      5.722000
C         -11.804000    -23.869000      3.031000
C         -13.135000    -21.638000      1.897000
C         -15.485000    -25.707000      6.501000
C         -15.089000    -20.560000      2.691000
C         -13.961000    -27.229000      4.589000
C         -13.669000    -26.872000      3.162000
C         -14.647000    -20.439000      3.979000
C         -16.970000    -23.513000      0.612000
C         -17.110000    -21.579000      1.875000
C         -18.091000    -22.478000      2.332000
C         -18.662000    -23.737000      4.236000
C         -14.864000    -27.028000      2.456000
C         -14.077000    -25.527000      6.482000
C         -18.186000    -23.662000      5.551000
C         -12.355000    -23.977000      1.730000
C         -16.273000    -24.649000      6.780000
C         -12.308000    -22.767000      5.114000
C         -16.282000    -25.829000      0.925000
C         -17.843000    -21.677000      4.594000
C         -12.310000    -25.240000      5.056000
C         -18.218000    -24.877000      2.131000
C         -11.993000    -22.715000      3.756000
C         -14.475000    -23.120000      6.896000
C         -15.066000    -22.020000      0.697000
C         -14.170000    -23.024000      0.395000
C         -14.224000    -21.856000      6.310000
C         -15.029000    -26.330000      1.217000
C         -12.685000    -25.959000      2.728000
C         -16.080000    -24.579000      0.289000
C         -15.481000    -27.278000      4.636000
C         -16.474000    -22.235000      6.491000
C         -12.002000    -25.149000      3.664000
C         -13.099000    -21.649000      5.461000
C         -17.340000    -25.985000      1.818000
C         -15.676000    -20.565000      4.912000
C         -18.540000    -24.916000      3.495000
C         -16.433000    -20.798000      2.766000
C         -15.802000    -23.350000      7.024000
C         -15.493000    -21.345000      6.092000
C         -16.164000    -26.555000      5.623000
C         -15.960000    -27.290000      3.328000
C         -16.438000    -22.175000      0.757000
C         -17.680000    -22.348000      5.797000
C         -12.628000    -21.620000      3.227000
C         -14.704000    -24.337000      0.288000
C         -14.380000    -21.146000      1.630000
C         -17.179000    -26.684000      2.995000
C         -18.026000    -23.636000      1.518000
O          -8.112000    -27.974000     -3.123000
C          -7.565000    -29.189000     -3.808000
H          -6.584000    -29.439000     -3.386000
H          -7.400000    -29.035000     -4.881000
H          -8.182000    -30.055000     -3.537000
O          -8.140000    -28.943000     -1.029000
C          -8.404000    -28.044000     -1.725000
C          -9.001000    -26.698000     -1.220000
H          -8.261000    -25.888000     -1.245000
H          -9.279000    -26.818000     -0.166000
C         -10.181000    -26.189000     -1.947000
H          -9.901000    -25.979000     -2.987000
H         -10.914000    -27.004000     -1.978000
C         -10.814000    -24.926000     -1.285000
H         -11.882000    -24.891000     -1.533000
H         -10.734000    -25.034000     -0.197000
C         -10.147000    -23.627000     -1.777000
C          -8.908000    -23.316000     -1.009000
C          -8.980000    -23.288000      0.404000
H          -9.924000    -23.413000      0.927000
C          -7.901000    -22.965000      1.204000
H          -7.985000    -22.798000      2.274000
C          -6.670000    -22.666000      0.638000
H          -5.802000    -22.438000      1.251000
C          -6.557000    -22.675000     -0.756000
H          -5.566000    -22.407000     -1.109000
C          -7.629000    -23.078000     -1.591000
H          -7.425000    -23.144000     -2.656000
C         -10.953000    -18.260000     -2.638000
C          -9.283000    -18.873000     -4.245000
C         -11.919000    -18.462000     -7.911000
C         -15.066000    -21.343000     -3.100000
C         -12.526000    -21.851000     -8.068000
C          -9.869000    -19.055000     -3.005000
C         -15.313000    -22.035000     -5.766000
C         -11.863000    -17.024000     -5.937000
C          -9.647000    -22.635000     -5.382000
C         -14.566000    -22.586000     -3.523000
C         -10.282000    -23.180000     -3.165000
C         -10.733000    -23.486000     -5.563000
C         -13.481000    -23.635000     -5.169000
C         -14.744000    -21.816000     -7.042000
C          -9.023000    -21.063000     -3.731000
C         -13.827000    -19.807000     -8.120000
C         -11.046000    -22.469000     -2.043000
C         -12.564000    -22.395000     -2.077000
C         -12.650000    -20.543000     -8.485000
C         -14.895000    -18.210000     -4.514000
C         -13.993000    -17.910000     -6.614000
C         -13.222000    -17.111000     -5.734000
C         -10.995000    -17.148000     -4.773000
C         -13.001000    -21.078000     -1.743000
C          -9.348000    -22.383000     -4.019000
C          -9.840000    -17.919000     -5.168000
C         -14.685000    -22.923000     -4.907000
C          -8.814000    -20.095000     -4.714000
C         -11.563000    -23.354000     -6.651000
C         -14.391000    -19.240000     -2.446000
C         -11.181000    -17.697000     -6.983000
C         -11.219000    -23.798000     -4.246000
C         -12.904000    -17.456000     -3.384000
C         -12.963000    -23.359000     -6.452000
C          -9.320000    -21.714000     -6.437000
C         -15.452000    -19.785000     -6.289000
C         -15.821000    -20.754000     -5.328000
C         -10.119000    -21.581000     -7.509000
C         -14.235000    -20.621000     -2.201000
C         -13.324000    -23.083000     -3.088000
C         -15.219000    -19.180000     -3.542000
C         -10.760000    -21.018000     -1.928000
C          -9.554000    -19.516000     -6.951000
C         -12.618000    -23.758000     -4.106000
C         -11.271000    -22.376000     -7.619000
C         -13.207000    -18.433000     -2.393000
C         -11.534000    -19.724000     -8.409000
C         -11.511000    -17.297000     -3.488000
C         -13.319000    -18.557000     -7.692000
C          -8.891000    -20.454000     -6.084000
C         -10.322000    -20.232000     -7.849000
C          -9.764000    -20.404000     -2.682000
C         -11.890000    -20.239000     -1.572000
C         -15.026000    -18.538000     -5.905000
C          -9.974000    -18.278000     -6.494000
C         -13.551000    -22.531000     -7.368000
C         -15.618000    -20.447000     -3.963000
C         -14.855000    -20.437000     -7.375000
C         -11.984000    -18.878000     -1.938000
C         -13.758000    -17.374000     -4.437000
$end

--------------------------------------------------------------

             Standard Nuclear Orientation (Angstroms)
    I     Atom           X                Y                Z
 ----------------------------------------------------------------
    1      O       4.7592992940    -7.2769401891    -0.6212658468
    2      C       3.6377120914    -7.9106232763     0.1145445174
    3      H       3.7990321181    -8.9952967904     0.1238298125
    4      H       2.6715111165    -7.5275306351    -0.2357934685
    5      H       3.7438031370    -7.6950931899     1.1853953342
    6      O       3.8572682475    -5.1986428564    -0.4528550744
    7      C       4.8260190686    -5.9477963999    -0.6883796270
    8      C       6.1852306243    -5.4057213992    -1.2045342941
    9      H       6.1586858455    -5.8100504967    -2.2243035599
   10      H       6.9357355734    -6.0625722035    -0.7484527856
   11      C       6.4665261422    -3.8990244956    -1.0885848558
   12      H       7.4757086472    -3.8156444795    -1.5103542770
   13      H       5.7658006032    -3.3901413738    -1.7609267981
   14      C       6.4729414916    -3.3932068679     0.3778261953
   15      H       5.4264936997    -3.4201064786     0.7075615891
   16      H       7.0432195214    -4.0493133178     1.0472119548
   17      C       6.9861349444    -1.8599814463     0.4490812770
   18      C       8.5058228596    -1.7678558552     0.6667473420
   19      C       8.9436892547    -1.5343184064     1.9972668947
   20      H       8.2809747477    -1.4445260989     2.8530781027
   21      C      10.3318862224    -1.5070904575     2.2126034163
   22      H      10.6779923689    -1.1862030650     3.1906232610
   23      C      11.1848648927    -1.7219675536     1.1544747750
   24      H      12.2495171092    -1.8493505943     1.3264957587
   25      C      10.7518442839    -2.0346987667    -0.1046524389
   26      H      11.4290368375    -2.3941845143    -0.8730060311
   27      C       9.4281982245    -2.0089949729    -0.3603425334
   28      H       9.0854943530    -2.3391927925    -1.3367069409
   29      C       5.7863910136     2.9715975837     2.6689922161
   30      C       6.9066756876     3.6592453070     0.6325377340
   31      C       3.2471116165     5.0962629539    -1.4659465027
   32      C       1.9514940556    -0.1970730157     1.7059216297
   33      C       2.8018878519     2.1718147485    -3.3591552850
   34      C       6.7644472883     2.8199898458     1.7174918129
   35      C       0.8511596077     0.4792544677    -0.8078928499
   36      C       3.9312457590     5.4143878146     0.7825627920
   37      C       6.3798531506     0.8336899484    -2.1919319384
   38      C       2.3017666888    -0.9534235636     0.5849667104
   39      C       6.3024877637    -0.7657970448    -0.4363163895
   40      C       5.2984298513    -0.0499030198    -2.4488601663
   41      C       2.7554681773    -0.8628460390    -1.6514828579
   42      C       0.9996813656     1.3496526756    -1.8901041265
   43      C       7.3107441879     1.5084016079    -0.0404117657
   44      C       1.5648841093     3.6495888611    -1.9285150742
   45      C       6.0614419953    -0.8341622483     1.0760301768
   46      C       4.6038426673    -1.0446229813     1.3591423077
   47      C       2.5426094691     3.5193545314    -2.8751095703
   48      C       1.4760281279     3.2353135860     2.1213110469
   49      C       1.7096768198     4.6084792037     0.2733528560
   50      C       2.7058791699     4.9490977978     1.2066110469
   51      C       5.0448639392     4.9308851556     1.4618688552
   52      C       4.2903666040    -0.2507136922     2.4646909491
   53      C       6.9436933056     0.4653231431    -0.9306285742
   54      C       6.0606830599     4.7501565527     0.5148341747
   55      C       1.7812267244    -0.6382963700    -0.6473429087
   56      C       7.2165293559     2.7862276563    -0.4604512348
   57      C       4.1520778784     0.4331154607    -3.1270417804
   58      C       2.6809332032     1.3947016370     3.1679821568
   59      C       4.2530377955     5.4849400601    -0.5650893389
   60      C       5.2385277776    -0.9827093929    -1.4141017346
   61      C       3.6580439260     3.6592492064     3.0070009737
   62      C       2.8901173913     0.0386024983    -2.6821729780
   63      C       6.2725163759     2.2124699531    -2.5494085325
   64      C       0.5014984072     2.5511053867     0.0133165109
   65      C       0.5303998634     1.2135201868     0.3480799180
   66      C       5.1355485293     2.6568014002    -3.2663232282
   67      C       2.9261106242     0.1277018692     2.6771933828
   68      C       3.6205901392    -1.3768424369     0.4036185250
   69      C       1.5163424426     1.8646407974     2.5117157887
   70      C       6.4138941781     0.3780419650     1.9253524972
   71      C       5.8947673090     4.2902313213    -1.8540925327
   72      C       3.9304808569    -1.3535132206    -0.9755509681
   73      C       4.0898564830     1.7560242866    -3.6190323661
   74      C       3.7286163965     2.2756098827     3.4278082315
   75      C       3.6056924783     4.3987804673    -2.6709759406
   76      C       4.9205676770     4.0676038452     2.5542524043
   77      C       1.9949949669     4.6145638649    -1.0610861767
   78      C       6.7416975155     3.1747733033    -1.7223327679
   79      C       4.9530188575     3.9516714316    -2.8091574809
   80      C       7.0678724375     1.4673452884     1.3344906641
   81      C       5.3757690351     0.5980011175     2.8277732187
   82      C       0.8857825894     3.5842898481     0.8469018611
   83      C       5.5740352580     5.1190822594    -0.7775340932
   84      C       2.0488089855     1.1131052691    -2.8226541582
   85      C       1.1425050513     0.8851359651     1.5882674207
   86      C       0.7788066026     2.6081232612    -1.4096417199
   87      C       5.0403043822     1.8921852716     3.2480550789
   88      C       2.5194449830     4.1350281621     2.3513022377
   89      O      -1.3995056511    -6.9648658677     2.0707680064
   90      C      -1.5395269933    -8.1868558304     2.9262173355
   91      H      -1.2451617538    -9.0737236589     2.3519703846
   92      H      -2.5725692977    -8.3660588014     3.2471221381
   93      H      -0.7891004904    -8.1460666963     3.7257686536
   94      O       0.8677556968    -7.2350901162     1.7374725877
   95      C      -0.0989470671    -6.5943354754     1.6062008980
   96      C      -0.1657707484    -5.2793556569     0.7758319002
   97      H      -0.7004447050    -5.4214618976    -0.1719310325
   98      H       0.8566612022    -4.9913575378     0.5032699993
   99      C      -0.8058984188    -4.1210065939     1.4304111648
  100      H      -1.8579216696    -4.3575694653     1.6338444156
  101      H      -0.3188416602    -3.9943791253     2.4046884345
  102      C      -0.6915273106    -2.8046591682     0.6008023988
  103      H      -0.7195908526    -1.9481759120     1.2856395103
  104      H       0.2867823732    -2.7963172525     0.1061827723
  105      C      -1.8421667481    -2.6665279141    -0.4147283204
  106      C      -1.5544979325    -3.4000899077    -1.6799553569
  107      C      -0.3278109655    -3.1504656346    -2.3398521726
  108      H       0.3629444673    -2.3903272716    -1.9858230764
  109      C       0.0125433890    -3.7432886006    -3.5403894875
  110      H       0.8800685729    -3.4471797360    -4.1231112011
  111      C      -0.8500711545    -4.6425917521    -4.1505271695
  112      H      -0.5881554743    -5.1414315048    -5.0799011941
  113      C      -2.0768051291    -4.9123195074    -3.5353388295
  114      H      -2.6947282780    -5.6079996222    -4.0945473415
  115      C      -2.4120941699    -4.3751413022    -2.2673329798
  116      H      -3.3445213534    -4.7104800876    -1.8219966503
  117      C      -4.9020333999     0.9418324152    -3.2098307884
  118      C      -6.3322074430    -0.9631078907    -2.9397888706
  119      C      -9.2000634384     0.9573154605     0.0003385317
  120      C      -3.1037046535     2.4664061362     1.3811158121
  121      C      -7.6634896465    -0.5018520069     2.7184610977
  122      C      -5.0613269156    -0.4372928497    -3.0897929633
  123      C      -5.0516335165     1.9418209092     3.2726264476
  124      C      -8.1589482060     1.9766213465    -1.9604650239
  125      C      -5.5206658615    -2.9538159958     0.3702550115
  126      C      -2.9946187165     1.2990990700     2.1553718884
  127      C      -3.2260566825    -2.4740832782     0.0238964756
  128      C      -5.0800460697    -2.5796609990     1.6360433972
  129      C      -4.1469888349    -0.3842601156     3.0638249484
  130      C      -6.3675141804     1.4464470364     3.4241546778
  131      C      -4.9294013357    -2.3593876057    -1.8395916233
  132      C      -8.4003583339     1.7137966487     2.0694876220
  133      C      -2.4340349516    -1.3091090280    -0.5791272174
  134      C      -2.2087559619    -0.0384293857     0.2243518572
  135      C      -8.6027203597     0.2930439256     2.0970794728
  136      C      -5.8026286168     3.9388628251    -0.1654955609
  137      C      -7.9339452460     3.1171040096     0.1440296810
  138      C      -7.6843238398     3.0557566287    -1.2492282464
  139      C      -7.2572589798     1.3453644663    -2.9155395187
  140      C      -2.4410436382     1.1088831984    -0.5921836715
  141      C      -4.5108667213    -2.8839237092    -0.6227680319
  142      C      -7.4653793350    -0.0812017862    -2.8375289757
  143      C      -4.0178202237     1.0319614026     3.1170798183
  144      C      -6.2667815930    -2.0989690837    -2.1405737505
  145      C      -5.9267062131    -1.9652772468     2.5281012466
  146      C      -3.6310993705     3.1986170820    -0.7382406806
  147      C      -8.8868979147     0.9093281289    -1.3746805848
  148      C      -3.7016501515    -2.1996385119     1.4823013997
  149      C      -5.5475294469     2.8921455548    -2.3216041781
  150      C      -5.4854328056    -0.8065822641     3.2080495659
  151      C      -6.9213607994    -2.8249488192     0.0708523700
  152      C      -6.5128374100     3.2729421357     2.0691525334
  153      C      -5.1636458963     3.1391541085     2.4696847084
  154      C      -7.7604969234    -2.2331846914     0.9374201875
  155      C      -2.8136310491     2.3147811247    -0.0019652267
  156      C      -2.6251262737     0.0610426160     1.5990540374
  157      C      -4.4519951493     3.7693259953     0.2055927033
  158      C      -3.0554343089    -0.6996477596    -1.7803107176
  159      C      -8.3327892191    -1.4452203734    -1.0491365728
  160      C      -3.3324310786    -1.0234088385     2.1594734838
  161      C      -7.2714580068    -1.7646967055     2.1672937359
  162      C      -4.1811907768     2.7039194812    -1.9664864738
  163      C      -9.1254360605    -0.1367393326     0.8871011064
  164      C      -5.9758191400     1.8387337500    -3.1483069713
  165      C      -8.7000823071     2.0671665410     0.7319364046
  166      C      -7.2757178920    -2.4110229465    -1.1938003186
  167      C      -8.6367373242    -1.3412091141     0.2946198066
  168      C      -4.1811917093    -1.2517950065    -2.3847374653
  169      C      -2.8895807062     0.7063439067    -1.8587773780
  170      C      -6.8337558280     3.6857342589     0.8000760850
  171      C      -8.4252996520    -0.3415133674    -1.8805003107
  172      C      -6.5487352007     0.0295123444     3.4098361419
  173      C      -4.1591223466     3.3186158128     1.4912119521
  174      C      -7.2689690569     2.2816895295     2.7067983624
  175      C      -3.8146276375     1.5134253249    -2.5573622040
  176      C      -6.3362835485     3.5018449019    -1.3991169569
 ----------------------------------------------------------------

    9   -5804.2887690046      9.31E-06 Convergence criterion met
 Total energy in the final basis set = -5804.2887690046

                    Orbital Energies (a.u.)
 --------------------------------------------------------------

 Alpha MOs
 -- Occupied --
-19.193 -19.181 -19.150 -19.127 -10.319 -10.315 -10.246 -10.244
-10.243 -10.242 -10.242 -10.236 -10.236 -10.236 -10.230 -10.228
-10.226 -10.226 -10.226 -10.225 -10.224 -10.223 -10.222 -10.222
-10.221 -10.221 -10.220 -10.220 -10.219 -10.219 -10.218 -10.218
-10.217 -10.217 -10.217 -10.217 -10.217 -10.216 -10.216 -10.216
-10.216 -10.216 -10.215 -10.215 -10.215 -10.215 -10.215 -10.215
-10.215 -10.215 -10.215 -10.214 -10.214 -10.214 -10.214 -10.214
-10.214 -10.214 -10.214 -10.214 -10.214 -10.213 -10.213 -10.213
-10.213 -10.213 -10.213 -10.213 -10.212 -10.212 -10.212 -10.212
-10.212 -10.212 -10.212 -10.212 -10.212 -10.212 -10.212 -10.212
-10.212 -10.211 -10.211 -10.211 -10.211 -10.211 -10.211 -10.211
-10.211 -10.211 -10.211 -10.211 -10.211 -10.210 -10.210 -10.210
-10.210 -10.210 -10.210 -10.210 -10.210 -10.210 -10.209 -10.209
-10.209 -10.209 -10.209 -10.208 -10.208 -10.208 -10.208 -10.208
-10.208 -10.207 -10.207 -10.207 -10.207 -10.207 -10.207 -10.206
-10.206 -10.206 -10.206 -10.206 -10.205 -10.205 -10.205 -10.205
-10.205 -10.204 -10.204 -10.204 -10.203 -10.203 -10.201 -10.200
-10.200 -10.197 -10.197 -10.195 -10.195 -10.192 -10.191 -10.191
-10.190 -10.190 -10.190 -10.185  -1.093  -1.089  -1.008  -0.991
 -0.983  -0.978  -0.965  -0.963  -0.961  -0.961  -0.959  -0.957
 -0.933  -0.932  -0.927  -0.926  -0.925  -0.924  -0.920  -0.919
 -0.917  -0.915  -0.896  -0.892  -0.892  -0.888  -0.884  -0.878
 -0.873  -0.871  -0.858  -0.850  -0.842  -0.840  -0.839  -0.838
 -0.837  -0.832  -0.819  -0.818  -0.804  -0.802  -0.800  -0.796
 -0.795  -0.793  -0.791  -0.790  -0.788  -0.787  -0.784  -0.782
 -0.771  -0.768  -0.768  -0.767  -0.766  -0.765  -0.762  -0.760
 -0.759  -0.746  -0.741  -0.733  -0.732  -0.724  -0.716  -0.715
 -0.714  -0.711  -0.710  -0.710  -0.709  -0.708  -0.708  -0.707
 -0.707  -0.705  -0.704  -0.701  -0.700  -0.697  -0.672  -0.670
 -0.660  -0.657  -0.656  -0.654  -0.647  -0.642  -0.630  -0.628
 -0.626  -0.625  -0.624  -0.622  -0.621  -0.617  -0.616  -0.615
 -0.615  -0.614  -0.612  -0.612  -0.611  -0.610  -0.609  -0.606
 -0.605  -0.604  -0.601  -0.598  -0.566  -0.562  -0.561  -0.560
 -0.558  -0.557  -0.556  -0.555  -0.553  -0.552  -0.551  -0.550
 -0.536  -0.532  -0.530  -0.530  -0.529  -0.525  -0.524  -0.523
 -0.522  -0.521  -0.518  -0.518  -0.517  -0.516  -0.511  -0.509
 -0.505  -0.503  -0.499  -0.496  -0.489  -0.486  -0.486  -0.484
 -0.483  -0.481  -0.481  -0.478  -0.477  -0.476  -0.474  -0.472
 -0.471  -0.471  -0.468  -0.467  -0.466  -0.465  -0.464  -0.464
 -0.463  -0.463  -0.461  -0.460  -0.459  -0.459  -0.457  -0.455
 -0.454  -0.454  -0.450  -0.449  -0.447  -0.444  -0.444  -0.442
 -0.440  -0.440  -0.438  -0.437  -0.435  -0.434  -0.434  -0.432
 -0.431  -0.429  -0.429  -0.426  -0.425  -0.424  -0.423  -0.422
 -0.421  -0.421  -0.420  -0.420  -0.419  -0.417  -0.416  -0.416
 -0.415  -0.414  -0.414  -0.413  -0.412  -0.411  -0.411  -0.411
 -0.409  -0.407  -0.407  -0.404  -0.399  -0.397  -0.396  -0.395
 -0.392  -0.392  -0.390  -0.390  -0.388  -0.387  -0.387  -0.385
 -0.380  -0.379  -0.375  -0.372  -0.371  -0.367  -0.366  -0.364
 -0.363  -0.362  -0.361  -0.360  -0.359  -0.359  -0.358  -0.356
 -0.355  -0.355  -0.352  -0.352  -0.351  -0.350  -0.349  -0.349
 -0.348  -0.347  -0.347  -0.344  -0.344  -0.343  -0.342  -0.341
 -0.340  -0.338  -0.337  -0.337  -0.336  -0.335  -0.331  -0.331
 -0.330  -0.329  -0.329  -0.328  -0.326  -0.324  -0.324  -0.320
 -0.318  -0.307  -0.296  -0.293  -0.284  -0.280  -0.275  -0.272
 -0.269  -0.268  -0.267  -0.266  -0.265  -0.264  -0.263  -0.261
 -0.261  -0.259  -0.258  -0.257  -0.257  -0.254  -0.252  -0.251
 -0.250  -0.249  -0.242  -0.239  -0.219  -0.216  -0.211  -0.210
 -0.208  -0.207  -0.206  -0.202  -0.200  -0.197

          Ground-State Mulliken Net Atomic Charges

     Atom                 Charge (a.u.)
  ----------------------------------------
      1 O                    -0.466740
      2 C                    -0.089142
      3 H                     0.122606
      4 H                     0.157807
      5 H                     0.136032
      6 O                    -0.504340
      7 C                     0.597484
      8 C                    -0.276933
      9 H                     0.134442
     10 H                     0.122284
     11 C                    -0.164055
     12 H                     0.100086
     13 H                     0.127264
     14 C                    -0.194040
     15 H                     0.141107
     16 H                     0.112664
     17 C                    -0.000554
     18 C                     0.076698
     19 C                    -0.103654
     20 H                     0.098675
     21 C                    -0.094100
     22 H                     0.092497
     23 C                    -0.082199
     24 H                     0.082765
     25 C                    -0.076648
     26 H                     0.092078
     27 C                    -0.098574
     28 H                     0.086767
     29 C                     0.001010
     30 C                     0.006338
     31 C                    -0.016353
     32 C                    -0.001630
     33 C                    -0.013617
     34 C                    -0.008538
     35 C                    -0.005551
     36 C                    -0.007486
     37 C                    -0.016627
     38 C                    -0.002545
     39 C                    -0.065651
     40 C                     0.000289
     41 C                    -0.020600
     42 C                     0.000665
     43 C                     0.039288
     44 C                     0.026148
     45 C                    -0.110593
     46 C                     0.054292
     47 C                     0.009581
     48 C                    -0.008334
     49 C                    -0.012649
     50 C                     0.023165
     51 C                     0.016504
     52 C                    -0.005129
     53 C                     0.023991
     54 C                    -0.013591
     55 C                    -0.024792
     56 C                    -0.006219
     57 C                    -0.001026
     58 C                    -0.007485
     59 C                     0.006132
     60 C                     0.029750
     61 C                    -0.032208
     62 C                     0.023313
     63 C                    -0.005611
     64 C                     0.036149
     65 C                    -0.000429
     66 C                     0.017516
     67 C                    -0.022444
     68 C                     0.022966
     69 C                    -0.009780
     70 C                     0.029119
     71 C                     0.023591
     72 C                    -0.007476
     73 C                    -0.025994
     74 C                     0.029136
     75 C                    -0.038464
     76 C                     0.003054
     77 C                     0.023135
     78 C                    -0.010217
     79 C                     0.001253
     80 C                    -0.015885
     81 C                    -0.013181
     82 C                    -0.041079
     83 C                    -0.014852
     84 C                     0.017118
     85 C                     0.015803
     86 C                    -0.006890
     87 C                    -0.007082
     88 C                     0.007529
     89 O                    -0.505378
     90 C                    -0.088168
     91 H                     0.123392
     92 H                     0.131278
     93 H                     0.129103
     94 O                    -0.429311
     95 C                     0.592003
     96 C                    -0.262560
     97 H                     0.139414
     98 H                     0.145760
     99 C                    -0.187258
    100 H                     0.119714
    101 H                     0.098687
    102 C                    -0.205014
    103 H                     0.107338
    104 H                     0.121226
    105 C                     0.038021
    106 C                     0.078412
    107 C                    -0.100215
    108 H                     0.092961
    109 C                    -0.089067
    110 H                     0.091433
    111 C                    -0.078829
    112 H                     0.087975
    113 C                    -0.091208
    114 H                     0.087174
    115 C                    -0.125872
    116 H                     0.101370
    117 C                     0.003709
    118 C                    -0.004567
    119 C                     0.002389
    120 C                     0.002119
    121 C                     0.014141
    122 C                     0.011843
    123 C                     0.008420
    124 C                     0.019914
    125 C                     0.008166
    126 C                    -0.023660
    127 C                    -0.081028
    128 C                     0.007899
    129 C                    -0.017071
    130 C                    -0.025905
    131 C                    -0.002948
    132 C                    -0.025952
    133 C                    -0.074685
    134 C                     0.002989
    135 C                    -0.005592
    136 C                     0.000233
    137 C                    -0.008120
    138 C                    -0.016118
    139 C                    -0.017838
    140 C                     0.022038
    141 C                     0.012563
    142 C                    -0.010465
    143 C                     0.004840
    144 C                     0.011400
    145 C                    -0.017467
    146 C                    -0.026593
    147 C                    -0.015170
    148 C                     0.011520
    149 C                    -0.003538
    150 C                     0.001991
    151 C                     0.019055
    152 C                     0.013531
    153 C                    -0.034684
    154 C                    -0.011398
    155 C                    -0.004104
    156 C                    -0.011898
    157 C                    -0.004653
    158 C                     0.041491
    159 C                     0.009251
    160 C                     0.041209
    161 C                    -0.012886
    162 C                     0.021531
    163 C                    -0.005226
    164 C                    -0.013086
    165 C                     0.009769
    166 C                    -0.038112
    167 C                     0.011026
    168 C                     0.002877
    169 C                    -0.003099
    170 C                     0.003770
    171 C                     0.009452
    172 C                     0.004865
    173 C                     0.038502
    174 C                     0.013488
    175 C                    -0.013744
    176 C                     0.004137
  ----------------------------------------
  Sum of atomic charges =     0.000000

                    Cartesian Multipole Moments
 -----------------------------------------------------------------
    Charge (ESU x 10^10)
                 0.0000
    Dipole Moment (Debye)
         X       4.5684      Y      -5.1389      Z       0.1592
       Tot       6.8778
    Quadrupole Moments (Debye-Ang)
        XX    -788.8536     XY      -8.7207     YY    -780.3574
        XZ       0.4259     YZ      -2.2636     ZZ    -799.3566

 Total job time:  879.91s(wall), 8436.51s(cpu)
        *  Thank you very much for using Q-Chem.  Have a nice day.  *
