 Q-Chem 4.4, Q-Chem, Inc., Pleasanton, CA (2016)
 Q-Chem 4.4.2 for Intel X86 Linux

User input:
--------------------------------------------------------------
$comment
SP
$end

$rem
MEM_STATIC 5000
MEM_TOTAL 20000
JOBTYPE SP
EXCHANGE B3LYP
BASIS 6-31g(d,p)
$end

$molecule
0 1
O          -2.843000    -29.223000     -7.459000
C          -2.117000    -30.428000     -7.333000
H          -2.007000    -30.866000     -8.333000
H          -2.750000    -31.037000     -6.676000
H          -1.100000    -30.225000     -6.976000
O          -4.975000    -30.164000     -7.314000
C          -4.210000    -29.180000     -7.409000
C          -4.614000    -27.647000     -7.496000
H          -3.684000    -27.255000     -7.927000
H          -4.730000    -27.219000     -6.493000
C          -5.916000    -27.373000     -8.352000
H          -5.661000    -27.768000     -9.343000
H          -6.669000    -27.981000     -7.837000
C          -6.209000    -25.884000     -8.330000
H          -6.759000    -25.635000     -7.414000
H          -5.322000    -25.238000     -8.315000
C          -7.059000    -25.371000     -9.566000
C          -8.175000    -26.336000     -9.855000
C          -9.350000    -26.133000     -9.148000
H          -9.338000    -25.410000     -8.338000
C         -10.508000    -26.909000     -9.388000
H         -11.359000    -26.752000     -8.733000
C         -10.462000    -27.946000    -10.327000
H         -11.322000    -28.563000    -10.569000
C          -9.236000    -28.201000    -10.994000
H          -9.228000    -29.028000    -11.699000
C          -8.094000    -27.382000    -10.771000
H          -7.146000    -27.553000    -11.272000
C          -6.525000    -23.907000    -14.858000
C          -8.683000    -22.976000    -14.157000
C          -7.273000    -18.708000    -14.152000
C          -2.859000    -22.495000    -11.726000
C          -6.739000    -18.518000    -10.724000
C          -7.738000    -24.021000    -14.093000
C          -3.399000    -19.898000    -10.842000
C          -6.804000    -20.435000    -15.782000
C          -8.613000    -21.988000    -10.246000
C          -3.391000    -22.301000    -10.429000
C          -7.209000    -23.874000     -9.927000
C          -7.487000    -21.623000     -9.454000
C          -4.811000    -21.049000     -9.195000
C          -4.368000    -18.919000    -10.917000
C          -8.666000    -23.691000    -11.964000
C          -5.576000    -18.050000    -12.772000
C          -6.271000    -24.710000    -10.708000
C          -4.875000    -24.245000    -10.761000
C          -6.797000    -18.059000    -12.077000
C          -3.466000    -20.838000    -14.825000
C          -5.003000    -19.156000    -14.847000
C          -5.425000    -20.158000    -15.702000
C          -7.258000    -21.776000    -15.730000
C          -4.346000    -24.365000    -12.100000
C          -8.365000    -23.299000    -10.646000
C          -8.447000    -21.849000    -14.950000
C          -3.654000    -20.999000    -10.017000
C          -9.254000    -22.784000    -12.893000
C          -7.077000    -20.283000     -9.381000
C          -3.317000    -23.057000    -13.895000
C          -7.705000    -19.700000    -15.048000
C          -6.608000    -22.674000     -9.287000
C          -4.934000    -22.574000    -15.679000
C          -5.772000    -20.013000     -9.311000
C          -9.241000    -21.097000    -11.112000
C          -3.466000    -19.121000    -12.981000
C          -2.849000    -20.081000    -12.108000
C          -8.727000    -19.783000    -11.184000
C          -3.357000    -23.469000    -12.569000
C          -4.332000    -23.205000     -9.944000
C          -2.926000    -21.722000    -13.935000
C          -6.568000    -24.968000    -12.202000
C          -9.379000    -20.272000    -13.259000
C          -5.241000    -22.414000     -9.200000
C          -7.699000    -19.375000    -10.299000
C          -4.315000    -23.481000    -14.775000
C          -7.802000    -18.486000    -12.904000
C          -6.315000    -22.835000    -15.721000
C          -5.919000    -18.417000    -14.075000
C          -9.598000    -21.438000    -12.440000
C          -8.830000    -19.289000    -12.439000
C          -7.735000    -24.479000    -12.743000
C          -5.377000    -24.739000    -12.955000
C          -3.810000    -19.579000    -14.288000
C          -8.740000    -20.543000    -14.561000
C          -5.527000    -18.892000    -10.146000
C          -2.580000    -21.362000    -12.593000
C          -4.388000    -18.405000    -12.219000
C          -5.325000    -24.311000    -14.298000
C          -4.458000    -21.252000    -15.748000
O           6.906000    -29.323000     -8.868000
C           7.901000    -30.147000     -8.261000
H           8.310000    -30.892000     -8.955000
H           7.591000    -30.593000     -7.308000
H           8.690000    -29.424000     -8.019000
O           6.582000    -28.054000     -6.956000
C           6.313000    -28.331000     -8.104000
C           5.368000    -27.531000     -9.061000
H           4.717000    -26.884000     -8.460000
H           4.744000    -28.265000     -9.586000
C           6.165000    -26.753000    -10.142000
H           6.753000    -25.999000     -9.604000
H           6.852000    -27.410000    -10.690000
C           5.097000    -26.081000    -11.091000
H           4.749000    -26.865000    -11.775000
H           4.258000    -25.791000    -10.445000
C           5.801000    -24.957000    -11.871000
C           6.930000    -25.516000    -12.681000
C           8.344000    -25.338000    -12.440000
H           8.696000    -24.871000    -11.525000
C           9.350000    -25.691000    -13.356000
H          10.308000    -25.279000    -13.053000
C           8.990000    -26.398000    -14.481000
H           9.741000    -26.618000    -15.233000
C           7.662000    -26.788000    -14.741000
H           7.380000    -27.247000    -15.684000
C           6.713000    -26.292000    -13.849000
H           5.701000    -26.589000    -14.108000
C           7.884000    -19.936000    -11.339000
C           7.374000    -20.132000    -13.749000
C           3.799000    -17.229000    -13.633000
C           3.872000    -21.023000     -8.613000
C           1.394000    -19.798000    -13.474000
C           7.843000    -20.702000    -12.554000
C           1.581000    -20.218000     -9.919000
C           5.959000    -17.166000    -12.486000
C           4.250000    -22.516000    -14.319000
C           3.113000    -21.973000     -9.265000
C           4.977000    -23.768000    -12.494000
C           3.149000    -22.826000    -13.548000
C           1.883000    -22.334000    -11.125000
C           1.014000    -19.637000    -11.089000
C           6.576000    -22.221000    -13.733000
C           1.986000    -17.729000    -12.366000
C           5.820000    -23.551000    -11.217000
C           5.136000    -23.080000    -10.009000
C           1.865000    -18.464000    -13.557000
C           4.699000    -17.719000     -9.326000
C           3.997000    -16.904000    -11.233000
C           5.372000    -16.876000    -11.295000
C           7.022000    -18.029000    -12.547000
C           5.892000    -22.095000     -9.295000
C           5.386000    -22.960000    -13.661000
C           6.974000    -18.769000    -13.757000
C           1.970000    -21.562000     -9.934000
C           6.592000    -21.025000    -14.467000
C           2.125000    -21.860000    -13.445000
C           5.724000    -19.774000     -8.585000
C           5.201000    -17.333000    -13.687000
C           3.564000    -23.506000    -12.410000
C           6.826000    -18.356000    -10.118000
C           1.394000    -21.683000    -12.269000
C           4.256000    -21.324000    -15.034000
C           2.347000    -18.152000     -9.967000
C           2.291000    -19.280000     -9.198000
C           3.169000    -20.463000    -15.018000
C           5.276000    -21.089000     -8.591000
C           3.704000    -23.015000     -9.984000
C           4.632000    -18.927000     -8.545000
C           6.975000    -22.612000    -11.294000
C           5.028000    -19.258000    -15.151000
C           2.947000    -23.209000    -11.159000
C           2.048000    -20.748000    -14.252000
C           6.892000    -19.491000     -9.360000
C           2.971000    -18.125000    -14.356000
C           7.456000    -18.611000    -11.332000
C           3.152000    -16.980000    -12.396000
C           5.450000    -20.587000    -15.159000
C           3.629000    -19.124000    -15.096000
C           7.378000    -22.027000    -12.527000
C           6.944000    -21.774000    -10.158000
C           3.570000    -17.387000    -10.008000
C           5.818000    -18.335000    -14.442000
C           0.968000    -20.366000    -12.275000
C           3.458000    -19.682000     -8.597000
C           1.576000    -18.331000    -11.102000
C           7.505000    -20.472000    -10.170000
C           5.820000    -17.398000    -10.052000
$end

--------------------------------------------------------------

             Standard Nuclear Orientation (Angstroms)
    I     Atom           X                Y                Z
 ----------------------------------------------------------------
    1      O       2.7406764085    -7.8649685772    -1.3585071938
    2      C       2.0994952842    -9.0728881735    -1.0052452306
    3      H       2.0223084448    -9.1107519842     0.0886252022
    4      H       2.7716298938    -9.8421449978    -1.4048675584
    5      H       1.0700881227    -9.0831009112    -1.3836148857
    6      O       4.9323348989    -8.6548216739    -1.2013602972
    7      C       4.1013107915    -7.7573575936    -1.4591647920
    8      C       4.3984856496    -6.2809764499    -1.9620164820
    9      H       3.4445670112    -5.8158724713    -1.6826555677
   10      H       4.4823431459    -6.2531071031    -3.0551039533
   11      C       5.6803329250    -5.6246473642    -1.3069472539
   12      H       5.4554988886    -5.6352790204    -0.2334168054
   13      H       6.4724298914    -6.3322295643    -1.5786232114
   14      C       5.8695727627    -4.2367997648    -1.8913455127
   15      H       6.3989681425    -4.3144884756    -2.8490834706
   16      H       4.9399764836    -3.7009309173    -2.1215743904
   17      C       6.6848247605    -3.2457404401    -0.9604692616
   18      C       7.8655562040    -3.9596692917    -0.3634928356
   19      C       9.0221049007    -3.9621142218    -1.1277389573
   20      H       8.9582955034    -3.5971904337    -2.1483916845
   21      C      10.2315505350    -4.5168739547    -0.6479234758
   22      H      11.0681754649    -4.5629237297    -1.3377155784
   23      C      10.2595114325    -5.1276773360     0.6111807366
   24      H      11.1606767458    -5.5534578466     1.0418372528
   25      C       9.0555924202    -5.1915409452     1.3591716800
   26      H       9.1064083061    -5.6932481288     2.3218375866
   27      C       7.8591719328    -4.5896239588     0.8786220377
   28      H       6.9264018306    -4.6203112124     1.4335492662
   29      C       6.0627276546     0.0557114787     3.4152736946
   30      C       8.1495697865     0.7912481422     2.3573503832
   31      C       6.4476828513     4.6486032937     0.7990368415
   32      C       2.3007953354    -0.0424316110     0.0864665269
   33      C       5.8941105445     3.5074325192    -2.4357316146
   34      C       7.2789846255    -0.2593068742     2.7145081004
   35      C       2.6578536464     2.0634516638    -1.7177590675
   36      C       6.1029458776     3.6313225663     2.9682962406
   37      C       8.0025934085     0.2369222604    -1.6361550645
   38      C       2.8151819491    -0.3147552090    -1.2035393915
   39      C       6.7317154144    -1.7161838820    -1.1886972227
   40      C       6.8522623801     0.2068557912    -2.4753210388
   41      C       4.1423888468     0.4715200061    -2.8548882755
   42      C       3.5569718196     3.0585843639    -2.0407519771
   43      C       8.1771421181    -0.6921675999     0.5911452698
   44      C       4.7061294096     4.6333572161    -0.6787764644
   45      C       5.8555552360    -2.2566484935    -0.1261802367
   46      C       4.4308540618    -1.8950017743    -0.2115512779
   47      C       5.9232607838     4.4421867730    -1.3540483206
   48      C       2.7986785269     2.6889447203     2.3246789084
   49      C       4.2156822298     4.3505722695     1.6742395232
   50      C       4.7079105503     3.7703359599     2.8292936802
   51      C       6.6485095657     2.3999895473     3.4079327478
   52      C       3.9144354345    -1.5383068569     1.0896952541
   53      C       7.8467817819    -0.8419118635    -0.7689384422
   54      C       7.8379540119     2.1157677821     2.6786249269
   55      C       2.9865532295     0.7522105832    -2.0789438023
   56      C       8.7030754363     0.5318956534     1.0976008913
   57      C       6.3503812450     1.3932604144    -3.0317277213
   58      C       2.8014533607     0.2785177097     2.2947468703
   59      C       6.9492875971     4.0935982496     1.9880978491
   60      C       6.0477023800    -0.8836256346    -2.2132819841
   61      C       4.3851735960     1.4955047029     3.7235249759
   62      C       5.0296751872     1.5342259293    -3.1609145340
   63      C       8.5693959888     1.4251340911    -1.1832660269
   64      C       2.6757508473     3.5871787585    -0.0261697465
   65      C       2.1246795163     2.3332085513    -0.4601018930
   66      C       7.9658890158     2.6351759413    -1.5925996983
   67      C       2.8668773793    -0.5964441521     1.2178153784
   68      C       3.8153725758    -1.2730469183    -1.3421673478
   69      C       2.3191266703     1.5037967228     1.8444599575
   70      C       6.1730509291    -1.9173100010     1.3472018836
   71      C       8.6548202946     3.0007574154     0.4958384451
   72      C       4.6657985796    -0.7622000622    -2.3527657358
   73      C       6.9101391049     2.6162839416    -2.5367968271
   74      C       3.8283708452     0.2788366059     3.2411190901
   75      C       6.9572498311     4.4203349224    -0.4558990309
   76      C       5.7810118031     1.3571963273     3.8212618322
   77      C       5.0766258027     4.8032743364     0.6568910073
   78      C       8.9521163641     1.6293489663     0.1654872489
   79      C       8.0372896725     3.5684765325    -0.6161152117
   80      C       7.3046400473    -1.1885309727     1.6336948075
   81      C       4.9707585896    -1.4989995299     1.9932982233
   82      C       3.0535491543     3.6744687566     1.3471466393
   83      C       8.0390283489     3.1969426106     1.8222160870
   84      C       4.7095905231     2.8683460159    -2.7982019723
   85      C       1.9460340236     1.3126155518     0.4753245965
   86      C       3.5442936427     4.0227255982    -1.0258278695
   87      C       4.8922947115    -0.6036318725     3.0803571812
   88      C       3.8190153070     2.7142305354     3.3073601806
   89      O      -6.9748561288    -8.0472926155     0.2581150445
   90      C      -7.9118311069    -9.0998084478     0.0306544697
   91      H      -8.2667509458    -9.5551591744     0.9637298278
   92      H      -7.5738637242    -9.8495130469    -0.6952560359
   93      H      -8.7494997056    -8.5714681180    -0.4415550332
   94      O      -6.7437214448    -7.5684615393    -1.9976284157
   95      C      -6.4536222815    -7.3779851262    -0.8372167596
   96      C      -5.5640800013    -6.2198291850    -0.2748437984
   97      H      -4.9607518376    -5.8050099939    -1.0918696032
   98      H      -4.8896182982    -6.6628621735     0.4685135733
   99      C      -6.4105590976    -5.1458987269     0.4594589393
  100      H      -7.0505199599    -4.6869498190    -0.3044258652
  101      H      -7.0492283166    -5.5920869950     1.2320776409
  102      C      -5.3894748465    -4.1013679087     1.0587512903
  103      H      -4.9865346881    -4.5486160743     1.9759341004
  104      H      -4.5740017457    -4.0217650784     0.3279955094
  105      C      -6.1677899167    -2.8141190856     1.3821830742
  106      C      -7.2535894738    -3.0995573956     2.3735388594
  107      C      -8.6770541682    -3.1146127967     2.1231739283
  108      H      -9.0625743685    -3.0473529662     1.1102236381
  109      C      -9.6541612786    -3.1620081994     3.1324887308
  110      H     -10.6390469787    -2.9549186804     2.7245290651
  111      C      -9.2435849804    -3.3721895935     4.4295334043
  112      H      -9.9758733085    -3.3417843345     5.2299922257
  113      C      -7.8912052923    -3.5515965223     4.7790564121
  114      H      -7.5760076793    -3.6054062602     5.8169431963
  115      C      -6.9808001487    -3.3665314266     3.7402136016
  116      H      -5.9500985244    -3.4802808528     4.0629351996
  117      C      -8.5943399432     1.4999958605    -0.9270638163
  118      C      -8.0665842919     2.2530473645     1.3666239141
  119      C      -4.7012465801     5.1216420157     0.0754396464
  120      C      -4.5228942475    -0.2720013498    -3.1613746348
  121      C      -2.1246503946     2.8377055321     0.8196528118
  122      C      -8.4977146175     1.2487231955     0.4843849409
  123      C      -2.2901411305     1.1066309975    -2.3148946471
  124      C      -6.8630039512     4.6138397942    -0.9512638027
  125      C      -4.7838712670     0.4586549548     2.6976697719
  126      C      -3.6985279844    -0.8587799589    -2.2234001531
  127      C      -5.4266192967    -1.4287645279     1.4930201685
  128      C      -3.6658000359    -0.0470273583     2.0676347566
  129      C      -2.4423213647    -0.4186640827    -0.3982798984
  130      C      -1.7620630304     2.1179783514    -1.4626857233
  131      C      -7.1260185374     0.3649641816     2.1092267391
  132      C      -2.8608542757     4.2996019213    -0.9635330429
  133      C      -6.2854811783    -1.7593757401     0.2514407330
  134      C      -5.6384216289    -1.7324988256    -1.0636838128
  135      C      -2.6866193434     4.0730899486     0.4118510906
  136      C      -5.5748758882     2.9991851311    -3.7103624621
  137      C      -4.9266521413     4.5114294985    -2.2658552980
  138      C      -6.3001520830     4.4734886587    -2.1803485570
  139      C      -7.8636156462     3.7709784080    -0.5428278596
  140      C      -6.4623557889    -1.1363577139    -2.0722993366
  141      C      -5.8879109121    -0.2703246071     2.2850182719
  142      C      -7.7618170145     3.5423309826     0.8540835168
  143      C      -2.5851974733    -0.1557693954    -1.7884262220
  144      C      -7.2230679885     1.7451623910     2.3438803285
  145      C      -2.7113147263     0.8729331876     1.5828962832
  146      C      -6.4569205310     0.7557657521    -3.6017450687
  147      C      -6.0925680899     4.9568789087     0.2035551223
  148      C      -4.0353219631    -1.1283623330     1.2778010921
  149      C      -7.6509264418     2.5716643913    -2.6786638064
  150      C      -1.9969572183     0.6427727028     0.4058722809
  151      C      -4.8707107113     1.8286737965     2.9159179892
  152      C      -3.1971205444     2.9874398786    -3.0201338233
  153      C      -3.0649499263     1.6595826681    -3.3137443755
  154      C      -3.8459170202     2.6880483698     2.5492857028
  155      C      -5.9190106840    -0.4301834483    -3.1178623445
  156      C      -4.2144088594    -1.5910618050    -1.1511892501
  157      C      -5.4262242925     1.5935214548    -3.9855466407
  158      C      -7.5024973613    -0.9349716599     0.0046523159
  159      C      -5.7835205674     3.7349302990     2.2748303874
  160      C      -3.4431612276    -1.2827968584    -0.0103738342
  161      C      -2.7096119935     2.2086323082     1.9139959056
  162      C      -7.6399542399     1.2337247401    -2.9560481977
  163      C      -3.8116218162     4.6157654676     1.0571655234
  164      C      -8.2590447365     2.7502822098    -1.4401127116
  165      C      -4.0758057032     4.9299404794    -1.1826753048
  166      C      -6.1125511978     2.4816975672     2.7901318178
  167      C      -4.3972694908     3.9268833424     2.1346733976
  168      C      -7.9422279592     0.0422466064     0.9409238904
  169      C      -7.5320986181    -0.5829600034    -1.3624294517
  170      C      -4.4700174012     3.6330893879    -3.2334535433
  171      C      -6.6370728243     4.2734317700     1.2949453378
  172      C      -1.6630745460     1.8903973644    -0.0920795894
  173      C      -4.2026925729     0.9888320782    -3.6883499230
  174      C      -2.4130341307     3.2954958080    -1.9224011417
  175      C      -8.1817976483     0.5905458951    -1.8216070604
  176      C      -6.7137613224     3.4969337532    -3.1256024454
 ----------------------------------------------------------------

    9   -5804.2711425060      9.02E-06 Convergence criterion met
 Total energy in the final basis set = -5804.2711425060

                    Orbital Energies (a.u.)
 --------------------------------------------------------------

 Alpha MOs
 -- Occupied --
-19.196 -19.193 -19.146 -19.143 -10.327 -10.323 -10.251 -10.248
-10.245 -10.243 -10.243 -10.239 -10.238 -10.238 -10.234 -10.231
-10.225 -10.225 -10.223 -10.223 -10.223 -10.222 -10.222 -10.222
-10.221 -10.221 -10.220 -10.220 -10.220 -10.220 -10.220 -10.220
-10.220 -10.219 -10.219 -10.219 -10.219 -10.219 -10.218 -10.218
-10.218 -10.218 -10.218 -10.218 -10.217 -10.217 -10.217 -10.217
-10.217 -10.216 -10.216 -10.216 -10.216 -10.215 -10.215 -10.215
-10.215 -10.215 -10.214 -10.214 -10.214 -10.214 -10.214 -10.214
-10.214 -10.213 -10.213 -10.213 -10.213 -10.213 -10.213 -10.213
-10.213 -10.213 -10.213 -10.212 -10.212 -10.212 -10.212 -10.212
-10.212 -10.212 -10.212 -10.212 -10.212 -10.212 -10.212 -10.211
-10.211 -10.211 -10.211 -10.211 -10.211 -10.211 -10.210 -10.210
-10.210 -10.209 -10.209 -10.209 -10.209 -10.209 -10.209 -10.209
-10.208 -10.208 -10.208 -10.208 -10.208 -10.208 -10.208 -10.208
-10.207 -10.207 -10.207 -10.207 -10.207 -10.207 -10.207 -10.207
-10.207 -10.207 -10.206 -10.206 -10.206 -10.206 -10.205 -10.205
-10.205 -10.205 -10.205 -10.205 -10.204 -10.204 -10.204 -10.204
-10.203 -10.203 -10.202 -10.202 -10.202 -10.202 -10.201 -10.201
-10.200 -10.199 -10.199 -10.196  -1.094  -1.093  -1.019  -1.005
 -0.986  -0.983  -0.969  -0.965  -0.964  -0.964  -0.963  -0.959
 -0.934  -0.934  -0.931  -0.926  -0.925  -0.925  -0.924  -0.924
 -0.922  -0.920  -0.897  -0.894  -0.893  -0.892  -0.890  -0.884
 -0.874  -0.873  -0.854  -0.853  -0.844  -0.841  -0.840  -0.838
 -0.835  -0.834  -0.821  -0.821  -0.805  -0.804  -0.800  -0.798
 -0.797  -0.795  -0.795  -0.793  -0.792  -0.792  -0.785  -0.782
 -0.774  -0.771  -0.770  -0.768  -0.765  -0.765  -0.764  -0.764
 -0.753  -0.749  -0.746  -0.741  -0.734  -0.729  -0.719  -0.716
 -0.715  -0.715  -0.714  -0.712  -0.712  -0.710  -0.709  -0.708
 -0.707  -0.707  -0.706  -0.704  -0.700  -0.699  -0.674  -0.670
 -0.660  -0.659  -0.657  -0.657  -0.645  -0.645  -0.634  -0.630
 -0.628  -0.626  -0.624  -0.623  -0.621  -0.619  -0.618  -0.617
 -0.615  -0.614  -0.613  -0.613  -0.613  -0.610  -0.609  -0.609
 -0.606  -0.605  -0.603  -0.603  -0.571  -0.566  -0.565  -0.565
 -0.563  -0.562  -0.560  -0.558  -0.557  -0.554  -0.553  -0.552
 -0.537  -0.534  -0.531  -0.530  -0.529  -0.528  -0.527  -0.526
 -0.525  -0.521  -0.521  -0.518  -0.516  -0.515  -0.515  -0.512
 -0.508  -0.506  -0.499  -0.498  -0.492  -0.491  -0.488  -0.486
 -0.485  -0.485  -0.484  -0.482  -0.480  -0.478  -0.478  -0.477
 -0.473  -0.473  -0.471  -0.471  -0.469  -0.468  -0.468  -0.466
 -0.466  -0.466  -0.464  -0.463  -0.463  -0.462  -0.460  -0.459
 -0.459  -0.455  -0.453  -0.452  -0.450  -0.449  -0.446  -0.442
 -0.442  -0.442  -0.441  -0.438  -0.438  -0.437  -0.433  -0.433
 -0.432  -0.431  -0.428  -0.428  -0.426  -0.426  -0.426  -0.424
 -0.423  -0.423  -0.422  -0.420  -0.420  -0.420  -0.419  -0.418
 -0.416  -0.416  -0.416  -0.415  -0.415  -0.414  -0.413  -0.413
 -0.411  -0.411  -0.409  -0.408  -0.400  -0.399  -0.397  -0.396
 -0.395  -0.394  -0.393  -0.390  -0.389  -0.387  -0.385  -0.383
 -0.381  -0.381  -0.375  -0.375  -0.370  -0.368  -0.367  -0.365
 -0.365  -0.364  -0.364  -0.361  -0.361  -0.361  -0.358  -0.357
 -0.357  -0.355  -0.354  -0.354  -0.353  -0.352  -0.352  -0.352
 -0.351  -0.350  -0.349  -0.349  -0.349  -0.347  -0.346  -0.343
 -0.343  -0.342  -0.341  -0.341  -0.339  -0.339  -0.336  -0.334
 -0.334  -0.332  -0.332  -0.330  -0.329  -0.326  -0.325  -0.324
 -0.310  -0.308  -0.300  -0.299  -0.287  -0.284  -0.274  -0.272
 -0.270  -0.270  -0.269  -0.269  -0.267  -0.266  -0.265  -0.264
 -0.263  -0.261  -0.260  -0.258  -0.257  -0.256  -0.255  -0.252
 -0.250  -0.249  -0.245  -0.243  -0.222  -0.214  -0.211  -0.211
 -0.209  -0.208  -0.206  -0.204  -0.202  -0.201

          Ground-State Mulliken Net Atomic Charges

     Atom                 Charge (a.u.)
  ----------------------------------------
      1 O                    -0.454523
      2 C                    -0.082775
      3 H                     0.122922
      4 H                     0.136004
      5 H                     0.126803
      6 O                    -0.483879
      7 C                     0.586113
      8 C                    -0.277878
      9 H                     0.133844
     10 H                     0.132629
     11 C                    -0.174851
     12 H                     0.112071
     13 H                     0.141952
     14 C                    -0.172835
     15 H                     0.110820
     16 H                     0.107531
     17 C                    -0.010896
     18 C                     0.100361
     19 C                    -0.106693
     20 H                     0.087916
     21 C                    -0.090263
     22 H                     0.091829
     23 C                    -0.080001
     24 H                     0.094040
     25 C                    -0.100402
     26 H                     0.092806
     27 C                    -0.102069
     28 H                     0.093192
     29 C                    -0.010167
     30 C                    -0.001335
     31 C                     0.017827
     32 C                    -0.019820
     33 C                    -0.011230
     34 C                     0.006253
     35 C                     0.021803
     36 C                     0.007628
     37 C                     0.015496
     38 C                     0.003111
     39 C                    -0.092370
     40 C                     0.001096
     41 C                    -0.012428
     42 C                     0.014032
     43 C                     0.010378
     44 C                     0.007975
     45 C                    -0.082171
     46 C                     0.038826
     47 C                    -0.022165
     48 C                     0.007330
     49 C                     0.015712
     50 C                    -0.011453
     51 C                    -0.017210
     52 C                    -0.007051
     53 C                     0.038733
     54 C                     0.030530
     55 C                     0.006099
     56 C                    -0.015367
     57 C                    -0.018787
     58 C                     0.002213
     59 C                    -0.007407
     60 C                     0.066807
     61 C                     0.010635
     62 C                     0.004915
     63 C                    -0.014425
     64 C                    -0.024792
     65 C                    -0.022755
     66 C                     0.024088
     67 C                     0.017244
     68 C                    -0.018061
     69 C                     0.009678
     70 C                     0.002167
     71 C                    -0.036545
     72 C                    -0.038167
     73 C                     0.002769
     74 C                    -0.010128
     75 C                     0.018361
     76 C                     0.002448
     77 C                    -0.016675
     78 C                    -0.010037
     79 C                     0.009218
     80 C                     0.006524
     81 C                     0.001682
     82 C                     0.011153
     83 C                    -0.014661
     84 C                    -0.007171
     85 C                    -0.013486
     86 C                     0.015872
     87 C                     0.006380
     88 C                    -0.031843
     89 O                    -0.462936
     90 C                    -0.084925
     91 H                     0.124715
     92 H                     0.129257
     93 H                     0.123080
     94 O                    -0.454845
     95 C                     0.572821
     96 C                    -0.248865
     97 H                     0.125555
     98 H                     0.121741
     99 C                    -0.187385
    100 H                     0.114652
    101 H                     0.135747
    102 C                    -0.191751
    103 H                     0.114688
    104 H                     0.113116
    105 C                     0.025483
    106 C                     0.113816
    107 C                    -0.143468
    108 H                     0.089059
    109 C                    -0.055569
    110 H                     0.099051
    111 C                    -0.106217
    112 H                     0.085616
    113 C                    -0.069252
    114 H                     0.101557
    115 C                    -0.134018
    116 H                     0.078639
    117 C                    -0.000056
    118 C                    -0.005565
    119 C                    -0.016603
    120 C                     0.009611
    121 C                     0.006595
    122 C                     0.008388
    123 C                     0.006603
    124 C                     0.001221
    125 C                    -0.003729
    126 C                    -0.015307
    127 C                    -0.090705
    128 C                     0.003005
    129 C                    -0.025156
    130 C                    -0.030618
    131 C                    -0.016572
    132 C                    -0.011727
    133 C                    -0.072650
    134 C                     0.020351
    135 C                     0.006100
    136 C                    -0.007699
    137 C                     0.005009
    138 C                     0.009723
    139 C                    -0.005573
    140 C                     0.014513
    141 C                     0.065312
    142 C                    -0.007708
    143 C                     0.004069
    144 C                     0.009207
    145 C                    -0.000081
    146 C                    -0.001115
    147 C                     0.007787
    148 C                     0.025573
    149 C                     0.043861
    150 C                    -0.004548
    151 C                     0.009435
    152 C                     0.005174
    153 C                    -0.009349
    154 C                    -0.001757
    155 C                    -0.008064
    156 C                    -0.029431
    157 C                    -0.012623
    158 C                     0.024142
    159 C                    -0.007314
    160 C                     0.007474
    161 C                    -0.008501
    162 C                    -0.030330
    163 C                    -0.000701
    164 C                    -0.004126
    165 C                    -0.002443
    166 C                    -0.001693
    167 C                    -0.000892
    168 C                    -0.016395
    169 C                    -0.002500
    170 C                     0.013700
    171 C                    -0.007158
    172 C                     0.022016
    173 C                     0.023166
    174 C                     0.001098
    175 C                     0.003789
    176 C                    -0.028641
  ----------------------------------------
  Sum of atomic charges =     0.000000

                    Cartesian Multipole Moments
 -----------------------------------------------------------------
    Charge (ESU x 10^10)
                 0.0000
    Dipole Moment (Debye)
         X      -1.9171      Y      -4.1319      Z       2.4208
       Tot       5.1583
    Quadrupole Moments (Debye-Ang)
        XX    -788.0862     XY      17.9993     YY    -802.6061
        XZ     -25.3555     YZ     -17.5552     ZZ    -804.2173

 Total job time:  828.83s(wall), 7932.32s(cpu)
        *  Thank you very much for using Q-Chem.  Have a nice day.  *
