 Q-Chem 4.4, Q-Chem, Inc., Pleasanton, CA (2016)
 Q-Chem 4.4.2 for Intel X86 Linux

User input:
--------------------------------------------------------------
$comment
SP
$end

$rem
MEM_STATIC 5000
MEM_TOTAL 20000
JOBTYPE SP
EXCHANGE B3LYP
BASIS 6-31g(d,p)
$end

$molecule
0 1
O         -10.519000      6.900000     -1.511000
C         -11.064000      7.939000     -2.343000
H         -10.225000      8.344000     -2.923000
H         -11.681000      8.676000     -1.813000
H         -11.662000      7.468000     -3.133000
O         -12.318000      6.782000     -0.120000
C         -11.196000      6.473000     -0.390000
C         -10.469000      5.413000      0.366000
H          -9.973000      5.929000      1.198000
H          -9.841000      5.018000     -0.442000
C         -11.287000      4.332000      1.050000
H         -11.628000      4.739000      2.010000
H         -12.146000      4.064000      0.422000
C         -10.410000      3.225000      1.498000
H          -9.844000      2.748000      0.689000
H          -9.538000      3.573000      2.065000
C         -11.129000      2.184000      2.334000
C         -12.272000      1.517000      1.526000
C         -11.981000      0.551000      0.616000
H         -10.932000      0.325000      0.451000
C         -12.975000     -0.199000      0.052000
H         -12.616000     -0.996000     -0.593000
C         -14.322000     -0.021000      0.470000
H         -15.146000     -0.703000      0.282000
C         -14.684000      1.089000      1.247000
H         -15.728000      1.296000      1.464000
C         -13.587000      1.768000      1.823000
H         -13.938000      2.614000      2.406000
C         -13.650000      1.365000      7.180000
C         -12.772000     -0.801000      6.488000
C          -9.391000     -1.091000      9.544000
C          -9.762000      4.663000      6.964000
C          -6.895000     -0.177000      7.244000
C         -13.287000      0.443000      6.173000
C          -7.388000      3.340000      7.622000
C         -11.657000     -0.220000      9.776000
C          -9.467000     -0.596000      4.251000
C          -8.900000      4.186000      5.961000
C         -10.390000      1.410000      3.385000
C          -8.418000      0.297000      4.147000
C          -7.465000      2.586000      5.357000
C          -6.789000      2.116000      8.014000
C         -11.842000     -0.224000      4.520000
C          -7.677000      0.409000      9.436000
C         -11.361000      2.466000      3.799000
C         -10.834000      3.632000      4.492000
C          -7.418000     -0.565000      8.461000
C         -10.623000      3.210000      9.935000
C          -9.757000      1.123000     10.419000
C         -11.182000      0.941000     10.298000
C         -12.723000     -0.136000      8.849000
C         -11.656000      3.965000      5.614000
C         -10.673000      0.016000      3.804000
C         -12.435000     -1.098000      7.837000
C          -7.706000      3.566000      6.315000
C         -11.845000     -1.163000      5.451000
C          -7.366000      0.249000      5.079000
C         -11.738000      4.271000      8.017000
C         -10.804000     -1.205000      9.365000
C          -8.891000      1.515000      3.682000
C         -12.820000      2.285000      9.071000
C          -6.869000      1.424000      5.723000
C          -9.487000     -1.644000      5.196000
C          -8.288000      2.752000      9.542000
C          -8.206000      3.790000      8.672000
C          -8.435000     -1.690000      6.126000
C         -11.138000      4.545000      6.771000
C          -9.426000      3.610000      4.785000
C         -10.688000      4.223000      8.981000
C         -12.551000      2.138000      4.642000
C         -10.360000     -2.147000      7.181000
C          -8.520000      2.662000      4.388000
C          -7.415000     -0.737000      6.094000
C         -12.798000      3.334000      8.043000
C          -8.469000     -1.488000      8.532000
C         -13.283000      1.118000      8.494000
C          -8.881000      0.054000     10.085000
C         -10.715000     -1.932000      5.823000
C          -8.994000     -2.036000      7.365000
C         -12.708000      0.818000      4.983000
C         -12.698000      3.035000      5.703000
C          -9.496000      2.511000     10.217000
C         -11.230000     -1.720000      8.114000
C          -6.561000      1.144000      7.051000
C          -9.451000      4.415000      8.323000
C          -7.366000      1.755000      9.223000
C         -13.332000      2.719000      6.884000
C         -11.698000      2.251000      9.983000
O           1.430000     -6.390000      1.539000
C           2.445000     -5.906000      0.618000
H           3.228000     -6.664000      0.504000
H           2.795000     -4.948000      1.022000
H           2.019000     -5.791000     -0.386000
O           1.077000     -8.383000      0.446000
C           1.005000     -7.704000      1.406000
C           0.247000     -8.083000      2.734000
H          -0.351000     -8.998000      2.634000
H          -0.442000     -7.279000      3.020000
C           1.212000     -8.527000      3.933000
H           1.777000     -9.425000      3.655000
H           2.037000     -7.807000      4.005000
C           0.471000     -8.872000      5.342000
H          -0.240000     -9.671000      5.096000
H           1.233000     -9.252000      6.034000
C          -0.099000     -7.634000      6.082000
C           0.887000     -6.503000      6.343000
C           1.830000     -6.549000      7.456000
H           1.797000     -7.353000      8.185000
C           2.757000     -5.510000      7.644000
H           3.381000     -5.540000      8.532000
C           2.834000     -4.475000      6.715000
H           3.522000     -3.643000      6.839000
C           1.964000     -4.387000      5.635000
H           2.109000     -3.573000      4.931000
C           0.941000     -5.386000      5.481000
H           0.282000     -5.223000      4.634000
C          -3.052000     -6.138000     10.542000
C          -3.589000     -4.462000      8.845000
C          -7.853000     -5.996000      8.111000
C          -3.795000    -10.771000      8.549000
C          -7.063000     -7.678000      5.164000
C          -2.671000     -5.275000      9.456000
C          -5.965000    -10.597000      6.800000
C          -6.639000     -5.758000     10.173000
C          -3.338000     -5.958000      5.119000
C          -3.579000    -10.729000      7.177000
C          -1.540000     -7.329000      5.844000
C          -3.565000     -7.237000      4.566000
C          -4.261000     -9.880000      5.267000
C          -6.934000     -9.830000      6.230000
C          -2.254000     -5.184000      7.171000
C          -8.282000     -8.053000      7.220000
C          -1.150000     -7.934000      7.145000
C          -1.767000     -9.192000      7.537000
C          -7.902000     -7.144000      6.178000
C          -6.208000     -9.234000     10.560000
C          -7.750000     -7.818000      9.634000
C          -7.010000     -7.089000     10.572000
C          -5.291000     -5.336000     10.349000
C          -2.029000     -9.243000      8.924000
C          -2.198000     -5.920000      5.928000
C          -4.933000     -4.489000      9.311000
C          -4.642000    -10.693000      6.314000
C          -3.364000     -4.393000      7.468000
C          -4.884000     -7.662000      4.364000
C          -3.817000     -9.646000     10.575000
C          -7.064000     -5.154000      8.942000
C          -2.576000     -8.062000      5.013000
C          -4.698000     -7.477000     11.377000
C          -5.199000     -9.001000      4.718000
C          -4.425000     -5.102000      5.367000
C          -7.314000     -9.928000      8.475000
C          -6.185000    -10.685000      8.191000
C          -5.747000     -5.544000      5.108000
C          -3.051000    -10.007000      9.457000
C          -2.542000     -9.997000      6.632000
C          -5.125000    -10.068000     10.306000
C          -1.430000     -7.115000      8.397000
C          -5.754000     -4.388000      7.033000
C          -2.966000     -9.369000      5.438000
C          -6.005000     -6.876000      4.660000
C          -3.573000     -8.297000     11.103000
C          -7.607000     -5.875000      6.699000
C          -4.364000     -6.137000     11.032000
C          -8.170000     -7.268000      8.397000
C          -4.464000     -4.394000      6.556000
C          -6.572000     -5.056000      6.141000
C          -1.808000     -5.765000      8.404000
C          -1.862000     -7.958000      9.463000
C          -7.317000     -9.131000      9.675000
C          -6.008000     -4.352000      8.443000
C          -6.546000     -8.989000      5.175000
C          -5.067000    -10.780000      9.085000
C          -7.779000     -9.396000      7.229000
C          -2.591000     -7.452000     10.537000
C          -5.990000     -7.939000     11.122000
$end

--------------------------------------------------------------

             Standard Nuclear Orientation (Angstroms)
    I     Atom           X                Y                Z
 ----------------------------------------------------------------
    1      O      10.9325954856    -6.9605100966    -0.1858604062
    2      C      12.2035367456    -7.6232426975    -0.3052916138
    3      H      12.0887902792    -8.6030575518     0.1754807854
    4      H      13.0653292652    -7.0267693949     0.0207317784
    5      H      12.3415133870    -7.9148065553    -1.3538610981
    6      O      11.7305844941    -4.8878066068    -0.6881748356
    7      C      10.8418493963    -5.5918501781    -0.3116943241
    8      C       9.4543477252    -5.0767909443    -0.1294359948
    9      H       9.4072986053    -4.7097927555     0.9038087534
   10      H       8.8935429972    -5.9860612744    -0.3784310224
   11      C       9.0202718697    -3.8794818454    -0.9562189610
   12      H       9.3875897889    -2.9802627238    -0.4463047352
   13      H       9.4494584673    -3.9495030461    -1.9636835489
   14      C       7.5539051769    -3.6895062086    -0.8615617917
   15      H       6.9687620110    -4.5531266543    -1.1993978487
   16      H       7.1880042999    -3.6942041951     0.1723973357
   17      C       7.0643823739    -2.4180225803    -1.5273206131
   18      C       7.3927240407    -2.4238953048    -3.0426949104
   19      C       6.6192024034    -3.1417573678    -3.8984257881
   20      H       5.8223145933    -3.7382614716    -3.4650037394
   21      C       6.7516985443    -2.9935954733    -5.2508772016
   22      H       6.0225423757    -3.5524563288    -5.8306364844
   23      C       7.6552512664    -2.0286321038    -5.7736153519
   24      H       7.6732663395    -1.6547903254    -6.7931062944
   25      C       8.6049909506    -1.4198927521    -4.9403663291
   26      H       9.3757205516    -0.7774884128    -5.3564991770
   27      C       8.3521901313    -1.5925301474    -3.5610498043
   28      H       9.1241011664    -1.1004861204    -2.9772244627
   29      C       7.2088050132     3.0936877222    -1.1954928827
   30      C       5.1148061221     2.5273249002    -2.3071159294
   31      C       2.2981101523     3.5777210442     1.1305124325
   32      C       7.3650060061     0.3716055823     3.1179598032
   33      C       1.8271349779     0.2320311455     2.1000244164
   34      C       6.4402289175     2.2495260108    -2.0277090746
   35      C       4.7705728545     0.0687632169     4.1161442169
   36      C       4.3336053194     4.6814613498     0.3651773671
   37      C       3.5878489680    -1.0062206981    -1.2339540804
   38      C       6.6279799125    -0.7992951888     2.8682281039
   39      C       5.8408746903    -1.7155660524    -1.0180252426
   40      C       3.6398892067    -1.7803381813    -0.0908443150
   41      C       4.6087550611    -1.6732796477     2.4901763022
   42      C       3.3958756318     0.3679920608     3.9391960751
   43      C       5.3018878058     0.2836988138    -2.3517861408
   44      C       2.4044345548     2.3573377417     3.0537440140
   45      C       7.1858761915    -1.1141851900    -0.7757753303
   46      C       7.6411611518    -1.0141105658     0.6027146676
   47      C       1.6552049632     1.6009409482     2.1411099636
   48      C       6.2993121016     3.6182956851     3.1696403489
   49      C       4.0817140967     4.0454277109     2.6801525337
   50      C       4.8451604474     4.6614633734     1.6237247170
   51      C       5.2100249357     4.3829930216    -0.7051246058
   52      C       8.2234691990     0.2687969130     0.8487283642
   53      C       4.8780840540    -0.9362841969    -1.8332797920
   54      C       4.4580580055     3.5786668140    -1.6107388104
   55      C       5.3542017080    -0.9412420217     3.4092384387
   56      C       4.4312918286     1.2726848143    -2.4634120123
   57      C       2.7989650424    -1.4782906457     0.9950865466
   58      C       8.1175101769     2.2967046801     2.1720317209
   59      C       3.1157627962     4.1245404049     0.0941540289
   60      C       4.9437667602    -2.2009577005     0.1247027695
   61      C       7.0921752230     4.1219967329     0.8145218115
   62      C       3.2877424370    -1.4075379689     2.3361535536
   63      C       2.6418489781     0.0252268952    -1.4154172486
   64      C       4.5642734792     2.2593115165     4.1490488482
   65      C       5.4519377067     1.2642731259     4.4000843442
   66      C       1.8027858568     0.3251564756    -0.3292610327
   67      C       8.1589325247     0.8895865255     2.0952548479
   68      C       6.7036430173    -1.4332977789     1.6097592683
   69      C       7.2726102872     2.6270282257     3.2725454790
   70      C       7.5344562903     0.2423328860    -1.2979665063
   71      C       2.4734573633     2.2408975324    -1.2819597961
   72      C       5.4790605405    -2.0112262414     1.4010838028
   73      C       1.9071212958    -0.3859305793     0.8678614825
   74      C       8.0512308464     3.0185284503     0.9567858630
   75      C       1.5867571883     2.3540009362     0.9622178750
   76      C       6.5775399251     4.0905290538    -0.4674092691
   77      C       2.7725900364     3.5604775371     2.4105036438
   78      C       3.0798935382     1.2073182526    -2.0437754157
   79      C       1.6818244083     1.7214558120    -0.2741748173
   80      C       6.5630636259     0.8795344103    -2.0285145943
   81      C       8.1411354391     1.0343533750    -0.3199159168
   82      C       5.0181698949     3.4631621515     3.5854073908
   83      C       3.1884754375     3.3661301429    -1.1021856997
   84      C       2.6654434273    -0.3637346986     3.0144357039
   85      C       6.7603556345     1.4338698122     3.8328714299
   86      C       3.2794497473     1.7503733771     3.9591437451
   87      C       8.0991488706     2.4108729213    -0.3219324879
   88      C       6.2218604134     4.3705956688     1.9425886097
   89      O      -7.1727165448    -7.3472868102     0.6820572468
   90      C      -7.2803586485    -8.7186641254     1.1515883288
   91      H      -8.3289824876    -9.0351262035     1.1217756254
   92      H      -6.8278876953    -8.7379093012     2.1507778302
   93      H      -6.7643576956    -9.3955230704     0.4599800689
   94      O      -8.3054265894    -7.7023670675    -1.2882708898
   95      C      -7.8961036218    -6.9877177687    -0.4459193670
   96      C      -7.9335313263    -5.4134266829    -0.4905931171
   97      H      -8.2488012200    -5.0247908312    -1.4675250845
   98      H      -6.9359092814    -5.0045544741    -0.2893301739
   99      C      -9.0679817222    -4.7605166299     0.4328205291
  100      H     -10.0621831553    -5.0839203793     0.1013291640
  101      H      -9.0385438755    -5.2416678324     1.4186379227
  102      C      -9.1030542823    -3.1321895357     0.4594248478
  103      H      -9.2354407106    -2.8379269204    -0.5895371853
  104      H      -9.9798997039    -2.8280975427     1.0447266216
  105      C      -7.9200919915    -2.4817666141     1.2227689652
  106      C      -7.7058129502    -2.9629806383     2.6517530643
  107      C      -8.5071292533    -2.4546561243     3.7606409625
  108      H      -9.2225864167    -1.6514735284     3.6124358174
  109      C      -8.3149886939    -2.9510707801     5.0609672658
  110      H      -8.8695910244    -2.4854489888     5.8699373533
  111      C      -7.4169110862    -3.9934696061     5.2778919030
  112      H      -7.2250528957    -4.3876516819     6.2722534700
  113      C      -6.6339926555    -4.5171789972     4.2562211123
  114      H      -5.9843682443    -5.3546723844     4.4925047358
  115      C      -6.7414591068    -3.9540048872     2.9373079675
  116      H      -6.0697593441    -4.3951741435     2.2076175426
  117      C      -5.6681008550     2.4319716439     2.5008680432
  118      C      -3.7722157153     0.8961948650     2.3454228045
  119      C      -2.1865509405     2.6251099689    -1.6004773190
  120      C      -8.4386341144     2.0370909437    -1.7602352988
  121      C      -3.4869713303     0.0763895067    -3.5881804696
  122      C      -5.0649120598     1.1453566026     2.7247229355
  123      C      -6.6747456316     1.5467487353    -3.8688933884
  124      C      -3.0925670313     3.7556189555     0.3187330067
  125      C      -4.4687591563    -2.0977930111    -0.2497567332
  126      C      -8.3166857896     0.7538008484    -2.2789829613
  127      C      -6.7538680680    -2.0579215659     0.3942599820
  128      C      -5.2195760288    -2.1987270113    -1.4410859704
  129      C      -6.9309432483    -0.7246698869    -3.1321341169
  130      C      -5.3924213450     1.3664389985    -4.2875613031
  131      C      -4.8811549280    -1.0236269848     1.9091626900
  132      C      -3.3541911501     2.4919889267    -3.5570217547
  133      C      -7.6720500530    -1.0097015081     0.9128181299
  134      C      -8.3189951186    -0.1215399186    -0.0408841680
  135      C      -2.7222473203     1.2339737591    -3.2840934969
  136      C      -6.0907852947     4.5932343001    -1.3326887381
  137      C      -3.8970817348     4.2500128871    -1.8896086182
  138      C      -3.9491884731     4.5470100019    -0.5228743347
  139      C      -3.6330341399     3.1741249999     1.5002253190
  140      C      -8.4217787756     1.1984179584     0.4512141176
  141      C      -5.2781827357    -1.9605200453     0.8822832846
  142      C      -3.0356906525     1.9427797989     1.7238024960
  143      C      -7.4893988329     0.5183871286    -3.3449147939
  144      C      -3.6343085091    -0.4012131407     1.8461943304
  145      C      -4.6951521306    -1.6526926618    -2.6192269061
  146      C      -7.8917330569     3.5463228303    -0.0887379624
  147      C      -2.1648637850     2.7841144582    -0.1875749021
  148      C      -6.5387686042    -2.1210904220    -1.1060359609
  149      C      -5.8115003921     4.2074141467     1.0772450270
  150      C      -5.5852960929    -0.9248771417    -3.4531275566
  151      C      -3.1782952866    -1.5415606363    -0.2831864553
  152      C      -5.5979695225     3.4850033942    -3.4730284013
  153      C      -6.8326175131     2.8576158432    -3.3711696754
  154      C      -2.6557693387    -1.0392627649    -1.5017070674
  155      C      -8.4614673026     2.2993780908    -0.3845972294
  156      C      -8.3089016064    -0.3580141244    -1.4592117293
  157      C      -7.3609057306     4.0292781641    -1.2913540671
  158      C      -7.0739170379     0.0250401152     1.8552679531
  159      C      -2.0779120885     0.3702021273     0.1479897884
  160      C      -7.3694280367    -1.3033361085    -1.9320243326
  161      C      -3.4451610414    -1.0248418293    -2.6925659072
  162      C      -7.0936531241     3.6034096626     1.1433052651
  163      C      -2.0160461689     1.2770980777    -2.0723809786
  164      C      -4.9338346653     3.4779837614     1.9280183136
  165      C      -3.0129470915     3.2820774363    -2.4285667758
  166      C      -2.8044960848    -0.6531566207     0.7105531796
  167      C      -1.9381278241     0.1372840527    -1.2074516636
  168      C      -5.8045496346    -0.0651863103     2.4434843993
  169      C      -7.6268784097     1.3148832056     1.6019548592
  170      C      -5.1799705567     4.3473009113    -2.3974179437
  171      C      -2.1226285528     1.6881088532     0.7092689522
  172      C      -4.8155105000     0.1074548279    -4.0573815143
  173      C      -7.7443383399     3.1052833259    -2.2915350372
  174      C      -4.6982862508     2.5346153800    -4.0553493035
  175      C      -6.9616181240     2.4767938345     1.9871112467
  176      C      -5.3235753020     4.7028747332    -0.1327884079
 ----------------------------------------------------------------

    9   -5804.2559683639      7.73E-06 Convergence criterion met
 Total energy in the final basis set = -5804.2559683639

                    Orbital Energies (a.u.)
 --------------------------------------------------------------

 Alpha MOs
 -- Occupied --
-19.189 -19.189 -19.148 -19.132 -10.322 -10.311 -10.248 -10.246
-10.245 -10.242 -10.237 -10.234 -10.231 -10.231 -10.230 -10.228
-10.228 -10.226 -10.224 -10.224 -10.223 -10.223 -10.222 -10.222
-10.222 -10.221 -10.221 -10.221 -10.221 -10.221 -10.220 -10.220
-10.220 -10.220 -10.220 -10.219 -10.219 -10.219 -10.218 -10.218
-10.218 -10.218 -10.218 -10.218 -10.217 -10.217 -10.217 -10.217
-10.217 -10.217 -10.217 -10.217 -10.217 -10.217 -10.216 -10.216
-10.216 -10.216 -10.216 -10.216 -10.215 -10.215 -10.215 -10.215
-10.215 -10.215 -10.214 -10.214 -10.214 -10.214 -10.214 -10.214
-10.214 -10.214 -10.213 -10.213 -10.213 -10.213 -10.213 -10.213
-10.212 -10.212 -10.212 -10.212 -10.212 -10.212 -10.212 -10.212
-10.212 -10.212 -10.211 -10.211 -10.211 -10.211 -10.211 -10.211
-10.211 -10.211 -10.211 -10.211 -10.211 -10.211 -10.210 -10.209
-10.209 -10.209 -10.209 -10.209 -10.209 -10.209 -10.209 -10.209
-10.209 -10.209 -10.208 -10.208 -10.208 -10.208 -10.208 -10.208
-10.208 -10.208 -10.208 -10.207 -10.207 -10.207 -10.207 -10.206
-10.206 -10.206 -10.206 -10.206 -10.206 -10.205 -10.204 -10.203
-10.202 -10.202 -10.199 -10.199 -10.198 -10.198 -10.196 -10.196
-10.196 -10.191 -10.190 -10.189  -1.098  -1.093  -1.027  -1.016
 -0.985  -0.981  -0.969  -0.964  -0.963  -0.961  -0.960  -0.958
 -0.934  -0.933  -0.929  -0.927  -0.925  -0.925  -0.923  -0.921
 -0.919  -0.918  -0.898  -0.897  -0.890  -0.890  -0.883  -0.882
 -0.877  -0.874  -0.859  -0.851  -0.845  -0.840  -0.840  -0.837
 -0.836  -0.833  -0.824  -0.818  -0.810  -0.799  -0.798  -0.796
 -0.794  -0.792  -0.792  -0.792  -0.790  -0.790  -0.785  -0.779
 -0.771  -0.770  -0.770  -0.769  -0.767  -0.763  -0.763  -0.760
 -0.753  -0.749  -0.745  -0.739  -0.732  -0.730  -0.719  -0.715
 -0.714  -0.712  -0.712  -0.712  -0.711  -0.710  -0.709  -0.708
 -0.707  -0.705  -0.705  -0.704  -0.703  -0.700  -0.675  -0.670
 -0.660  -0.659  -0.656  -0.655  -0.645  -0.644  -0.631  -0.631
 -0.628  -0.626  -0.622  -0.622  -0.621  -0.621  -0.618  -0.616
 -0.616  -0.613  -0.613  -0.612  -0.611  -0.611  -0.608  -0.608
 -0.606  -0.605  -0.603  -0.601  -0.566  -0.565  -0.564  -0.562
 -0.561  -0.561  -0.558  -0.556  -0.555  -0.554  -0.552  -0.551
 -0.536  -0.535  -0.534  -0.531  -0.529  -0.527  -0.525  -0.524
 -0.523  -0.520  -0.520  -0.517  -0.515  -0.515  -0.512  -0.512
 -0.506  -0.504  -0.504  -0.500  -0.496  -0.489  -0.487  -0.484
 -0.484  -0.483  -0.481  -0.480  -0.479  -0.477  -0.474  -0.474
 -0.473  -0.470  -0.469  -0.468  -0.468  -0.468  -0.467  -0.466
 -0.465  -0.464  -0.463  -0.463  -0.462  -0.460  -0.460  -0.460
 -0.458  -0.456  -0.452  -0.451  -0.448  -0.446  -0.444  -0.443
 -0.441  -0.439  -0.439  -0.437  -0.437  -0.437  -0.435  -0.433
 -0.431  -0.430  -0.429  -0.427  -0.427  -0.426  -0.424  -0.423
 -0.423  -0.422  -0.421  -0.420  -0.420  -0.418  -0.418  -0.418
 -0.417  -0.416  -0.416  -0.415  -0.414  -0.413  -0.412  -0.412
 -0.411  -0.411  -0.410  -0.409  -0.404  -0.401  -0.399  -0.397
 -0.395  -0.394  -0.392  -0.390  -0.388  -0.387  -0.383  -0.383
 -0.380  -0.379  -0.374  -0.371  -0.371  -0.370  -0.367  -0.365
 -0.365  -0.364  -0.363  -0.361  -0.360  -0.359  -0.358  -0.357
 -0.357  -0.356  -0.356  -0.355  -0.353  -0.352  -0.350  -0.350
 -0.349  -0.348  -0.348  -0.346  -0.346  -0.344  -0.344  -0.342
 -0.341  -0.339  -0.339  -0.337  -0.337  -0.336  -0.334  -0.333
 -0.332  -0.331  -0.331  -0.329  -0.328  -0.327  -0.324  -0.318
 -0.314  -0.309  -0.302  -0.296  -0.285  -0.285  -0.275  -0.272
 -0.270  -0.269  -0.267  -0.265  -0.265  -0.264  -0.264  -0.261
 -0.261  -0.261  -0.260  -0.260  -0.258  -0.257  -0.255  -0.254
 -0.251  -0.249  -0.247  -0.243  -0.219  -0.219  -0.213  -0.212
 -0.209  -0.208  -0.208  -0.204  -0.200  -0.198

          Ground-State Mulliken Net Atomic Charges

     Atom                 Charge (a.u.)
  ----------------------------------------
      1 O                    -0.481842
      2 C                    -0.086187
      3 H                     0.123507
      4 H                     0.138143
      5 H                     0.121161
      6 O                    -0.453649
      7 C                     0.588235
      8 C                    -0.262332
      9 H                     0.137561
     10 H                     0.125645
     11 C                    -0.167093
     12 H                     0.113513
     13 H                     0.124903
     14 C                    -0.178798
     15 H                     0.099857
     16 H                     0.100158
     17 C                     0.002182
     18 C                     0.125901
     19 C                    -0.103955
     20 H                     0.088283
     21 C                    -0.088673
     22 H                     0.089761
     23 C                    -0.094392
     24 H                     0.088526
     25 C                    -0.088847
     26 H                     0.099979
     27 C                    -0.137768
     28 H                     0.092166
     29 C                    -0.026011
     30 C                    -0.047536
     31 C                    -0.013368
     32 C                    -0.004673
     33 C                     0.015618
     34 C                     0.027896
     35 C                     0.012613
     36 C                     0.012002
     37 C                     0.036191
     38 C                    -0.027127
     39 C                    -0.086480
     40 C                     0.033994
     41 C                    -0.013781
     42 C                    -0.011124
     43 C                     0.038095
     44 C                    -0.016304
     45 C                    -0.058504
     46 C                    -0.011024
     47 C                     0.001864
     48 C                     0.021988
     49 C                    -0.021645
     50 C                     0.004063
     51 C                    -0.017360
     52 C                     0.014538
     53 C                     0.006385
     54 C                    -0.010193
     55 C                     0.007106
     56 C                     0.008484
     57 C                    -0.041499
     58 C                     0.004531
     59 C                    -0.002284
     60 C                    -0.028413
     61 C                    -0.023173
     62 C                    -0.011284
     63 C                    -0.030276
     64 C                     0.013167
     65 C                    -0.027484
     66 C                    -0.000886
     67 C                    -0.013665
     68 C                     0.046124
     69 C                    -0.018331
     70 C                    -0.018724
     71 C                     0.021588
     72 C                     0.008706
     73 C                     0.016736
     74 C                    -0.013623
     75 C                    -0.002403
     76 C                     0.046175
     77 C                     0.006888
     78 C                    -0.021216
     79 C                     0.000692
     80 C                     0.031678
     81 C                     0.034764
     82 C                     0.022251
     83 C                     0.019084
     84 C                     0.015613
     85 C                     0.000510
     86 C                     0.014019
     87 C                    -0.015744
     88 C                    -0.024291
     89 O                    -0.475428
     90 C                    -0.086383
     91 H                     0.126316
     92 H                     0.126620
     93 H                     0.130058
     94 O                    -0.425192
     95 C                     0.574344
     96 C                    -0.237313
     97 H                     0.122369
     98 H                     0.126501
     99 C                    -0.211507
    100 H                     0.108019
    101 H                     0.118722
    102 C                    -0.190528
    103 H                     0.118799
    104 H                     0.112444
    105 C                     0.027216
    106 C                     0.074386
    107 C                    -0.110426
    108 H                     0.093511
    109 C                    -0.082530
    110 H                     0.094777
    111 C                    -0.077990
    112 H                     0.087381
    113 C                    -0.091458
    114 H                     0.094393
    115 C                    -0.107624
    116 H                     0.102928
    117 C                    -0.003603
    118 C                     0.005514
    119 C                     0.008594
    120 C                     0.016362
    121 C                     0.010589
    122 C                    -0.006244
    123 C                     0.008877
    124 C                    -0.018010
    125 C                    -0.002787
    126 C                     0.012031
    127 C                    -0.089897
    128 C                     0.021175
    129 C                    -0.013706
    130 C                     0.019372
    131 C                    -0.001784
    132 C                    -0.024188
    133 C                    -0.075604
    134 C                     0.039547
    135 C                    -0.019158
    136 C                     0.011195
    137 C                     0.014384
    138 C                    -0.027695
    139 C                     0.023043
    140 C                     0.002143
    141 C                     0.026680
    142 C                     0.011592
    143 C                     0.009376
    144 C                    -0.004554
    145 C                    -0.004226
    146 C                    -0.012267
    147 C                    -0.024148
    148 C                     0.045538
    149 C                     0.002769
    150 C                    -0.005532
    151 C                    -0.009539
    152 C                    -0.013969
    153 C                    -0.002780
    154 C                    -0.029063
    155 C                    -0.002910
    156 C                    -0.048127
    157 C                     0.003372
    158 C                     0.032935
    159 C                     0.016321
    160 C                    -0.011471
    161 C                     0.003009
    162 C                    -0.022990
    163 C                     0.004974
    164 C                    -0.016487
    165 C                     0.043408
    166 C                     0.012909
    167 C                    -0.006677
    168 C                    -0.029997
    169 C                     0.012663
    170 C                    -0.011182
    171 C                    -0.005281
    172 C                    -0.014302
    173 C                    -0.017536
    174 C                    -0.009688
    175 C                     0.011735
    176 C                     0.012014
  ----------------------------------------
  Sum of atomic charges =     0.000000

                    Cartesian Multipole Moments
 -----------------------------------------------------------------
    Charge (ESU x 10^10)
                 0.0000
    Dipole Moment (Debye)
         X      -1.0164      Y      -4.5179      Z       2.1473
       Tot       5.1045
    Quadrupole Moments (Debye-Ang)
        XX    -797.0871     XY     -14.9323     YY    -784.5634
        XZ     -33.2714     YZ     -22.0820     ZZ    -796.1257

 Total job time:  838.66s(wall), 8017.21s(cpu)
        *  Thank you very much for using Q-Chem.  Have a nice day.  *
