 Q-Chem 4.4, Q-Chem, Inc., Pleasanton, CA (2016)
 Q-Chem 4.4.2 for Intel X86 Linux

User input:
--------------------------------------------------------------
$comment
SP
$end

$rem
MEM_STATIC 5000
MEM_TOTAL 20000
JOBTYPE SP
EXCHANGE B3LYP
BASIS 6-31g(d,p)
$end

$molecule
0 1
O           3.737000    -18.183000     -1.169000
C           3.832000    -19.121000     -2.306000
H           3.482000    -20.107000     -1.974000
H           4.868000    -19.284000     -2.629000
H           3.191000    -18.872000     -3.160000
O           4.578000    -16.312000     -2.247000
C           4.114000    -16.879000     -1.273000
C           4.178000    -16.268000      0.083000
H           4.901000    -15.464000     -0.102000
H           4.643000    -16.910000      0.841000
C           2.847000    -15.638000      0.534000
H           3.049000    -15.073000      1.452000
H           2.536000    -14.848000     -0.161000
C           1.767000    -16.658000      0.818000
H           1.473000    -17.110000     -0.137000
H           2.151000    -17.483000      1.431000
C           0.557000    -16.101000      1.492000
C          -0.305000    -15.441000      0.505000
C          -1.101000    -16.231000     -0.369000
H          -1.098000    -17.299000     -0.175000
C          -1.920000    -15.619000     -1.298000
H          -2.446000    -16.206000     -2.044000
C          -1.840000    -14.190000     -1.436000
H          -2.302000    -13.733000     -2.307000
C          -1.041000    -13.432000     -0.572000
H          -0.885000    -12.379000     -0.787000
C          -0.333000    -14.051000      0.387000
H           0.274000    -13.393000      1.002000
C          -1.133000    -13.216000      5.831000
C          -3.007000    -14.723000      5.412000
C          -2.157000    -17.390000      9.053000
C           3.139000    -15.763000      6.323000
C          -0.463000    -19.861000      7.288000
C          -1.975000    -13.874000      4.894000
C           2.698000    -18.224000      7.466000
C          -2.112000    -14.983000      8.873000
C          -1.655000    -18.155000      3.730000
C           3.083000    -16.884000      5.488000
C           0.020000    -16.867000      2.685000
C          -0.412000    -18.790000      3.881000
C           2.053000    -18.850000      5.111000
C           1.704000    -19.135000      8.011000
C          -2.059000    -15.860000      3.658000
C          -0.248000    -18.464000      9.293000
C           0.723000    -15.563000      2.891000
C           1.994000    -15.525000      3.740000
C          -0.980000    -19.172000      8.381000
C           1.355000    -14.860000      9.176000
C          -0.261000    -16.174000      9.987000
C          -0.823000    -14.944000      9.542000
C          -2.380000    -14.163000      7.773000
C           2.019000    -14.446000      4.651000
C          -1.407000    -16.946000      3.108000
C          -3.131000    -14.858000      6.825000
C           2.829000    -18.126000      6.073000
C          -3.116000    -15.916000      4.591000
C          -0.183000    -19.629000      4.993000
C           2.061000    -13.947000      6.992000
C          -2.739000    -16.199000      8.618000
C           0.626000    -18.018000      3.358000
C          -0.051000    -13.318000      7.899000
C           1.044000    -19.624000      5.633000
C          -2.622000    -18.309000      4.732000
C           1.846000    -17.215000      9.343000
C           2.772000    -17.097000      8.298000
C          -2.343000    -19.069000      5.862000
C           2.594000    -14.566000      5.914000
C           2.517000    -16.789000      4.248000
C           2.237000    -14.712000      8.109000
C          -0.004000    -14.453000      3.483000
C          -3.501000    -17.253000      6.561000
C           1.895000    -17.978000      4.018000
C          -1.124000    -19.819000      6.028000
C           0.882000    -13.245000      6.848000
C          -2.233000    -18.539000      8.261000
C          -1.285000    -13.336000      7.222000
C          -0.961000    -17.353000      9.761000
C          -3.338000    -17.190000      5.183000
C          -2.838000    -18.434000      6.968000
C          -1.431000    -14.563000      3.730000
C           0.786000    -13.784000      4.505000
C           1.120000    -16.078000      9.767000
C          -3.392000    -16.125000      7.389000
C           0.882000    -19.772000      7.035000
C           2.932000    -15.835000      7.680000
C           1.157000    -18.410000      9.081000
C           0.226000    -13.204000      5.600000
C           0.154000    -14.102000      9.090000
O           1.430000     -6.390000      1.539000
C           2.445000     -5.906000      0.618000
H           3.228000     -6.664000      0.504000
H           2.795000     -4.948000      1.022000
H           2.019000     -5.791000     -0.386000
O           1.077000     -8.383000      0.446000
C           1.005000     -7.704000      1.406000
C           0.247000     -8.083000      2.734000
H          -0.351000     -8.998000      2.634000
H          -0.442000     -7.279000      3.020000
C           1.212000     -8.527000      3.933000
H           1.777000     -9.425000      3.655000
H           2.037000     -7.807000      4.005000
C           0.471000     -8.872000      5.342000
H          -0.240000     -9.671000      5.096000
H           1.233000     -9.252000      6.034000
C          -0.099000     -7.634000      6.082000
C           0.887000     -6.503000      6.343000
C           1.830000     -6.549000      7.456000
H           1.797000     -7.353000      8.185000
C           2.757000     -5.510000      7.644000
H           3.381000     -5.540000      8.532000
C           2.834000     -4.475000      6.715000
H           3.522000     -3.643000      6.839000
C           1.964000     -4.387000      5.635000
H           2.109000     -3.573000      4.931000
C           0.941000     -5.386000      5.481000
H           0.282000     -5.223000      4.634000
C          -3.052000     -6.138000     10.542000
C          -3.589000     -4.462000      8.845000
C          -7.853000     -5.996000      8.111000
C          -3.795000    -10.771000      8.549000
C          -7.063000     -7.678000      5.164000
C          -2.671000     -5.275000      9.456000
C          -5.965000    -10.597000      6.800000
C          -6.639000     -5.758000     10.173000
C          -3.338000     -5.958000      5.119000
C          -3.579000    -10.729000      7.177000
C          -1.540000     -7.329000      5.844000
C          -3.565000     -7.237000      4.566000
C          -4.261000     -9.880000      5.267000
C          -6.934000     -9.830000      6.230000
C          -2.254000     -5.184000      7.171000
C          -8.282000     -8.053000      7.220000
C          -1.150000     -7.934000      7.145000
C          -1.767000     -9.192000      7.537000
C          -7.902000     -7.144000      6.178000
C          -6.208000     -9.234000     10.560000
C          -7.750000     -7.818000      9.634000
C          -7.010000     -7.089000     10.572000
C          -5.291000     -5.336000     10.349000
C          -2.029000     -9.243000      8.924000
C          -2.198000     -5.920000      5.928000
C          -4.933000     -4.489000      9.311000
C          -4.642000    -10.693000      6.314000
C          -3.364000     -4.393000      7.468000
C          -4.884000     -7.662000      4.364000
C          -3.817000     -9.646000     10.575000
C          -7.064000     -5.154000      8.942000
C          -2.576000     -8.062000      5.013000
C          -4.698000     -7.477000     11.377000
C          -5.199000     -9.001000      4.718000
C          -4.425000     -5.102000      5.367000
C          -7.314000     -9.928000      8.475000
C          -6.185000    -10.685000      8.191000
C          -5.747000     -5.544000      5.108000
C          -3.051000    -10.007000      9.457000
C          -2.542000     -9.997000      6.632000
C          -5.125000    -10.068000     10.306000
C          -1.430000     -7.115000      8.397000
C          -5.754000     -4.388000      7.033000
C          -2.966000     -9.369000      5.438000
C          -6.005000     -6.876000      4.660000
C          -3.573000     -8.297000     11.103000
C          -7.607000     -5.875000      6.699000
C          -4.364000     -6.137000     11.032000
C          -8.170000     -7.268000      8.397000
C          -4.464000     -4.394000      6.556000
C          -6.572000     -5.056000      6.141000
C          -1.808000     -5.765000      8.404000
C          -1.862000     -7.958000      9.463000
C          -7.317000     -9.131000      9.675000
C          -6.008000     -4.352000      8.443000
C          -6.546000     -8.989000      5.175000
C          -5.067000    -10.780000      9.085000
C          -7.779000     -9.396000      7.229000
C          -2.591000     -7.452000     10.537000
C          -5.990000     -7.939000     11.122000
$end

--------------------------------------------------------------

             Standard Nuclear Orientation (Angstroms)
    I     Atom           X                Y                Z
 ----------------------------------------------------------------
    1      O      -9.8363174593    -4.5701969661    -1.0294180379
    2      C     -11.0246577857    -5.0158345278    -1.7849922780
    3      H     -11.6052224908    -4.1303968484    -2.0745863719
    4      H     -11.7105399945    -5.6141874744    -1.1720213595
    5      H     -10.8020996418    -5.5234388918    -2.7310386206
    6      O      -8.9501810884    -6.6662579950    -0.5920434899
    7      C      -8.9273586492    -5.4494978298    -0.5254489193
    8      C      -8.0165790296    -4.7417575049     0.4156871585
    9      H      -7.7056096298    -5.5807787982     1.0502825428
   10      H      -8.5256751122    -4.0403868124     1.0878875231
   11      C      -6.7680867556    -4.1527943779    -0.2671389370
   12      H      -6.0918873263    -3.8144234870     0.5272239977
   13      H      -6.1806424431    -4.9432123729    -0.7508687925
   14      C      -7.0769765297    -2.9828437877    -1.1744749960
   15      H      -7.6292411821    -3.3667978464    -2.0407013143
   16      H      -7.7510566309    -2.2682396943    -0.6857961579
   17      C      -5.8733194867    -2.2380590939    -1.6489541660
   18      C      -5.2485855720    -2.9576339313    -2.7646300101
   19      C      -5.8450182430    -2.9038125607    -4.0541893647
   20      H      -6.6903678603    -2.2305526596    -4.1560428378
   21      C      -5.2614925137    -3.5733684453    -5.1122718949
   22      H      -5.7629361507    -3.6344337619    -6.0727854586
   23      C      -4.1289441651    -4.4163896720    -4.8399954741
   24      H      -3.8128775250    -5.1141317431    -5.6108339016
   25      C      -3.5640078988    -4.4633279237    -3.5601107858
   26      H      -2.8065702274    -5.2115362196    -3.3460021218
   27      C      -4.0961913172    -3.7211241472    -2.5752146677
   28      H      -3.6103033568    -3.8288706315    -1.6098434515
   29      C      -1.3530296434     0.3584515072     0.0337099212
   30      C      -1.9495588459     1.5626480407    -2.0040706408
   31      C      -3.4443215397     5.3031801285     0.2019153495
   32      C      -5.2023998900     0.2080128338     3.2178854676
   33      C      -6.8164858953     4.4666873532     0.0623109232
   34      C      -1.8373862772     0.3182877148    -1.3018358552
   35      C      -6.7407213441     2.4776889390     3.0189169235
   36      C      -1.4816029911     3.9606789746     0.6184493224
   37      C      -5.9618986760     1.4057785051    -2.5627951144
   38      C      -6.3866752056     0.1461657487     2.4758147737
   39      C      -5.9194507403    -0.7255350738    -1.5566665933
   40      C      -6.9896667129     1.3157137754    -1.6106101498
   41      C      -7.7234248929     1.2567003284     1.0447318896
   42      C      -6.9134226338     3.7573788331     2.3499251153
   43      C      -3.8665016953     0.3881885337    -2.4666330459
   44      C      -5.1038824283     5.2197164915     1.6490671999
   45      C      -5.0550627706    -1.5040372547    -0.6165449031
   46      C      -5.3083326970    -1.4044098848     0.8879864962
   47      C      -5.6703330951     5.1774164800     0.4056138027
   48      C      -2.7811516652     2.6857019069     3.5870573667
   49      C      -2.9437677252     4.6265240788     2.4904542871
   50      C      -1.7976983255     3.9148442927     2.0356952156
   51      C      -1.0130993978     2.8282524625    -0.0541118849
   52      C      -4.1226267454    -1.2508962779     1.6398654551
   53      C      -5.2385046742     0.2315029127    -2.4742120949
   54      C      -1.5715136522     2.7599759472    -1.3305294647
   55      C      -7.1469086072     1.3109508712     2.3548776261
   56      C      -3.1675538889     1.5690784447    -2.7950306431
   57      C      -7.4536831121     2.4829316763    -0.9662522111
   58      C      -2.9913006720     0.2734453532     3.0984709218
   59      C      -2.3195286452     4.6266981404    -0.2709938005
   60      C      -6.9468363211     0.1029819061    -0.9218402530
   61      C      -1.2646505417     1.5368215632     2.0489977780
   62      C      -7.7807876145     2.4575610767     0.3781855811
   63      C      -5.3633837720     2.6501308394    -2.7998102572
   64      C      -4.9354362986     3.7691330703     3.6022109835
   65      C      -5.5600735285     2.5267818384     3.7748862501
   66      C      -5.7765203170     3.7713102539    -2.0894470292
   67      C      -4.0804372778    -0.4669995823     2.7904826892
   68      C      -6.4467785289    -0.6115981791     1.3404018883
   69      C      -3.3682104757     1.4301125249     3.7181079557
   70      C      -3.6172952106    -1.2958298148    -0.6403588797
   71      C      -3.5215441299     3.8930136338    -2.2558552111
   72      C      -7.2562394846     0.0581213093     0.4745186583
   73      C      -6.8866348648     3.7593858188    -1.1710133090
   74      C      -1.9322774540     0.3091471272     2.2148555037
   75      C      -4.6303118578     5.2963111439    -0.5374227209
   76      C      -0.9570190271     1.5432618393     0.6754147357
   77      C      -3.7098223896     5.3268962045     1.5664650358
   78      C      -3.9665329942     2.7416361927    -2.8928300135
   79      C      -4.6815577403     4.5094066964    -1.7320164803
   80      C      -3.0172512394    -0.4579220952    -1.6637336332
   81      C      -3.0747647278    -1.1744899281     0.7039187356
   82      C      -3.5274088240     3.8353178241     3.4895202160
   83      C      -2.3564121564     3.9239638060    -1.4739609912
   84      C      -7.4007491738     3.6687415767     1.0125077234
   85      C      -4.7525441530     1.3661366815     3.8059849229
   86      C      -5.7309697996     4.4453110092     2.6634352681
   87      C      -2.0017068113    -0.3905823766     0.9921211966
   88      C      -1.6471969539     2.7472722483     2.7299011348
   89      O       1.9866266048    -7.3522079183     1.0221108353
   90      C       1.6719458636    -8.7173561989     1.4094972100
   91      H       0.6564657348    -8.7573555863     1.8191911896
   92      H       2.4573545599    -9.0269228013     2.1100553436
   93      H       1.6415809609    -9.3631281360     0.5236227393
   94      O       0.1122016502    -7.0574762392    -0.2782626983
   95      C       1.0163409088    -6.6289555474     0.3436112582
   96      C       1.4352869404    -5.1119064405     0.4131470739
   97      H       0.8878282315    -4.4879550756    -0.3050469503
   98      H       2.5025186756    -5.0024225634     0.1851937803
   99      C       1.0147802315    -4.3798360795     1.7744733002
  100      H      -0.0759893936    -4.3851747281     1.8889552797
  101      H       1.2903668300    -5.0237261955     2.6192611702
  102      C       1.4803236913    -2.8247742929     1.9102640468
  103      H       1.0345641011    -2.3223690994     1.0423208406
  104      H       1.0442654238    -2.4267818420     2.8351225205
  105      C       3.0046043335    -2.6320951643     2.1214210432
  106      C       3.6173295667    -3.4013450988     3.2843055288
  107      C       3.5166158616    -2.9219289442     4.6591331181
  108      H       3.0764878193    -1.9551964352     4.8842143534
  109      C       4.0542626868    -3.6769830206     5.7150797233
  110      H       4.0350385449    -3.2442569187     6.7106692738
  111      C       4.6088679418    -4.9286472369     5.4582827204
  112      H       5.0546205714    -5.5308946051     6.2453956098
  113      C       4.7238545707    -5.4340025273     4.1689270264
  114      H       5.1318277546    -6.4332758371     4.0495631565
  115      C       4.2721078423    -4.6326645019     3.0634731547
  116      H       4.4317980186    -5.0850325129     2.0897579858
  117      C       6.9320061314     1.2680563232     2.5841936578
  118      C       8.0561252549    -0.6299889532     1.5301849649
  119      C       8.3714261947     1.3435939660    -2.6025095288
  120      C       2.7112456790     2.3392092119    -0.0665797563
  121      C       5.6908132505    -0.4074545953    -3.9758908230
  122      C       7.1608901549    -0.1455066015     2.4471609551
  123      C       3.2529197760     1.8226702891    -2.7569242907
  124      C       8.6888012704     2.2947707774    -0.4169158486
  125      C       5.5239518010    -2.8428509028    -0.6778532122
  126      C       2.2274422394     1.1806623518    -0.6619850003
  127      C       3.8114768571    -2.3632659583     0.8955182784
  128      C       4.3673390857    -2.5401621803    -1.4287230837
  129      C       2.6478222291    -0.4120009502    -2.1182573893
  130      C       4.1439702297     1.4134369729    -3.7006971351
  131      C       6.3482250618    -2.1092641701     1.5055524068
  132      C       6.5383717248     1.8558240938    -3.8621533700
  133      C       3.5347296550    -1.2341746848     1.8224971791
  134      C       2.8578363687    -0.0575225663     1.2988348156
  135      C       6.8203003239     0.4536094995    -3.9658620812
  136      C       5.6795814889     4.1237095673    -0.5499015967
  137      C       7.2571465855     3.3616931116    -2.0233042189
  138      C       7.8459961267     3.4101631746    -0.7545284819
  139      C       8.5184182877     1.6590777729     0.8452362988
  140      C       3.3585498869     1.1360973356     1.8641413720
  141      C       5.3148541746    -2.7191433417     0.6992813571
  142      C       8.7585966496     0.2996482671     0.7137723374
  143      C       2.4491634251     0.9471361514    -1.9932773159
  144      C       7.5897424801    -1.8094140298     0.9445582952
  145      C       4.5145796983    -1.9349395557    -2.6830020705
  146      C       4.3024494157     3.3411589838     1.2880243641
  147      C       9.0015594803     1.2342253798    -1.3324636419
  148      C       3.3803430905    -2.2046172019    -0.5501996219
  149      C       6.7686352285     3.2520381119     1.4721737792
  150      C       3.6268341289    -0.8733224355    -3.0029065781
  151      C       6.7953536276    -2.6220471670    -1.2351611214
  152      C       4.9223025150     3.3346679223    -2.7535437724
  153      C       3.7054022689     3.0200659364    -2.1631833897
  154      C       6.9117956669    -2.0507251926    -2.5275083863
  155      C       3.3186863861     2.3458512348     1.1954296220
  156      C       2.2300041222    -0.0287398473     0.0055161289
  157      C       4.4266723544     3.8891492004     0.0052210339
  158      C       4.7379438536    -0.5649193687     2.4713715230
  159      C       8.4914037245    -1.1474407049    -1.2118619601
  160      C       2.5741413136    -1.0732741678    -0.8834797354
  161      C       5.7563051193    -1.6288018385    -3.2543606942
  162      C       5.5032250006     2.9777900855     2.0523685526
  163      C       7.9291319523     0.1030550280    -3.1807308933
  164      C       7.6518140793     2.1888782250     1.8125664530
  165      C       7.5201586577     2.3210941045    -2.9490727408
  166      C       7.7809033739    -2.0466964063    -0.4514716423
  167      C       8.0021855720    -1.1583183868    -2.5047499194
  168      C       6.0464902187    -1.0672838797     2.4436351104
  169      C       4.5418162013     0.8447802326     2.5603095807
  170      C       5.9710737581     3.8595440385    -1.9170021162
  171      C       9.0694680377     0.0175305654    -0.6097028541
  172      C       4.3608288447     0.0314717683    -3.8189955475
  173      C       3.4195904442     3.2834088407    -0.7821884166
  174      C       5.1867193860     2.3148321208    -3.7239991584
  175      C       5.6187057298     1.7195945072     2.6866501053
  176      C       6.8564246301     3.8237615533     0.2020720796
 ----------------------------------------------------------------

    9   -5804.2681830228      8.01E-06 Convergence criterion met
 Total energy in the final basis set = -5804.2681830228

                    Orbital Energies (a.u.)
 --------------------------------------------------------------

 Alpha MOs
 -- Occupied --
-19.198 -19.190 -19.150 -19.135 -10.323 -10.315 -10.253 -10.249
-10.246 -10.241 -10.239 -10.238 -10.237 -10.235 -10.234 -10.232
-10.230 -10.227 -10.227 -10.227 -10.226 -10.226 -10.225 -10.225
-10.223 -10.223 -10.223 -10.222 -10.222 -10.222 -10.221 -10.221
-10.220 -10.220 -10.220 -10.220 -10.220 -10.219 -10.219 -10.219
-10.219 -10.219 -10.219 -10.219 -10.218 -10.218 -10.218 -10.218
-10.218 -10.218 -10.218 -10.218 -10.218 -10.218 -10.218 -10.217
-10.217 -10.217 -10.217 -10.217 -10.217 -10.217 -10.217 -10.217
-10.217 -10.217 -10.216 -10.216 -10.216 -10.216 -10.216 -10.216
-10.215 -10.215 -10.215 -10.215 -10.214 -10.214 -10.214 -10.214
-10.214 -10.214 -10.214 -10.213 -10.213 -10.213 -10.213 -10.213
-10.213 -10.213 -10.213 -10.212 -10.212 -10.212 -10.212 -10.212
-10.212 -10.212 -10.212 -10.212 -10.212 -10.211 -10.211 -10.211
-10.211 -10.211 -10.211 -10.211 -10.210 -10.210 -10.210 -10.210
-10.210 -10.210 -10.209 -10.209 -10.209 -10.209 -10.209 -10.209
-10.209 -10.208 -10.208 -10.208 -10.207 -10.207 -10.207 -10.207
-10.207 -10.206 -10.206 -10.206 -10.206 -10.205 -10.204 -10.202
-10.202 -10.202 -10.201 -10.201 -10.199 -10.199 -10.198 -10.196
-10.195 -10.193 -10.191 -10.190  -1.099  -1.088  -1.028  -1.011
 -0.986  -0.980  -0.969  -0.968  -0.962  -0.961  -0.960  -0.958
 -0.941  -0.934  -0.930  -0.927  -0.926  -0.925  -0.922  -0.920
 -0.918  -0.918  -0.900  -0.896  -0.893  -0.889  -0.888  -0.882
 -0.878  -0.873  -0.858  -0.851  -0.841  -0.838  -0.836  -0.835
 -0.835  -0.833  -0.826  -0.817  -0.809  -0.799  -0.797  -0.796
 -0.794  -0.793  -0.792  -0.792  -0.790  -0.789  -0.783  -0.779
 -0.770  -0.769  -0.768  -0.767  -0.766  -0.766  -0.763  -0.759
 -0.758  -0.749  -0.742  -0.739  -0.738  -0.730  -0.719  -0.718
 -0.714  -0.713  -0.712  -0.711  -0.710  -0.710  -0.709  -0.708
 -0.707  -0.706  -0.705  -0.703  -0.703  -0.700  -0.675  -0.670
 -0.660  -0.656  -0.656  -0.655  -0.652  -0.644  -0.636  -0.632
 -0.630  -0.630  -0.627  -0.622  -0.621  -0.621  -0.618  -0.616
 -0.615  -0.613  -0.612  -0.611  -0.611  -0.608  -0.607  -0.607
 -0.606  -0.605  -0.602  -0.600  -0.571  -0.567  -0.565  -0.564
 -0.564  -0.560  -0.559  -0.558  -0.557  -0.554  -0.553  -0.551
 -0.541  -0.537  -0.535  -0.533  -0.531  -0.527  -0.527  -0.526
 -0.524  -0.520  -0.518  -0.517  -0.515  -0.515  -0.512  -0.511
 -0.510  -0.503  -0.502  -0.501  -0.491  -0.489  -0.488  -0.486
 -0.483  -0.482  -0.480  -0.480  -0.476  -0.476  -0.475  -0.474
 -0.473  -0.473  -0.470  -0.469  -0.468  -0.468  -0.467  -0.467
 -0.466  -0.464  -0.463  -0.463  -0.462  -0.460  -0.460  -0.459
 -0.458  -0.455  -0.454  -0.451  -0.449  -0.445  -0.444  -0.441
 -0.440  -0.440  -0.439  -0.438  -0.437  -0.436  -0.435  -0.433
 -0.432  -0.431  -0.429  -0.427  -0.427  -0.427  -0.426  -0.424
 -0.424  -0.422  -0.421  -0.421  -0.420  -0.419  -0.417  -0.417
 -0.416  -0.415  -0.414  -0.414  -0.413  -0.413  -0.412  -0.412
 -0.411  -0.411  -0.410  -0.409  -0.405  -0.405  -0.402  -0.398
 -0.397  -0.395  -0.395  -0.391  -0.387  -0.386  -0.386  -0.383
 -0.379  -0.379  -0.373  -0.371  -0.370  -0.368  -0.367  -0.366
 -0.364  -0.364  -0.363  -0.363  -0.363  -0.361  -0.360  -0.358
 -0.358  -0.356  -0.356  -0.355  -0.355  -0.352  -0.352  -0.351
 -0.350  -0.349  -0.349  -0.347  -0.347  -0.346  -0.345  -0.343
 -0.341  -0.340  -0.338  -0.338  -0.337  -0.337  -0.336  -0.334
 -0.332  -0.331  -0.331  -0.329  -0.327  -0.326  -0.325  -0.324
 -0.313  -0.312  -0.304  -0.302  -0.290  -0.285  -0.276  -0.270
 -0.270  -0.269  -0.268  -0.267  -0.266  -0.265  -0.264  -0.263
 -0.262  -0.261  -0.261  -0.259  -0.258  -0.257  -0.255  -0.253
 -0.251  -0.249  -0.246  -0.240  -0.223  -0.218  -0.212  -0.211
 -0.211  -0.208  -0.207  -0.203  -0.199  -0.198

          Ground-State Mulliken Net Atomic Charges

     Atom                 Charge (a.u.)
  ----------------------------------------
      1 O                    -0.465986
      2 C                    -0.093963
      3 H                     0.126344
      4 H                     0.133684
      5 H                     0.133365
      6 O                    -0.469536
      7 C                     0.602493
      8 C                    -0.251611
      9 H                     0.133207
     10 H                     0.125641
     11 C                    -0.200870
     12 H                     0.104755
     13 H                     0.119623
     14 C                    -0.172280
     15 H                     0.115981
     16 H                     0.107389
     17 C                     0.013600
     18 C                     0.096621
     19 C                    -0.093681
     20 H                     0.089936
     21 C                    -0.097151
     22 H                     0.093348
     23 C                    -0.094981
     24 H                     0.090431
     25 C                    -0.085137
     26 H                     0.102872
     27 C                    -0.101128
     28 H                     0.090344
     29 C                     0.022938
     30 C                    -0.007787
     31 C                     0.003737
     32 C                    -0.007847
     33 C                     0.005245
     34 C                    -0.023831
     35 C                    -0.003755
     36 C                    -0.001945
     37 C                    -0.012638
     38 C                    -0.006635
     39 C                    -0.120504
     40 C                     0.016940
     41 C                    -0.041418
     42 C                    -0.033885
     43 C                     0.032588
     44 C                     0.003675
     45 C                    -0.053705
     46 C                     0.001599
     47 C                     0.019301
     48 C                    -0.004520
     49 C                    -0.004078
     50 C                     0.004608
     51 C                    -0.027023
     52 C                    -0.004251
     53 C                     0.042897
     54 C                     0.026427
     55 C                     0.008560
     56 C                    -0.009237
     57 C                    -0.008500
     58 C                    -0.002013
     59 C                     0.016684
     60 C                     0.043152
     61 C                     0.009315
     62 C                     0.020023
     63 C                     0.009729
     64 C                    -0.010885
     65 C                    -0.002469
     66 C                     0.006532
     67 C                     0.014529
     68 C                     0.020911
     69 C                     0.026867
     70 C                     0.010043
     71 C                    -0.001214
     72 C                    -0.009444
     73 C                    -0.040383
     74 C                    -0.024841
     75 C                    -0.020579
     76 C                    -0.020166
     77 C                    -0.001425
     78 C                    -0.018170
     79 C                     0.003602
     80 C                    -0.015536
     81 C                     0.007376
     82 C                     0.022365
     83 C                    -0.005067
     84 C                     0.016033
     85 C                    -0.018189
     86 C                     0.005364
     87 C                     0.007346
     88 C                    -0.017799
     89 O                    -0.474787
     90 C                    -0.086700
     91 H                     0.126487
     92 H                     0.127292
     93 H                     0.130243
     94 O                    -0.427571
     95 C                     0.574136
     96 C                    -0.237754
     97 H                     0.121097
     98 H                     0.127479
     99 C                    -0.211535
    100 H                     0.106667
    101 H                     0.119012
    102 C                    -0.192359
    103 H                     0.120137
    104 H                     0.113314
    105 C                     0.027632
    106 C                     0.075024
    107 C                    -0.110747
    108 H                     0.094014
    109 C                    -0.082547
    110 H                     0.094859
    111 C                    -0.078235
    112 H                     0.087300
    113 C                    -0.091399
    114 H                     0.094213
    115 C                    -0.108063
    116 H                     0.102567
    117 C                    -0.004129
    118 C                     0.005317
    119 C                     0.007839
    120 C                     0.022860
    121 C                     0.010816
    122 C                    -0.006694
    123 C                     0.008802
    124 C                    -0.017480
    125 C                    -0.002735
    126 C                     0.014724
    127 C                    -0.090995
    128 C                     0.020185
    129 C                    -0.013089
    130 C                     0.018561
    131 C                    -0.002120
    132 C                    -0.024117
    133 C                    -0.074859
    134 C                     0.036762
    135 C                    -0.019448
    136 C                     0.011366
    137 C                     0.014101
    138 C                    -0.028748
    139 C                     0.022775
    140 C                     0.004419
    141 C                     0.026904
    142 C                     0.014804
    143 C                     0.008132
    144 C                    -0.004647
    145 C                    -0.003992
    146 C                    -0.012836
    147 C                    -0.026430
    148 C                     0.046345
    149 C                     0.003032
    150 C                    -0.005804
    151 C                    -0.009400
    152 C                    -0.015210
    153 C                    -0.003262
    154 C                    -0.028442
    155 C                    -0.002845
    156 C                    -0.041538
    157 C                     0.003134
    158 C                     0.033431
    159 C                     0.017021
    160 C                    -0.012962
    161 C                     0.002594
    162 C                    -0.023377
    163 C                     0.004874
    164 C                    -0.017096
    165 C                     0.043367
    166 C                     0.014123
    167 C                    -0.008111
    168 C                    -0.030346
    169 C                     0.012827
    170 C                    -0.011774
    171 C                    -0.008233
    172 C                    -0.014504
    173 C                    -0.019150
    174 C                    -0.010418
    175 C                     0.012252
    176 C                     0.011692
  ----------------------------------------
  Sum of atomic charges =     0.000000

                    Cartesian Multipole Moments
 -----------------------------------------------------------------
    Charge (ESU x 10^10)
                 0.0000
    Dipole Moment (Debye)
         X      -1.8543      Y      -2.9162      Z       1.4315
       Tot       3.7406
    Quadrupole Moments (Debye-Ang)
        XX    -795.6517     XY     -15.0243     YY    -809.8342
        XZ      23.9000     YZ     -11.2354     ZZ    -789.3249

 Total job time:  845.16s(wall), 8109.54s(cpu)
        *  Thank you very much for using Q-Chem.  Have a nice day.  *
