 Q-Chem 4.4, Q-Chem, Inc., Pleasanton, CA (2016)
 Q-Chem 4.4.2 for Intel X86 Linux

User input:
--------------------------------------------------------------
$comment
SP
$end

$rem
MEM_STATIC 5000
MEM_TOTAL 20000
JOBTYPE SP
EXCHANGE B3LYP
BASIS 6-31g(d,p)
$end

$molecule
0 1
O         -18.436000     -4.783000     11.762000
C         -19.663000     -4.127000     11.433000
H         -20.430000     -4.834000     11.093000
H         -19.568000     -3.479000     10.552000
H         -20.144000     -3.565000     12.243000
O         -19.351000     -6.406000     13.010000
C         -18.328000     -5.858000     12.584000
C         -16.915000     -6.367000     12.646000
H         -16.751000     -7.013000     13.517000
H         -16.312000     -5.481000     12.882000
C         -16.392000     -6.855000     11.302000
H         -16.403000     -6.066000     10.540000
H         -15.361000     -7.228000     11.339000
C         -17.283000     -8.101000     10.933000
H         -17.032000     -8.972000     11.551000
H         -18.324000     -7.825000     11.141000
C         -17.226000     -8.393000      9.465000
C         -18.203000     -7.636000      8.716000
C         -17.836000     -6.533000      7.918000
H         -16.811000     -6.207000      8.072000
C         -18.859000     -5.774000      7.228000
H         -18.632000     -4.827000      6.747000
C         -20.161000     -6.139000      7.313000
H         -20.879000     -5.724000      6.612000
C         -20.537000     -7.192000      8.068000
H         -21.570000     -7.524000      8.031000
C         -19.506000     -7.984000      8.746000
H         -19.838000     -8.776000      9.411000
C         -16.962000    -12.370000      5.573000
C         -15.558000    -10.610000      4.762000
C         -11.580000    -12.552000      5.135000
C         -15.176000    -13.519000     10.187000
C         -10.717000    -10.652000      8.029000
C         -16.647000    -11.023000      5.437000
C         -12.445000    -13.002000     10.269000
C         -13.638000    -13.478000      4.273000
C         -13.904000     -8.320000      7.478000
C         -14.709000    -12.308000     10.818000
C         -15.862000     -8.693000      8.867000
C         -13.481000     -8.643000      8.768000
C         -13.130000    -10.721000     10.529000
C         -11.316000    -12.606000      9.495000
C         -15.871000     -9.070000      6.335000
C         -10.826000    -12.986000      7.150000
C         -16.908000     -9.775000      8.993000
C         -16.578000    -11.020000      9.918000
C         -10.632000    -11.596000      6.971000
C         -14.133000    -15.204000      7.378000
C         -12.356000    -14.596000      6.134000
C         -13.485000    -14.474000      5.323000
C         -14.902000    -12.880000      4.243000
C         -17.004000    -12.165000      9.241000
C         -15.315000     -8.519000      7.457000
C         -14.667000    -11.502000      4.086000
C         -13.315000    -12.098000     10.853000
C         -15.147000     -9.378000      5.206000
C         -12.229000     -9.153000      8.940000
C         -16.079000    -14.282000      8.363000
C         -12.635000    -12.483000      4.183000
C         -14.544000     -9.008000      9.582000
C         -15.905000    -14.317000      5.928000
C         -12.059000    -10.233000      9.823000
C         -13.141000     -8.653000      6.341000
C         -12.176000    -14.444000      8.554000
C         -12.889000    -14.206000      9.752000
C         -11.841000     -9.144000      6.499000
C         -16.350000    -13.408000      9.425000
C         -15.385000    -11.097000     10.567000
C         -14.861000    -14.883000      8.481000
C         -17.330000    -10.464000      7.710000
C         -12.840000    -10.048000      4.674000
C         -14.376000    -10.091000     10.445000
C         -11.407000     -9.426000      7.804000
C         -16.617000    -13.974000      7.072000
C         -11.084000    -11.316000      5.677000
C         -16.029000    -13.290000      5.036000
C         -11.429000    -13.564000      6.088000
C         -13.781000     -9.159000      5.225000
C         -11.712000    -10.078000      5.499000
C         -16.841000    -10.088000      6.466000
C         -17.501000    -11.860000      7.948000
C         -12.774000    -14.981000      7.389000
C         -13.289000    -11.225000      4.021000
C         -11.172000    -11.187000      9.235000
C         -14.242000    -14.403000      9.638000
C         -11.188000    -13.462000      8.440000
C         -17.335000    -12.847000      6.864000
C         -14.611000    -14.845000      6.107000
O           1.430000     -6.390000      1.539000
C           2.445000     -5.906000      0.618000
H           3.228000     -6.664000      0.504000
H           2.795000     -4.948000      1.022000
H           2.019000     -5.791000     -0.386000
O           1.077000     -8.383000      0.446000
C           1.005000     -7.704000      1.406000
C           0.247000     -8.083000      2.734000
H          -0.351000     -8.998000      2.634000
H          -0.442000     -7.279000      3.020000
C           1.212000     -8.527000      3.933000
H           1.777000     -9.425000      3.655000
H           2.037000     -7.807000      4.005000
C           0.471000     -8.872000      5.342000
H          -0.240000     -9.671000      5.096000
H           1.233000     -9.252000      6.034000
C          -0.099000     -7.634000      6.082000
C           0.887000     -6.503000      6.343000
C           1.830000     -6.549000      7.456000
H           1.797000     -7.353000      8.185000
C           2.757000     -5.510000      7.644000
H           3.381000     -5.540000      8.532000
C           2.834000     -4.475000      6.715000
H           3.522000     -3.643000      6.839000
C           1.964000     -4.387000      5.635000
H           2.109000     -3.573000      4.931000
C           0.941000     -5.386000      5.481000
H           0.282000     -5.223000      4.634000
C          -3.052000     -6.138000     10.542000
C          -3.589000     -4.462000      8.845000
C          -7.853000     -5.996000      8.111000
C          -3.795000    -10.771000      8.549000
C          -7.063000     -7.678000      5.164000
C          -2.671000     -5.275000      9.456000
C          -5.965000    -10.597000      6.800000
C          -6.639000     -5.758000     10.173000
C          -3.338000     -5.958000      5.119000
C          -3.579000    -10.729000      7.177000
C          -1.540000     -7.329000      5.844000
C          -3.565000     -7.237000      4.566000
C          -4.261000     -9.880000      5.267000
C          -6.934000     -9.830000      6.230000
C          -2.254000     -5.184000      7.171000
C          -8.282000     -8.053000      7.220000
C          -1.150000     -7.934000      7.145000
C          -1.767000     -9.192000      7.537000
C          -7.902000     -7.144000      6.178000
C          -6.208000     -9.234000     10.560000
C          -7.750000     -7.818000      9.634000
C          -7.010000     -7.089000     10.572000
C          -5.291000     -5.336000     10.349000
C          -2.029000     -9.243000      8.924000
C          -2.198000     -5.920000      5.928000
C          -4.933000     -4.489000      9.311000
C          -4.642000    -10.693000      6.314000
C          -3.364000     -4.393000      7.468000
C          -4.884000     -7.662000      4.364000
C          -3.817000     -9.646000     10.575000
C          -7.064000     -5.154000      8.942000
C          -2.576000     -8.062000      5.013000
C          -4.698000     -7.477000     11.377000
C          -5.199000     -9.001000      4.718000
C          -4.425000     -5.102000      5.367000
C          -7.314000     -9.928000      8.475000
C          -6.185000    -10.685000      8.191000
C          -5.747000     -5.544000      5.108000
C          -3.051000    -10.007000      9.457000
C          -2.542000     -9.997000      6.632000
C          -5.125000    -10.068000     10.306000
C          -1.430000     -7.115000      8.397000
C          -5.754000     -4.388000      7.033000
C          -2.966000     -9.369000      5.438000
C          -6.005000     -6.876000      4.660000
C          -3.573000     -8.297000     11.103000
C          -7.607000     -5.875000      6.699000
C          -4.364000     -6.137000     11.032000
C          -8.170000     -7.268000      8.397000
C          -4.464000     -4.394000      6.556000
C          -6.572000     -5.056000      6.141000
C          -1.808000     -5.765000      8.404000
C          -1.862000     -7.958000      9.463000
C          -7.317000     -9.131000      9.675000
C          -6.008000     -4.352000      8.443000
C          -6.546000     -8.989000      5.175000
C          -5.067000    -10.780000      9.085000
C          -7.779000     -9.396000      7.229000
C          -2.591000     -7.452000     10.537000
C          -5.990000     -7.939000     11.122000
$end

--------------------------------------------------------------

             Standard Nuclear Orientation (Angstroms)
    I     Atom           X                Y                Z
 ----------------------------------------------------------------
    1      O      -8.6642898580     6.6826671916    -0.8946148177
    2      C      -9.6682941059     7.1584598231    -1.7944497147
    3      H     -10.5068450903     6.4567211489    -1.8846333031
    4      H      -9.3144537961     7.1989213627    -2.8328378401
    5      H     -10.1356223356     8.1165988332    -1.5358400414
    6      O     -10.0661510865     6.1144836481     0.7609245375
    7      C      -8.9012292275     6.2370891072     0.3656601149
    8      C      -7.6480638826     5.7179882037     1.0134292638
    9      H      -7.7494284412     5.6494644443     2.1033295899
   10      H      -6.9161290594     6.5257353208     0.8864764798
   11      C      -7.0471156567     4.5219039164     0.2879965602
   12      H      -6.7840644220     4.7548096150    -0.7511593394
   13      H      -6.1318720880     4.1372544516     0.7547223889
   14      C      -8.1126461272     3.3694471833     0.4260048741
   15      H      -8.1394379074     2.9666071676     1.4460872837
   16      H      -9.0932349610     3.8101997666     0.2085107376
   17      C      -7.9041102142     2.3105909607    -0.6126833721
   18      C      -8.5842530846     2.6144070513    -1.8511019035
   19      C      -7.8854199430     3.0520782629    -2.9948580622
   20      H      -6.8487764807     3.3114210064    -2.7980620420
   21      C      -8.6182457461     3.3944719952    -4.1967078342
   22      H      -8.1331976501     3.8913529287    -5.0318944496
   23      C      -9.9657421203     3.2608707369    -4.2420755017
   24      H     -10.4728310571     3.2838844190    -5.2020136146
   25      C     -10.6567089207     2.8416591853    -3.1617808402
   26      H     -11.7193579248     2.6427944390    -3.2613394004
   27      C      -9.9212052517     2.4645604020    -1.9506904800
   28      H     -10.5026453412     2.2075650927    -1.0700124268
   29      C      -7.9028886809    -3.1589942987    -1.6698137319
   30      C      -6.0631990213    -2.2813988343    -2.9235701505
   31      C      -2.6690910348    -4.0545164202    -0.6716682872
   32      C      -7.0833086153    -1.7256545844     3.1336036744
   33      C      -1.8631633407    -0.9616971011     0.9141924290
   34      C      -7.3003626668    -2.1483761884    -2.4099106427
   35      C      -4.3460544732    -1.5073142725     3.5719428925
   36      C      -4.7260338831    -5.1056619490    -1.3787490437
   37      C      -4.3855247839     0.9620162198    -1.5015504813
   38      C      -6.4733896824    -0.4176975661     3.1293219024
   39      C      -6.5591837938     1.6041405633    -0.6268523413
   40      C      -4.2306094968     1.3684284445    -0.1755835294
   41      C      -4.5760327320     0.5889750163     2.4350756099
   42      C      -3.0592874931    -1.7128925405     2.9953136230
   43      C      -6.2772070463    -0.1072967270    -2.5095911748
   44      C      -2.3223121736    -3.3700088103     1.3846125188
   45      C      -7.8128881223     0.8756669658    -0.2046347736
   46      C      -7.8850880718     0.3255622723     1.2808691791
   47      C      -1.8217351419    -2.3362668386     0.5584302317
   48      C      -6.0130017338    -4.7714662090     1.9524899088
   49      C      -3.9870893065    -5.1219378022     1.0317415722
   50      C      -4.9363107041    -5.3639558104     0.0379347388
   51      C      -5.8213197274    -4.5090939318    -2.0117225977
   52      C      -8.4350227455    -0.9570164679     1.2226143086
   53      C      -5.7888108227     0.9174176500    -1.7460136906
   54      C      -5.2867488855    -3.4769507987    -2.8039804898
   55      C      -5.0863204402    -0.3546622494     3.3755463249
   56      C      -5.4759187616    -1.0542321322    -3.1053523881
   57      C      -3.1494417401     0.9243632619     0.5251806216
   58      C      -7.8490451752    -3.2816777010     1.8232626571
   59      C      -3.5371268903    -4.4252964747    -1.7361521550
   60      C      -5.4529395669     1.6156283358     0.4331786684
   61      C      -7.3335456794    -4.6734095455    -0.1153112370
   62      C      -3.3362989349     0.5025869152     1.8526511871
   63      C      -3.5504944896    -0.0136838903    -2.0816890016
   64      C      -4.1337344474    -3.6746915985     2.9800427883
   65      C      -4.9488644079    -2.7485840768     3.6714941644
   66      C      -2.4169241856    -0.4542426066    -1.3910578530
   67      C      -8.0854725030    -1.9454814123     2.1751754257
   68      C      -6.8410796364     0.5092781663     2.1333208536
   69      C      -6.8116942645    -3.8277714106     2.5192035657
   70      C      -8.1766713593    -0.3648478051    -0.9968966366
   71      C      -3.3044986418    -2.1185933460    -2.6512126852
   72      C      -5.6394404297     1.1804953587     1.7453367079
   73      C      -2.2450882651    -0.0066172695    -0.0715848620
   74      C      -8.1181837776    -3.6903220871     0.4773194271
   75      C      -2.0130013042    -2.7777842552    -0.7551981883
   76      C      -7.1118053052    -4.3047870718    -1.4117361975
   77      C      -2.8704883372    -4.3795095709     0.6733122251
   78      C      -4.1117567474    -0.9899780230    -2.8835159433
   79      C      -2.3392988762    -1.7925693317    -1.6941302673
   80      C      -7.4448957807    -0.7871147017    -2.0988168563
   81      C      -8.6648178110    -1.3730796849    -0.1137870635
   82      C      -4.6536233202    -4.7076704142     2.1640352354
   83      C      -3.8867836259    -3.4122468236    -2.6784867939
   84      C      -2.5893187360    -0.6952619075     2.0758277545
   85      C      -6.2820830445    -2.8483704878     3.3632982216
   86      C      -2.9585311898    -3.0169600315     2.6062106210
   87      C      -8.5501031397    -2.8051931826    -0.4494542707
   88      C      -6.2164716470    -5.1324293098     0.6104349046
   89      O      11.7141432124    -2.1562530730    -3.7830552537
   90      C      12.9301545868    -2.3596135173    -4.5529142453
   91      H      13.5479673903    -3.1233604837    -4.0674794802
   92      H      13.4076951186    -1.3757259498    -4.6389392126
   93      H      12.6877967664    -2.7798060839    -5.5364882862
   94      O      11.1204056329    -4.3777856899    -3.7232596151
   95      C      11.0511375944    -3.2780273118    -3.3066561483
   96      C      10.0462349131    -2.7866717867    -2.1973638744
   97      H       9.2933624578    -3.5436911198    -1.9425427694
   98      H       9.5038372376    -1.8985057606    -2.5436280390
   99      C      10.7138639025    -2.5813799789    -0.7558061037
  100      H      11.1157192158    -3.5313684643    -0.3830499035
  101      H      11.6502193477    -2.0224930685    -0.8786592750
  102      C       9.7206382412    -2.0186706913     0.4061956361
  103      H       8.9036097917    -2.7498301622     0.4542408335
  104      H      10.2788331494    -2.0217923330     1.3508207998
  105      C       9.3168671013    -0.5312377925     0.2339857699
  106      C      10.4663071303     0.4574114145     0.0896307727
  107      C      11.2072879598     0.9467236194     1.2479290834
  108      H      10.9033697235     0.6872596584     2.2575122442
  109      C      12.2912798827     1.8243445347     1.0778201767
  110      H      12.7596421941     2.2322753848     1.9683532568
  111      C      12.7145426304     2.1603587147    -0.2059781397
  112      H      13.5338799322     2.8535249269    -0.3767147447
  113      C      12.0480603355     1.7172509337    -1.3419802722
  114      H      12.4587747306     1.9883590009    -2.3099942708
  115      C      10.8744847330     0.9005146439    -1.1873577053
  116      H      10.3937331983     0.6286412634    -2.1218210950
  117      C       6.1191843973     3.4494376993     2.4200491161
  118      C       6.1923717200     3.9488187840     0.0278918997
  119      C       1.8568257213     2.6710851773    -0.7746326941
  120      C       4.7343188441    -1.4191273279     3.0266865493
  121      C       2.7030322093    -0.4249257341    -2.1298758519
  122      C       6.8239540384     3.5278367790     1.1684583934
  123      C       2.9250627805    -2.0395662216     0.9920305403
  124      C       2.7805207108     3.8950016664     1.0776901703
  125      C       6.6687883614     0.6263728439    -2.1898711982
  126      C       5.1516499629    -2.1632132523     1.9298844367
  127      C       8.0201283432    -0.2757469414    -0.4583602549
  128      C       6.2657105519    -0.7171659420    -2.0298374198
  129      C       4.9448891653    -2.4527852013    -0.2397752277
  130      C       2.2286746790    -1.6292345841    -0.1028765605
  131      C       7.5787495801     2.3006787431    -0.6557570120
  132      C       1.1469483580     0.5153635776    -0.5335735440
  133      C       8.0833240089    -0.0936504364     1.0159440456
  134      C       7.1696927920    -0.8608147217     1.8488029525
  135      C       1.8538388673     0.6562725766    -1.7732894235
  136      C       2.4239956639     1.1908172315     3.3089190767
  137      C       1.3588970433     1.9951376144     1.4490992870
  138      C       2.0888369509     3.0482940384     2.0120684496
  139      C       4.1463053273     4.2158272787     1.3182464171
  140      C       6.7038122016    -0.1115896203     2.9518129356
  141      C       7.6619589109     0.9987287385    -1.2785598642
  142      C       4.8185334505     4.3096702302     0.1089822396
  143      C       4.2561121345    -2.5113532260     0.9537468661
  144      C       6.6247100558     3.2234819503    -1.0849805283
  145      C       4.9311509600    -1.0575611853    -2.2833562040
  146      C       4.6503263701     0.6347003614     4.0969772047
  147      C       2.6730658620     3.7540544342    -0.3468761964
  148      C       6.9873827230    -1.2454026037    -1.0009009268
  149      C       4.1287129059     2.9562791055     3.4171849360
  150      C       4.2985506800    -1.9410063299    -1.3685865269
  151      C       5.7575465800     1.5737484892    -2.6877936846
  152      C       1.5140569650    -0.4334467926     1.7008534860
  153      C       2.4916045736    -1.3226855875     2.1274692833
  154      C       4.4248714688     1.1880385606    -2.9799133501
  155      C       5.4797168937    -0.3539557733     3.5477309879
  156      C       6.3854026610    -1.9553779440     1.3443276380
  157      C       3.3367797164     0.2587120601     3.7895085303
  158      C       7.7991893376     1.3029154143     1.5503000256
  159      C       4.3764877996     3.2102807941    -2.0051285688
  160      C       6.2784830713    -2.0560876746    -0.0621650749
  161      C       3.9655816850    -0.1384233773    -2.7133732562
  162      C       5.0879353807     2.0207831505     3.8839188665
  163      C       2.3253067899     1.9674859885    -1.9384087335
  164      C       4.7785941349     3.8437545725     2.5137345036
  165      C       1.2460109464     1.8056965403     0.0489429356
  166      C       5.6928673523     2.8210675301    -2.0907025627
  167      C       3.5769677967     2.2403505395    -2.5804676567
  168      C       7.7109787625     2.4598134455     0.7633827238
  169      C       7.0521095807     1.2347786003     2.7630894596
  170      C       1.5009747790     0.8902800093     2.2690032993
  171      C       3.9329525050     4.0435084680    -0.9267408436
  172      C       2.9311666548    -1.5525616784    -1.3159207845
  173      C       3.4236748162    -1.0113885182     3.1727081065
  174      C       1.3552245867    -0.6385650774     0.2921435212
  175      C       6.2948427912     2.3157001649     3.2093053050
  176      C       2.8203567993     2.5534204634     3.1458139484
 ----------------------------------------------------------------

    9   -5804.2428579579      8.18E-06 Convergence criterion met
 Total energy in the final basis set = -5804.2428579579

                    Orbital Energies (a.u.)
 --------------------------------------------------------------

 Alpha MOs
 -- Occupied --
-19.193 -19.189 -19.148 -19.134 -10.322 -10.322 -10.248 -10.246
-10.246 -10.242 -10.241 -10.240 -10.238 -10.234 -10.231 -10.228
-10.228 -10.228 -10.226 -10.226 -10.225 -10.224 -10.224 -10.224
-10.223 -10.223 -10.223 -10.222 -10.222 -10.221 -10.221 -10.221
-10.221 -10.220 -10.220 -10.220 -10.219 -10.219 -10.219 -10.218
-10.218 -10.218 -10.218 -10.218 -10.218 -10.218 -10.218 -10.218
-10.218 -10.217 -10.217 -10.217 -10.217 -10.217 -10.217 -10.217
-10.217 -10.216 -10.216 -10.216 -10.216 -10.215 -10.215 -10.215
-10.215 -10.215 -10.215 -10.214 -10.214 -10.214 -10.214 -10.214
-10.214 -10.214 -10.213 -10.213 -10.213 -10.213 -10.213 -10.213
-10.213 -10.212 -10.212 -10.212 -10.212 -10.212 -10.211 -10.211
-10.211 -10.211 -10.211 -10.211 -10.211 -10.211 -10.211 -10.211
-10.211 -10.211 -10.211 -10.210 -10.210 -10.210 -10.210 -10.210
-10.210 -10.210 -10.209 -10.209 -10.209 -10.209 -10.209 -10.209
-10.209 -10.209 -10.208 -10.208 -10.208 -10.208 -10.208 -10.208
-10.207 -10.207 -10.207 -10.207 -10.206 -10.206 -10.206 -10.206
-10.205 -10.205 -10.205 -10.205 -10.204 -10.203 -10.203 -10.203
-10.203 -10.202 -10.202 -10.202 -10.201 -10.200 -10.200 -10.199
-10.199 -10.199 -10.198 -10.189  -1.097  -1.095  -1.026  -1.001
 -0.983  -0.981  -0.968  -0.963  -0.962  -0.961  -0.961  -0.958
 -0.936  -0.934  -0.930  -0.926  -0.925  -0.923  -0.922  -0.921
 -0.919  -0.918  -0.902  -0.897  -0.891  -0.890  -0.884  -0.883
 -0.877  -0.874  -0.857  -0.851  -0.841  -0.838  -0.837  -0.836
 -0.835  -0.833  -0.828  -0.818  -0.814  -0.798  -0.796  -0.795
 -0.793  -0.793  -0.792  -0.792  -0.790  -0.790  -0.787  -0.779
 -0.774  -0.770  -0.769  -0.769  -0.767  -0.765  -0.763  -0.760
 -0.749  -0.749  -0.740  -0.739  -0.736  -0.730  -0.714  -0.714
 -0.714  -0.712  -0.712  -0.711  -0.710  -0.710  -0.709  -0.708
 -0.708  -0.706  -0.706  -0.703  -0.701  -0.700  -0.671  -0.670
 -0.658  -0.657  -0.656  -0.655  -0.650  -0.644  -0.637  -0.631
 -0.628  -0.627  -0.624  -0.623  -0.622  -0.621  -0.621  -0.616
 -0.614  -0.613  -0.612  -0.612  -0.611  -0.609  -0.609  -0.608
 -0.607  -0.605  -0.602  -0.601  -0.573  -0.566  -0.564  -0.563
 -0.562  -0.561  -0.558  -0.557  -0.554  -0.554  -0.554  -0.552
 -0.538  -0.536  -0.534  -0.534  -0.527  -0.526  -0.525  -0.523
 -0.522  -0.520  -0.518  -0.517  -0.516  -0.514  -0.512  -0.512
 -0.508  -0.504  -0.503  -0.500  -0.492  -0.490  -0.488  -0.485
 -0.484  -0.483  -0.480  -0.479  -0.478  -0.477  -0.475  -0.474
 -0.472  -0.472  -0.470  -0.469  -0.468  -0.467  -0.467  -0.465
 -0.464  -0.464  -0.463  -0.462  -0.462  -0.461  -0.460  -0.459
 -0.457  -0.456  -0.454  -0.452  -0.451  -0.446  -0.446  -0.442
 -0.441  -0.439  -0.439  -0.437  -0.437  -0.435  -0.435  -0.432
 -0.430  -0.429  -0.427  -0.427  -0.427  -0.425  -0.424  -0.423
 -0.423  -0.420  -0.419  -0.419  -0.418  -0.418  -0.417  -0.417
 -0.416  -0.415  -0.414  -0.414  -0.413  -0.413  -0.412  -0.411
 -0.411  -0.410  -0.410  -0.409  -0.404  -0.402  -0.400  -0.399
 -0.395  -0.392  -0.390  -0.388  -0.388  -0.388  -0.386  -0.384
 -0.383  -0.380  -0.377  -0.372  -0.371  -0.371  -0.367  -0.366
 -0.364  -0.364  -0.363  -0.363  -0.360  -0.360  -0.358  -0.358
 -0.357  -0.356  -0.356  -0.355  -0.354  -0.352  -0.352  -0.351
 -0.350  -0.349  -0.348  -0.346  -0.345  -0.344  -0.344  -0.343
 -0.342  -0.342  -0.341  -0.339  -0.337  -0.337  -0.335  -0.333
 -0.332  -0.331  -0.329  -0.328  -0.327  -0.326  -0.323  -0.321
 -0.314  -0.311  -0.301  -0.297  -0.289  -0.285  -0.275  -0.270
 -0.269  -0.268  -0.267  -0.267  -0.265  -0.264  -0.262  -0.262
 -0.261  -0.261  -0.260  -0.258  -0.258  -0.256  -0.255  -0.254
 -0.251  -0.249  -0.247  -0.245  -0.223  -0.219  -0.212  -0.211
 -0.208  -0.206  -0.204  -0.202  -0.200  -0.198

          Ground-State Mulliken Net Atomic Charges

     Atom                 Charge (a.u.)
  ----------------------------------------
      1 O                    -0.450551
      2 C                    -0.083411
      3 H                     0.129848
      4 H                     0.123901
      5 H                     0.124504
      6 O                    -0.480341
      7 C                     0.582033
      8 C                    -0.246988
      9 H                     0.134394
     10 H                     0.124949
     11 C                    -0.187831
     12 H                     0.124368
     13 H                     0.115609
     14 C                    -0.206072
     15 H                     0.112432
     16 H                     0.138033
     17 C                     0.017576
     18 C                     0.127714
     19 C                    -0.121393
     20 H                     0.088965
     21 C                    -0.101293
     22 H                     0.090193
     23 C                    -0.068322
     24 H                     0.090915
     25 C                    -0.093982
     26 H                     0.092962
     27 C                    -0.126356
     28 H                     0.091651
     29 C                    -0.050483
     30 C                     0.034327
     31 C                    -0.001900
     32 C                    -0.030736
     33 C                     0.002966
     34 C                     0.026687
     35 C                     0.016136
     36 C                    -0.034852
     37 C                    -0.011861
     38 C                    -0.024779
     39 C                    -0.088691
     40 C                     0.027998
     41 C                    -0.004893
     42 C                    -0.002898
     43 C                     0.011639
     44 C                    -0.000967
     45 C                    -0.106339
     46 C                     0.011673
     47 C                     0.000002
     48 C                    -0.013471
     49 C                    -0.026595
     50 C                     0.012375
     51 C                     0.018873
     52 C                     0.009985
     53 C                     0.025565
     54 C                     0.003742
     55 C                     0.001102
     56 C                    -0.036348
     57 C                    -0.017322
     58 C                    -0.000295
     59 C                    -0.022505
     60 C                     0.031557
     61 C                    -0.028828
     62 C                    -0.001392
     63 C                    -0.005015
     64 C                     0.015915
     65 C                    -0.031740
     66 C                    -0.002534
     67 C                    -0.012249
     68 C                     0.034606
     69 C                     0.025493
     70 C                     0.043344
     71 C                    -0.006551
     72 C                    -0.006003
     73 C                    -0.005986
     74 C                     0.023692
     75 C                    -0.011450
     76 C                     0.020438
     77 C                     0.045538
     78 C                     0.013304
     79 C                     0.014195
     80 C                    -0.010501
     81 C                    -0.008794
     82 C                     0.008078
     83 C                    -0.014050
     84 C                    -0.015604
     85 C                     0.029982
     86 C                    -0.009615
     87 C                    -0.012869
     88 C                     0.008211
     89 O                    -0.475562
     90 C                    -0.086433
     91 H                     0.126297
     92 H                     0.126519
     93 H                     0.130310
     94 O                    -0.424848
     95 C                     0.574274
     96 C                    -0.237431
     97 H                     0.122577
     98 H                     0.126457
     99 C                    -0.211853
    100 H                     0.108172
    101 H                     0.118892
    102 C                    -0.190602
    103 H                     0.118860
    104 H                     0.112432
    105 C                     0.027112
    106 C                     0.075744
    107 C                    -0.110774
    108 H                     0.093481
    109 C                    -0.082637
    110 H                     0.094687
    111 C                    -0.077790
    112 H                     0.087299
    113 C                    -0.091400
    114 H                     0.094454
    115 C                    -0.108514
    116 H                     0.103164
    117 C                    -0.004838
    118 C                     0.004774
    119 C                     0.005381
    120 C                     0.016760
    121 C                     0.011329
    122 C                    -0.006419
    123 C                     0.008460
    124 C                    -0.018579
    125 C                    -0.002663
    126 C                     0.012780
    127 C                    -0.091291
    128 C                     0.020813
    129 C                    -0.014424
    130 C                     0.009990
    131 C                    -0.000791
    132 C                    -0.017473
    133 C                    -0.076149
    134 C                     0.040574
    135 C                    -0.023877
    136 C                     0.010741
    137 C                     0.013978
    138 C                    -0.028833
    139 C                     0.022806
    140 C                     0.001679
    141 C                     0.026257
    142 C                     0.014637
    143 C                     0.010355
    144 C                    -0.004720
    145 C                    -0.004198
    146 C                    -0.013016
    147 C                    -0.026662
    148 C                     0.047413
    149 C                     0.003186
    150 C                    -0.004244
    151 C                    -0.008340
    152 C                    -0.006584
    153 C                    -0.006984
    154 C                    -0.027527
    155 C                    -0.001864
    156 C                    -0.048748
    157 C                     0.003833
    158 C                     0.033518
    159 C                     0.017903
    160 C                    -0.011357
    161 C                     0.002961
    162 C                    -0.023088
    163 C                     0.004763
    164 C                    -0.016492
    165 C                     0.043681
    166 C                     0.013671
    167 C                    -0.009032
    168 C                    -0.030014
    169 C                     0.012407
    170 C                    -0.012468
    171 C                    -0.008278
    172 C                    -0.013787
    173 C                    -0.017425
    174 C                    -0.003892
    175 C                     0.012485
    176 C                     0.011224
  ----------------------------------------
  Sum of atomic charges =     0.000000

                    Cartesian Multipole Moments
 -----------------------------------------------------------------
    Charge (ESU x 10^10)
                 0.0000
    Dipole Moment (Debye)
         X       3.7419      Y       3.7069      Z      -1.5285
       Tot       5.4845
    Quadrupole Moments (Debye-Ang)
        XX    -741.2616     XY      -0.3563     YY    -815.4002
        XZ      21.0303     YZ     -22.9438     ZZ    -800.9928

 Total job time:  846.43s(wall), 8057.24s(cpu)
        *  Thank you very much for using Q-Chem.  Have a nice day.  *
