 Q-Chem 4.4, Q-Chem, Inc., Pleasanton, CA (2016)
 Q-Chem 4.4.2 for Intel X86 Linux

User input:
--------------------------------------------------------------
$comment
SP
$end

$rem
MEM_STATIC 5000
MEM_TOTAL 20000
JOBTYPE SP
EXCHANGE B3LYP
BASIS 6-31g(d,p)
$end

$molecule
0 1
O         -10.519000      6.900000     -1.511000
C         -11.064000      7.939000     -2.343000
H         -10.225000      8.344000     -2.923000
H         -11.681000      8.676000     -1.813000
H         -11.662000      7.468000     -3.133000
O         -12.318000      6.782000     -0.120000
C         -11.196000      6.473000     -0.390000
C         -10.469000      5.413000      0.366000
H          -9.973000      5.929000      1.198000
H          -9.841000      5.018000     -0.442000
C         -11.287000      4.332000      1.050000
H         -11.628000      4.739000      2.010000
H         -12.146000      4.064000      0.422000
C         -10.410000      3.225000      1.498000
H          -9.844000      2.748000      0.689000
H          -9.538000      3.573000      2.065000
C         -11.129000      2.184000      2.334000
C         -12.272000      1.517000      1.526000
C         -11.981000      0.551000      0.616000
H         -10.932000      0.325000      0.451000
C         -12.975000     -0.199000      0.052000
H         -12.616000     -0.996000     -0.593000
C         -14.322000     -0.021000      0.470000
H         -15.146000     -0.703000      0.282000
C         -14.684000      1.089000      1.247000
H         -15.728000      1.296000      1.464000
C         -13.587000      1.768000      1.823000
H         -13.938000      2.614000      2.406000
C         -13.650000      1.365000      7.180000
C         -12.772000     -0.801000      6.488000
C          -9.391000     -1.091000      9.544000
C          -9.762000      4.663000      6.964000
C          -6.895000     -0.177000      7.244000
C         -13.287000      0.443000      6.173000
C          -7.388000      3.340000      7.622000
C         -11.657000     -0.220000      9.776000
C          -9.467000     -0.596000      4.251000
C          -8.900000      4.186000      5.961000
C         -10.390000      1.410000      3.385000
C          -8.418000      0.297000      4.147000
C          -7.465000      2.586000      5.357000
C          -6.789000      2.116000      8.014000
C         -11.842000     -0.224000      4.520000
C          -7.677000      0.409000      9.436000
C         -11.361000      2.466000      3.799000
C         -10.834000      3.632000      4.492000
C          -7.418000     -0.565000      8.461000
C         -10.623000      3.210000      9.935000
C          -9.757000      1.123000     10.419000
C         -11.182000      0.941000     10.298000
C         -12.723000     -0.136000      8.849000
C         -11.656000      3.965000      5.614000
C         -10.673000      0.016000      3.804000
C         -12.435000     -1.098000      7.837000
C          -7.706000      3.566000      6.315000
C         -11.845000     -1.163000      5.451000
C          -7.366000      0.249000      5.079000
C         -11.738000      4.271000      8.017000
C         -10.804000     -1.205000      9.365000
C          -8.891000      1.515000      3.682000
C         -12.820000      2.285000      9.071000
C          -6.869000      1.424000      5.723000
C          -9.487000     -1.644000      5.196000
C          -8.288000      2.752000      9.542000
C          -8.206000      3.790000      8.672000
C          -8.435000     -1.690000      6.126000
C         -11.138000      4.545000      6.771000
C          -9.426000      3.610000      4.785000
C         -10.688000      4.223000      8.981000
C         -12.551000      2.138000      4.642000
C         -10.360000     -2.147000      7.181000
C          -8.520000      2.662000      4.388000
C          -7.415000     -0.737000      6.094000
C         -12.798000      3.334000      8.043000
C          -8.469000     -1.488000      8.532000
C         -13.283000      1.118000      8.494000
C          -8.881000      0.054000     10.085000
C         -10.715000     -1.932000      5.823000
C          -8.994000     -2.036000      7.365000
C         -12.708000      0.818000      4.983000
C         -12.698000      3.035000      5.703000
C          -9.496000      2.511000     10.217000
C         -11.230000     -1.720000      8.114000
C          -6.561000      1.144000      7.051000
C          -9.451000      4.415000      8.323000
C          -7.366000      1.755000      9.223000
C         -13.332000      2.719000      6.884000
C         -11.698000      2.251000      9.983000
O          -9.246000     14.286000     10.883000
C         -10.355000     15.157000     11.255000
H          -9.977000     16.164000     11.465000
H         -11.012000     14.757000     12.037000
H         -11.006000     15.201000     10.373000
O          -8.647000     15.341000      8.942000
C          -8.428000     14.573000      9.845000
C          -7.187000     13.672000      9.901000
H          -7.601000     12.672000      9.724000
H          -6.798000     13.778000     10.921000
C          -6.137000     14.036000      8.804000
H          -6.275000     15.035000      8.373000
H          -5.207000     13.975000      9.384000
C          -6.058000     12.905000      7.765000
H          -5.008000     12.734000      7.494000
H          -6.257000     11.906000      8.171000
C          -6.700000     13.164000      6.394000
C          -6.026000     14.295000      5.692000
C          -6.531000     15.591000      5.789000
H          -7.364000     15.748000      6.467000
C          -5.912000     16.614000      5.121000
H          -6.228000     17.647000      5.234000
C          -4.759000     16.421000      4.298000
H          -4.307000     17.164000      3.648000
C          -4.308000     15.082000      4.132000
H          -3.411000     14.833000      3.573000
C          -4.898000     14.037000      4.893000
H          -4.448000     13.050000      4.845000
C         -11.570000     13.934000      3.948000
C         -10.270000     12.932000      2.213000
C         -12.338000      8.923000      2.209000
C         -11.443000     11.047000      8.112000
C          -9.845000      7.324000      4.176000
C         -10.355000     13.721000      3.342000
C         -11.209000      8.395000      7.350000
C         -13.307000     11.194000      2.387000
C          -7.489000     10.485000      3.801000
C         -10.154000     10.390000      8.133000
C          -7.278000     12.020000      5.617000
C          -7.362000      9.713000      4.894000
C          -8.812000      8.882000      7.179000
C         -11.182000      7.595000      6.293000
C          -8.297000     12.710000      3.409000
C         -12.293000      7.653000      4.110000
C          -8.154000     13.037000      6.331000
C          -9.084000     12.486000      7.362000
C         -11.054000      7.446000      3.497000
C         -14.114000     10.786000      5.795000
C         -13.938000      9.448000      3.966000
C         -14.098000     10.777000      3.493000
C         -12.674000     12.426000      2.370000
C         -10.417000     13.053000      7.255000
C          -7.443000     11.869000      4.137000
C         -11.431000     12.258000      1.729000
C         -10.043000      9.108000      7.735000
C          -9.000000     12.264000      2.288000
C          -8.007000      8.424000      4.867000
C         -12.761000     12.499000      6.989000
C         -12.479000     10.243000      1.720000
C          -7.346000     10.513000      6.050000
C         -13.435000     12.807000      4.683000
C          -8.767000      8.023000      6.075000
C          -8.164000     10.051000      2.675000
C         -13.206000      8.608000      6.158000
C         -12.489000      9.042000      7.296000
C          -8.718000      8.772000      2.588000
C         -11.547000     12.404000      7.700000
C          -9.034000     11.092000      7.684000
C         -13.338000     11.259000      6.950000
C          -9.168000     13.799000      5.483000
C         -10.044000     10.227000      1.399000
C          -8.194000     10.152000      7.090000
C          -8.647000      7.920000      3.756000
C         -12.816000     13.284000      5.797000
C         -11.080000      8.266000      2.323000
C         -12.703000     13.219000      3.539000
C         -13.081000      8.526000      3.335000
C          -8.933000     10.943000      1.898000
C          -9.912000      8.904000      1.878000
C          -9.167000     13.595000      4.102000
C         -10.430000     13.851000      6.100000
C         -14.056000      9.444000      5.394000
C         -11.293000     10.891000      1.355000
C          -9.935000      7.387000      5.613000
C         -12.561000     10.376000      7.665000
C         -12.382000      7.639000      5.545000
C         -11.641000     13.962000      5.327000
C         -14.096000     11.582000      4.597000
$end

--------------------------------------------------------------

             Standard Nuclear Orientation (Angstroms)
    I     Atom           X                Y                Z
 ----------------------------------------------------------------
    1      O      -0.5276604139    -6.5866706073    -2.3516703363
    2      C      -1.5413288511    -7.5620364920    -2.0518242249
    3      H      -2.0584499334    -7.7724277949    -2.9966349392
    4      H      -2.1842624842    -7.3093790976    -1.1988537773
    5      H      -1.0474385046    -8.5227231331    -1.8602556906
    6      O      -0.1574724157    -5.9978053209    -0.1833980931
    7      C       0.0194432021    -5.8147198578    -1.3506365338
    8      C       1.0313840557    -4.8392952452    -1.8488207707
    9      H       0.5054223936    -3.8791093371    -1.9256540445
   10      H       1.3205210018    -5.3433606813    -2.7791921280
   11      C       2.2226794406    -4.5264748536    -0.9608457100
   12      H       1.8986104283    -3.7714140936    -0.2339395785
   13      H       2.5497599327    -5.4379255550    -0.4447401290
   14      C       3.2513112561    -3.7774349398    -1.7198831239
   15      H       3.6283562266    -4.3065417909    -2.6032001849
   16      H       2.8405660385    -2.9170527578    -2.2621080469
   17      C       4.3995511846    -3.2860908630    -0.8598458777
   18      C       5.1444028091    -4.4741384626    -0.1980748004
   19      C       6.0313483829    -5.2037029867    -0.9240225632
   20      H       6.1383277033    -4.9517163782    -1.9746224748
   21      C       6.8543652273    -6.1093538484    -0.3148659409
   22      H       7.5785936599    -6.5677973587    -0.9822771524
   23      C       6.8380205653    -6.2430292225     1.1002950911
   24      H       7.5931203669    -6.7360407361     1.7054462599
   25      C       5.8092903039    -5.6632151501     1.8568680821
   26      H       5.7230743746    -5.8653449078     2.9206276295
   27      C       5.0465738435    -4.7069217351     1.1497666003
   28      H       4.2699539389    -4.3024728151     1.7917078709
   29      C       5.7020235333     0.2099624278     3.2133709307
   30      C       7.7296956514    -0.0948688884     1.8954454206
   31      C       7.8054034039     4.0283216508    -0.0661776609
   32      C       2.0084630307     1.5187554470    -0.0553712809
   33      C       6.5292805656     2.8716896577    -3.1303455633
   34      C       6.5332173639    -0.5812042574     2.3893114109
   35      C       3.1046094691     3.0386244950    -2.1308543722
   36      C       7.1882545136     3.3701197166     2.1994609822
   37      C       7.0760879792    -0.8829305183    -1.9673223537
   38      C       2.3455037555     0.9248817319    -1.2843137370
   39      C       5.1398026081    -2.0331953184    -1.2232720521
   40      C       6.0742639405    -0.5719861345    -2.8663930882
   41      C       3.7566407400     0.9175074278    -3.0142498718
   42      C       4.2759926757     3.6284558975    -2.6699288569
   43      C       6.9677876297    -1.5502505396     0.3552462725
   44      C       6.1307338204     4.5936168968    -1.5067966496
   45      C       4.2116681599    -2.0233794240    -0.0537238084
   46      C       3.0302906240    -1.1779106319    -0.1377692680
   47      C       7.0259633420     3.7917197316    -2.2292279889
   48      C       3.6799042100     3.9239895785     1.7054535703
   49      C       5.6849063943     4.6996489241     0.8580458643
   50      C       6.0093584049     4.0377547269     2.0970038799
   51      C       7.1734646482     2.1037970928     2.8310852949
   52      C       2.8376322760    -0.4591634910     1.0835997624
   53      C       6.5737051961    -1.7591768788    -0.9630351164
   54      C       8.0520191552     1.2789834215     2.0692740414
   55      C       2.8527766826     1.7106806364    -2.3141420038
   56      C       7.9441077674    -0.6947542017     0.6070716180
   57      C       6.0549892007     0.6936337426    -3.4791465550
   58      C       2.6537078612     1.7268441268     2.1142847310
   59      C       8.0583555989     3.3177120154     1.1473523689
   60      C       4.8922568518    -1.1805624643    -2.4714600647
   61      C       4.7888619464     2.2769803602     3.2823186164
   62      C       4.8655402577     1.4823432934    -3.5534328689
   63      C       8.1631206403    -0.0213388906    -1.7070362404
   64      C       3.8720760348     4.4612721989    -0.6377995905
   65      C       2.7919624253     3.6927710155    -0.9273311461
   66      C       8.1417662903     1.2424406577    -2.3203267467
   67      C       2.2608638443     0.8094966160     1.1184237353
   68      C       2.9182551064    -0.3643841991    -1.3186247994
   69      C       2.6361270495     3.0212142602     1.5156221609
   70      C       4.7012622690    -1.7056014798     1.3223749478
   71      C       8.8463339183     1.4718967551    -0.2040958148
   72      C       3.7466976772    -0.3833376322    -2.4097126393
   73      C       7.0867148798     1.6087637154    -3.1583642986
   74      C       3.6967761211     1.3395902728     2.9885204302
   75      C       8.0562685435     3.4494872614    -1.3444008149
   76      C       5.9699102266     1.5632202607     3.3520214165
   77      C       6.6396172285     4.7269515258    -0.1952702284
   78      C       8.6069385003     0.0825996953    -0.3742648882
   79      C       8.6015169838     2.1689773208    -1.3729740606
   80      C       6.0448357117    -1.4547490598     1.4457178331
   81      C       3.8747836731    -0.7813340428     1.9662707742
   82      C       4.2693350505     4.6173232200     0.7004094191
   83      C       8.5565547841     1.9979846409     0.9996390355
   84      C       5.1730391576     2.8256730796    -3.3591199454
   85      C       2.2852964113     2.8919188351     0.1517315654
   86      C       4.7511383884     4.5203345929    -1.7192869978
   87      C       4.3098972911     0.0628276607     2.9635872525
   88      C       4.7474193744     3.5511916757     2.5993456765
   89      O      -7.4234359631     5.3564273565     2.0750046689
   90      C      -8.1552817150     5.2738058445     3.3337665531
   91      H      -9.1855045575     5.6158059440     3.1830687540
   92      H      -7.6528210091     5.7407900789     4.1897057821
   93      H      -8.1717170750     4.2090280052     3.5976586368
   94      O      -8.6242736118     3.7993858441     0.9032889738
   95      C      -7.8423802173     4.7151177096     0.9604892367
   96      C      -7.0747041299     5.2434547983    -0.2587528827
   97      H      -6.0461335179     4.9180255827    -0.0616150584
   98      H      -7.1734361305     6.3348142652    -0.2124548697
   99      C      -7.5971794846     4.6374144770    -1.5997001720
  100      H      -8.5951410988     4.1889382602    -1.5238865888
  101      H      -7.6070895764     5.5311887953    -2.2369522870
  102      C      -6.5300981411     3.7066452046    -2.1996409757
  103      H      -6.4827786681     3.8613580165    -3.2854617774
  104      H      -5.4979967977     4.0020278560    -1.9761372706
  105      C      -6.7837447989     2.1947229677    -2.1066865646
  106      C      -8.0104625618     1.8098547156    -2.8638397582
  107      C      -9.2405338575     1.7075974445    -2.2153661210
  108      H      -9.2777952410     2.0120615450    -1.1741479879
  109      C     -10.3526243883     1.3326160089    -2.9214522165
  110      H     -11.3404819442     1.3174140402    -2.4702091008
  111      C     -10.3198451211     1.0177645168    -4.3156477041
  112      H     -11.1354514333     0.5942821778    -4.8938362997
  113      C      -9.0446014398     1.0354264540    -4.9459806393
  114      H      -8.9171292446     0.8652206565    -6.0108148170
  115      C      -7.9093792420     1.5073428077    -4.2333716885
  116      H      -6.9782395659     1.6343246043    -4.7772719798
  117      C      -7.1520284318    -1.9390774616     1.5083898076
  118      C      -6.3732793166    -3.0405239514    -0.4625476459
  119      C      -2.1742431279    -3.8517474636     0.9722807410
  120      C      -4.1041755398     1.9445494670     2.6563569798
  121      C      -0.7556558214    -1.0789922809    -0.7424722297
  122      C      -7.0958087641    -2.0298588423     0.1381970876
  123      C      -1.5294937000     1.3254904860     1.8462437766
  124      C      -4.3205358315    -4.0559726031     2.1887533970
  125      C      -4.1600229882    -0.5083282762    -2.6835824244
  126      C      -3.5855444945     2.4597021778     1.4076574469
  127      C      -5.6227770176     1.2521337289    -2.0055513202
  128      C      -3.3557054463     0.5471828720    -2.4697331598
  129      C      -2.2722964552     2.0937685442    -0.3605665669
  130      C      -0.7866214150     0.3588444206     1.3249817001
  131      C      -6.3039241721    -1.1764023549    -1.8382909131
  132      C      -0.8291329816    -2.0836398464     1.5137603328
  133      C      -6.5082025183     1.5752796114    -0.8126307775
  134      C      -5.8155894620     2.1662841170     0.3716254568
  135      C      -0.7817124402    -2.1716045099     0.1195750832
  136      C      -3.6725993602    -1.2242395810     4.1871636203
  137      C      -2.4466881845    -2.8469010227     3.1719923860
  138      C      -3.7721211514    -3.3418225572     3.2896789398
  139      C      -5.6115178656    -3.8244643025     1.7431400060
  140      C      -6.2441936139     1.5545983518     1.6174047333
  141      C      -5.5241431716    -0.1772824008    -2.4385257912
  142      C      -5.6045584336    -3.9366238309     0.3390296804
  143      C      -2.3420740304     2.1322795294     1.0066280038
  144      C      -5.8392255279    -2.4829103614    -1.6744068106
  145      C      -2.0088828173     0.2703151701    -2.0365033342
  146      C      -5.4606553245     0.4034504243     3.6005674089
  147      C      -3.4934677406    -4.3541204956     1.0653922764
  148      C      -4.0984893414     1.6217537618    -1.9499625489
  149      C      -5.8030008738    -1.9832957388     3.3703104266
  150      C      -1.4748782920     1.0905659329    -0.9230883832
  151      C      -3.7104101766    -1.8086166880    -2.5459039376
  152      C      -1.5872086344    -0.5442226993     3.2444868137
  153      C      -2.0406641199     0.7833419046     3.0729078372
  154      C      -2.3858369273    -2.1057022369    -2.2179224078
  155      C      -5.4604602460     1.5275785228     2.7492872082
  156      C      -4.4210670301     2.4793003293     0.2894790153
  157      C      -4.1701895041     0.1418668323     3.9724840539
  158      C      -7.1983108693     0.4035279524    -0.1207546951
  159      C      -3.7475206414    -3.7107698568    -1.2913170988
  160      C      -3.6027971051     2.2531558664    -0.8156585380
  161      C      -1.4927011358    -1.0027980255    -1.9331773317
  162      C      -6.2900214753    -0.7155822948     3.2842897439
  163      C      -1.6480508111    -3.2627577749    -0.2123803044
  164      C      -6.3420312175    -2.7552798930     2.3083354955
  165      C      -1.6497968196    -3.1005777454     2.0391612985
  166      C      -4.5520318817    -2.8200231344    -2.0365083096
  167      C      -2.4248369502    -3.2211022210    -1.3803533815
  168      C      -7.0598213325    -0.8706315070    -0.6740324918
  169      C      -7.0891571376     0.4859369974     1.2782918417
  170      C      -2.3641115272    -1.5750234461     3.8266927187
  171      C      -4.2783623855    -4.2316909168    -0.0872899845
  172      C      -0.7421534636     0.2121525432    -0.1023154288
  173      C      -3.3412226109     1.0991828326     3.4330371467
  174      C      -0.7393350766    -0.7941388221     2.1434153531
  175      C      -7.1084372128    -0.6941939941     2.1049054888
  176      C      -4.5208178914    -2.3206146669     3.8029358309
 ----------------------------------------------------------------

    9   -5804.2449484216      7.83E-06 Convergence criterion met
 Total energy in the final basis set = -5804.2449484216

                    Orbital Energies (a.u.)
 --------------------------------------------------------------

 Alpha MOs
 -- Occupied --
-19.193 -19.187 -19.142 -19.131 -10.318 -10.309 -10.251 -10.242
-10.239 -10.234 -10.233 -10.231 -10.230 -10.228 -10.227 -10.226
-10.224 -10.223 -10.222 -10.222 -10.221 -10.220 -10.220 -10.220
-10.219 -10.219 -10.219 -10.219 -10.219 -10.218 -10.218 -10.218
-10.218 -10.218 -10.218 -10.217 -10.217 -10.216 -10.216 -10.216
-10.216 -10.216 -10.216 -10.216 -10.216 -10.215 -10.215 -10.215
-10.214 -10.214 -10.214 -10.214 -10.214 -10.214 -10.214 -10.214
-10.213 -10.213 -10.213 -10.213 -10.213 -10.213 -10.213 -10.213
-10.212 -10.212 -10.212 -10.212 -10.212 -10.212 -10.212 -10.212
-10.211 -10.211 -10.211 -10.211 -10.211 -10.211 -10.211 -10.211
-10.211 -10.210 -10.210 -10.210 -10.210 -10.210 -10.210 -10.209
-10.209 -10.209 -10.209 -10.209 -10.209 -10.209 -10.209 -10.208
-10.208 -10.208 -10.208 -10.208 -10.208 -10.208 -10.208 -10.208
-10.208 -10.207 -10.207 -10.207 -10.207 -10.207 -10.207 -10.207
-10.207 -10.207 -10.206 -10.206 -10.206 -10.206 -10.206 -10.205
-10.205 -10.205 -10.205 -10.204 -10.204 -10.204 -10.203 -10.203
-10.203 -10.201 -10.200 -10.200 -10.200 -10.198 -10.198 -10.198
-10.197 -10.197 -10.196 -10.195 -10.195 -10.195 -10.194 -10.193
-10.190 -10.190 -10.188 -10.187  -1.097  -1.091  -1.020  -1.015
 -0.984  -0.978  -0.968  -0.963  -0.960  -0.960  -0.959  -0.956
 -0.932  -0.931  -0.928  -0.926  -0.925  -0.924  -0.920  -0.919
 -0.917  -0.916  -0.897  -0.895  -0.889  -0.885  -0.882  -0.880
 -0.876  -0.873  -0.858  -0.849  -0.844  -0.839  -0.839  -0.838
 -0.834  -0.832  -0.822  -0.815  -0.808  -0.801  -0.798  -0.797
 -0.796  -0.793  -0.791  -0.791  -0.790  -0.785  -0.784  -0.780
 -0.770  -0.769  -0.769  -0.767  -0.765  -0.762  -0.760  -0.758
 -0.752  -0.747  -0.744  -0.744  -0.732  -0.731  -0.718  -0.714
 -0.713  -0.712  -0.711  -0.711  -0.710  -0.708  -0.707  -0.706
 -0.704  -0.704  -0.702  -0.702  -0.701  -0.700  -0.674  -0.670
 -0.659  -0.658  -0.654  -0.651  -0.645  -0.643  -0.630  -0.629
 -0.626  -0.625  -0.621  -0.621  -0.620  -0.619  -0.617  -0.615
 -0.613  -0.612  -0.611  -0.611  -0.610  -0.609  -0.605  -0.605
 -0.603  -0.602  -0.602  -0.598  -0.564  -0.563  -0.562  -0.560
 -0.560  -0.557  -0.555  -0.554  -0.553  -0.553  -0.551  -0.550
 -0.536  -0.535  -0.530  -0.529  -0.528  -0.525  -0.524  -0.523
 -0.522  -0.519  -0.517  -0.516  -0.514  -0.511  -0.511  -0.508
 -0.505  -0.503  -0.503  -0.496  -0.495  -0.494  -0.486  -0.485
 -0.483  -0.480  -0.480  -0.478  -0.478  -0.477  -0.474  -0.473
 -0.472  -0.469  -0.468  -0.468  -0.467  -0.466  -0.465  -0.464
 -0.464  -0.463  -0.462  -0.461  -0.460  -0.458  -0.457  -0.456
 -0.455  -0.452  -0.451  -0.449  -0.448  -0.446  -0.443  -0.442
 -0.442  -0.439  -0.438  -0.436  -0.436  -0.433  -0.432  -0.430
 -0.429  -0.429  -0.428  -0.425  -0.425  -0.424  -0.422  -0.422
 -0.421  -0.420  -0.420  -0.419  -0.418  -0.418  -0.417  -0.417
 -0.416  -0.415  -0.414  -0.414  -0.413  -0.412  -0.411  -0.411
 -0.409  -0.407  -0.406  -0.405  -0.399  -0.398  -0.396  -0.393
 -0.393  -0.391  -0.389  -0.387  -0.386  -0.386  -0.382  -0.381
 -0.379  -0.378  -0.372  -0.371  -0.369  -0.366  -0.366  -0.364
 -0.363  -0.362  -0.360  -0.358  -0.358  -0.357  -0.356  -0.356
 -0.354  -0.353  -0.352  -0.351  -0.350  -0.348  -0.348  -0.348
 -0.346  -0.345  -0.345  -0.344  -0.343  -0.342  -0.341  -0.340
 -0.338  -0.338  -0.336  -0.335  -0.335  -0.334  -0.333  -0.332
 -0.331  -0.330  -0.329  -0.326  -0.323  -0.322  -0.320  -0.317
 -0.312  -0.307  -0.301  -0.294  -0.284  -0.281  -0.275  -0.272
 -0.269  -0.268  -0.266  -0.265  -0.264  -0.263  -0.263  -0.262
 -0.261  -0.258  -0.257  -0.256  -0.254  -0.252  -0.251  -0.250
 -0.247  -0.245  -0.242  -0.241  -0.219  -0.218  -0.212  -0.210
 -0.208  -0.207  -0.204  -0.200  -0.199  -0.194

          Ground-State Mulliken Net Atomic Charges

     Atom                 Charge (a.u.)
  ----------------------------------------
      1 O                    -0.485317
      2 C                    -0.087484
      3 H                     0.123864
      4 H                     0.139327
      5 H                     0.119905
      6 O                    -0.464214
      7 C                     0.607851
      8 C                    -0.264387
      9 H                     0.137434
     10 H                     0.123282
     11 C                    -0.168814
     12 H                     0.113033
     13 H                     0.123475
     14 C                    -0.179691
     15 H                     0.099363
     16 H                     0.101835
     17 C                     0.002124
     18 C                     0.125497
     19 C                    -0.103908
     20 H                     0.088174
     21 C                    -0.088034
     22 H                     0.089120
     23 C                    -0.094927
     24 H                     0.088028
     25 C                    -0.088932
     26 H                     0.099795
     27 C                    -0.137151
     28 H                     0.092466
     29 C                    -0.025495
     30 C                    -0.048034
     31 C                    -0.011852
     32 C                     0.006044
     33 C                     0.015320
     34 C                     0.029111
     35 C                     0.011398
     36 C                     0.012492
     37 C                     0.035680
     38 C                    -0.017270
     39 C                    -0.087523
     40 C                     0.033112
     41 C                    -0.012982
     42 C                    -0.011307
     43 C                     0.037948
     44 C                    -0.016280
     45 C                    -0.061407
     46 C                    -0.006929
     47 C                    -0.000177
     48 C                     0.020691
     49 C                    -0.022790
     50 C                     0.004138
     51 C                    -0.017848
     52 C                     0.018317
     53 C                     0.006842
     54 C                    -0.010654
     55 C                     0.004671
     56 C                     0.006922
     57 C                    -0.041788
     58 C                     0.003387
     59 C                    -0.003990
     60 C                    -0.028056
     61 C                    -0.023042
     62 C                    -0.012708
     63 C                    -0.029056
     64 C                     0.012142
     65 C                    -0.027560
     66 C                    -0.004478
     67 C                    -0.009229
     68 C                     0.046534
     69 C                    -0.017318
     70 C                    -0.017831
     71 C                     0.021785
     72 C                     0.008281
     73 C                     0.016927
     74 C                    -0.013863
     75 C                    -0.007464
     76 C                     0.044723
     77 C                     0.006017
     78 C                    -0.021320
     79 C                     0.000714
     80 C                     0.030364
     81 C                     0.034725
     82 C                     0.022492
     83 C                     0.019689
     84 C                     0.016382
     85 C                    -0.009620
     86 C                     0.012847
     87 C                    -0.015328
     88 C                    -0.024707
     89 O                    -0.471322
     90 C                    -0.090936
     91 H                     0.129477
     92 H                     0.133315
     93 H                     0.134866
     94 O                    -0.473181
     95 C                     0.603995
     96 C                    -0.266761
     97 H                     0.142686
     98 H                     0.125774
     99 C                    -0.169157
    100 H                     0.134202
    101 H                     0.102025
    102 C                    -0.196273
    103 H                     0.101687
    104 H                     0.105345
    105 C                     0.016505
    106 C                     0.086397
    107 C                    -0.106307
    108 H                     0.129108
    109 C                    -0.108682
    110 H                     0.090326
    111 C                    -0.087302
    112 H                     0.095274
    113 C                    -0.096215
    114 H                     0.087810
    115 C                    -0.103217
    116 H                     0.087839
    117 C                    -0.001146
    118 C                    -0.016149
    119 C                     0.041668
    120 C                    -0.023997
    121 C                     0.003250
    122 C                     0.023239
    123 C                     0.008948
    124 C                    -0.002726
    125 C                     0.034293
    126 C                    -0.015562
    127 C                    -0.091770
    128 C                     0.007812
    129 C                    -0.031215
    130 C                     0.019119
    131 C                     0.001703
    132 C                    -0.005886
    133 C                    -0.056118
    134 C                     0.004177
    135 C                     0.003704
    136 C                    -0.021210
    137 C                    -0.004594
    138 C                     0.000730
    139 C                    -0.000286
    140 C                     0.033722
    141 C                     0.022396
    142 C                    -0.008394
    143 C                     0.036546
    144 C                    -0.013839
    145 C                    -0.007893
    146 C                    -0.024244
    147 C                    -0.012077
    148 C                    -0.016069
    149 C                     0.034107
    150 C                    -0.022675
    151 C                     0.017868
    152 C                     0.015720
    153 C                    -0.025165
    154 C                    -0.024583
    155 C                    -0.021118
    156 C                     0.012702
    157 C                     0.022895
    158 C                     0.005761
    159 C                    -0.004576
    160 C                     0.012986
    161 C                    -0.005154
    162 C                    -0.011477
    163 C                    -0.021117
    164 C                    -0.017550
    165 C                     0.010774
    166 C                    -0.005461
    167 C                    -0.002785
    168 C                     0.022283
    169 C                     0.016837
    170 C                    -0.011087
    171 C                     0.001933
    172 C                     0.006716
    173 C                     0.012923
    174 C                    -0.026058
    175 C                    -0.021532
    176 C                     0.007921
  ----------------------------------------
  Sum of atomic charges =     0.000000

                    Cartesian Multipole Moments
 -----------------------------------------------------------------
    Charge (ESU x 10^10)
                 0.0000
    Dipole Moment (Debye)
         X      -2.2874      Y       0.5558      Z      -2.0455
       Tot       3.1186
    Quadrupole Moments (Debye-Ang)
        XX    -790.1985     XY     -33.9755     YY    -779.4897
        XZ       4.7101     YZ      11.7964     ZZ    -792.0015

 Total job time:  892.83s(wall), 8489.42s(cpu)
        *  Thank you very much for using Q-Chem.  Have a nice day.  *
