 Q-Chem 4.4, Q-Chem, Inc., Pleasanton, CA (2016)
 Q-Chem 4.4.2 for Intel X86 Linux

User input:
--------------------------------------------------------------
$comment
SP
$end

$rem
MEM_STATIC 5000
MEM_TOTAL 20000
JOBTYPE SP
EXCHANGE B3LYP
BASIS 6-31g(d,p)
$end

$molecule
0 1
O         -22.661000     11.965000      5.695000
C         -23.991000     12.348000      5.225000
H         -24.525000     11.542000      4.708000
H         -23.917000     13.124000      4.453000
H         -24.621000     12.703000      6.050000
O         -21.735000     11.805000      3.647000
C         -21.662000     11.702000      4.877000
C         -20.511000     11.064000      5.606000
H         -21.119000     10.320000      6.136000
H         -19.967000     11.673000      6.339000
C         -19.577000     10.403000      4.569000
H         -20.132000      9.749000      3.885000
H         -18.980000     11.137000      4.012000
C         -18.699000      9.368000      5.292000
H         -18.007000      8.978000      4.535000
H         -17.930000      9.826000      5.925000
C         -19.414000      8.119000      5.990000
C         -20.425000      7.506000      5.083000
C         -21.830000      7.389000      5.284000
H         -22.217000      7.731000      6.240000
C         -22.699000      6.658000      4.397000
H         -23.727000      6.482000      4.702000
C         -22.128000      6.121000      3.232000
H         -22.633000      5.545000      2.463000
C         -20.766000      6.329000      2.997000
H         -20.363000      5.897000      2.086000
C         -19.959000      7.034000      3.835000
H         -18.920000      7.138000      3.538000
C         -21.463000      6.140000     10.759000
C         -20.623000      4.183000      9.588000
C         -17.054000      3.312000     12.124000
C         -17.607000      9.564000     10.969000
C         -14.797000      4.685000      9.933000
C         -21.280000      5.444000      9.562000
C         -15.212000      8.083000     11.118000
C         -19.333000      4.130000     12.721000
C         -17.639000      4.930000      7.053000
C         -16.873000      9.255000      9.794000
C         -18.601000      7.140000      6.748000
C         -16.574000      5.890000      7.117000
C         -15.479000      7.863000      8.732000
C         -14.550000      6.829000     11.107000
C         -19.969000      5.216000      7.732000
C         -15.402000      4.790000     12.167000
C         -19.510000      8.104000      7.511000
C         -18.852000      9.016000      8.482000
C         -15.220000      4.012000     11.059000
C         -18.255000      7.233000     13.519000
C         -17.340000      5.200000     13.603000
C         -18.763000      5.114000     13.503000
C         -20.462000      4.307000     12.009000
C         -19.543000      9.090000      9.661000
C         -18.875000      5.643000      6.926000
C         -20.310000      3.572000     10.830000
C         -15.708000      8.562000      9.886000
C         -19.892000      4.035000      8.422000
C         -15.522000      5.612000      7.961000
C         -19.465000      8.720000     12.047000
C         -18.504000      3.116000     12.098000
C         -17.076000      7.185000      7.043000
C         -20.488000      6.671000     12.736000
C         -14.875000      6.627000      8.724000
C         -17.580000      3.780000      7.844000
C         -15.903000      7.063000     12.964000
C         -15.937000      8.339000     12.304000
C         -16.460000      3.490000      8.624000
C         -19.009000      9.317000     10.906000
C         -17.476000      9.042000      8.557000
C         -18.301000      8.444000     12.814000
C         -20.615000      7.502000      8.392000
C         -18.289000      2.679000      9.665000
C         -16.593000      8.191000      7.888000
C         -15.391000      4.385000      8.685000
C         -20.550000      7.871000     12.008000
C         -16.266000      3.069000     10.984000
C         -21.002000      5.611000     11.984000
C         -16.498000      4.332000     12.904000
C         -18.704000      3.314000      8.505000
C         -16.915000      2.795000      9.752000
C         -20.855000      6.091000      8.437000
C         -20.668000      8.201000      9.626000
C         -17.049000      6.569000     13.606000
C         -19.105000      2.812000     10.865000
C         -14.466000      6.045000      9.933000
C         -17.165000      8.990000     12.175000
C         -15.049000      6.153000     12.223000
C         -21.125000      7.503000     10.779000
C         -19.339000      6.379000     13.562000
O          -9.246000     14.286000     10.883000
C         -10.355000     15.157000     11.255000
H          -9.977000     16.164000     11.465000
H         -11.012000     14.757000     12.037000
H         -11.006000     15.201000     10.373000
O          -8.647000     15.341000      8.942000
C          -8.428000     14.573000      9.845000
C          -7.187000     13.672000      9.901000
H          -7.601000     12.672000      9.724000
H          -6.798000     13.778000     10.921000
C          -6.137000     14.036000      8.804000
H          -6.275000     15.035000      8.373000
H          -5.207000     13.975000      9.384000
C          -6.058000     12.905000      7.765000
H          -5.008000     12.734000      7.494000
H          -6.257000     11.906000      8.171000
C          -6.700000     13.164000      6.394000
C          -6.026000     14.295000      5.692000
C          -6.531000     15.591000      5.789000
H          -7.364000     15.748000      6.467000
C          -5.912000     16.614000      5.121000
H          -6.228000     17.647000      5.234000
C          -4.759000     16.421000      4.298000
H          -4.307000     17.164000      3.648000
C          -4.308000     15.082000      4.132000
H          -3.411000     14.833000      3.573000
C          -4.898000     14.037000      4.893000
H          -4.448000     13.050000      4.845000
C         -11.570000     13.934000      3.948000
C         -10.270000     12.932000      2.213000
C         -12.338000      8.923000      2.209000
C         -11.443000     11.047000      8.112000
C          -9.845000      7.324000      4.176000
C         -10.355000     13.721000      3.342000
C         -11.209000      8.395000      7.350000
C         -13.307000     11.194000      2.387000
C          -7.489000     10.485000      3.801000
C         -10.154000     10.390000      8.133000
C          -7.278000     12.020000      5.617000
C          -7.362000      9.713000      4.894000
C          -8.812000      8.882000      7.179000
C         -11.182000      7.595000      6.293000
C          -8.297000     12.710000      3.409000
C         -12.293000      7.653000      4.110000
C          -8.154000     13.037000      6.331000
C          -9.084000     12.486000      7.362000
C         -11.054000      7.446000      3.497000
C         -14.114000     10.786000      5.795000
C         -13.938000      9.448000      3.966000
C         -14.098000     10.777000      3.493000
C         -12.674000     12.426000      2.370000
C         -10.417000     13.053000      7.255000
C          -7.443000     11.869000      4.137000
C         -11.431000     12.258000      1.729000
C         -10.043000      9.108000      7.735000
C          -9.000000     12.264000      2.288000
C          -8.007000      8.424000      4.867000
C         -12.761000     12.499000      6.989000
C         -12.479000     10.243000      1.720000
C          -7.346000     10.513000      6.050000
C         -13.435000     12.807000      4.683000
C          -8.767000      8.023000      6.075000
C          -8.164000     10.051000      2.675000
C         -13.206000      8.608000      6.158000
C         -12.489000      9.042000      7.296000
C          -8.718000      8.772000      2.588000
C         -11.547000     12.404000      7.700000
C          -9.034000     11.092000      7.684000
C         -13.338000     11.259000      6.950000
C          -9.168000     13.799000      5.483000
C         -10.044000     10.227000      1.399000
C          -8.194000     10.152000      7.090000
C          -8.647000      7.920000      3.756000
C         -12.816000     13.284000      5.797000
C         -11.080000      8.266000      2.323000
C         -12.703000     13.219000      3.539000
C         -13.081000      8.526000      3.335000
C          -8.933000     10.943000      1.898000
C          -9.912000      8.904000      1.878000
C          -9.167000     13.595000      4.102000
C         -10.430000     13.851000      6.100000
C         -14.056000      9.444000      5.394000
C         -11.293000     10.891000      1.355000
C          -9.935000      7.387000      5.613000
C         -12.561000     10.376000      7.665000
C         -12.382000      7.639000      5.545000
C         -11.641000     13.962000      5.327000
C         -14.096000     11.582000      4.597000
$end

--------------------------------------------------------------

             Standard Nuclear Orientation (Angstroms)
    I     Atom           X                Y                Z
 ----------------------------------------------------------------
    1      O       5.1171018679     5.7436924584    -4.6079923826
    2      C       5.8858839207     6.8367507061    -5.2001805473
    3      H       6.5428282424     7.3500975575    -4.4881551486
    4      H       5.2171701005     7.6393715603    -5.5352291871
    5      H       6.4977066994     6.4871189932    -6.0410019034
    6      O       3.7850404135     7.0582796995    -3.3530610430
    7      C       4.1599358499     5.9398994592    -3.7238939566
    8      C       3.7401166679     4.6486863965    -3.0759690528
    9      H       4.7580296257     4.3044399009    -2.8536009780
   10      H       3.2354914739     3.9012253714    -3.7010781869
   11      C       2.9549235075     4.9768713276    -1.7873991665
   12      H       3.5051893516     5.6771759018    -1.1467916390
   13      H       1.9422975847     5.3472592802    -1.9943182449
   14      C       2.9450725577     3.7281837476    -0.8898913468
   15      H       2.3199651296     3.9832985630    -0.0249230617
   16      H       2.2945135854     2.9321281676    -1.2705257346
   17      C       4.3415722250     3.1772550208    -0.3378983963
   18      C       5.1784594333     4.2860868765     0.2012219208
   19      C       6.4552031821     4.7244051228    -0.2525594305
   20      H       6.9139483777     4.1484890197    -1.0516479661
   21      C       7.2367941059     5.7258063732     0.4275892029
   22      H       8.2631183146     5.8903437090     0.1107752454
   23      C       6.6523567812     6.3563247921     1.5377759155
   24      H       7.0979844105     7.1243892869     2.1619993914
   25      C       5.3575763943     5.9867295861     1.9125773744
   26      H       4.9421186675     6.4968866588     2.7763416006
   27      C       4.6239365268     5.0501325502     1.2529740564
   28      H       3.6249249898     4.8579987188     1.6319285915
   29      C       8.4611193760    -0.4451349661    -1.2130127046
   30      C       8.3209430197    -0.2409844561     1.2047058809
   31      C       6.5849205523    -4.2414896851     2.1585831819
   32      C       3.7369529279    -1.6299100439    -2.9204000025
   33      C       3.3892898784    -3.0731346330     2.6086388099
   34      C       8.2613499595     0.3544278601    -0.0854021924
   35      C       2.5055879281    -3.1681447373    -0.9031837857
   36      C       8.2670032630    -3.5449905720     0.4542179805
   37      C       4.7121801047     0.7583054651     2.5709927749
   38      C       2.9077172935    -1.0150157046    -1.9461642947
   39      C       4.3699784796     1.9400232421     0.4759963207
   40      C       3.4025507028     0.4290150826     2.0848244155
   41      C       2.0792187793    -1.0332729339     0.1327779568
   42      C       2.5461347754    -3.7323293846     0.3971748713
   43      C       6.7123407324     1.2911385400     1.2720765429
   44      C       4.5410022484    -4.7060756813     1.4360910925
   45      C       4.9058991034     1.9032912649    -0.9555014428
   46      C       4.2395567119     0.9644961101    -1.8947567194
   47      C       4.4086058901    -4.0008338958     2.5984925844
   48      C       6.1693294486    -4.0473281786    -2.1486493802
   49      C       6.3975573010    -4.9781823551    -0.1340048583
   50      C       7.5799447008    -4.2648546786    -0.5020383659
   51      C       8.8908765205    -2.3789266546     0.2012533604
   52      C       5.1451352739     0.2754152020    -2.6550809727
   53      C       5.3560415867     1.5842615731     1.5935302950
   54      C       8.7406723075    -1.5893516242     1.3446605345
   55      C       2.3019907440    -1.7741550068    -0.9960375311
   56      C       7.4212769932     0.4025853744     2.0367154446
   57      C       2.9311721681    -0.8381822709     2.3462381567
   58      C       6.0048802805    -1.9022948050    -3.2503940408
   59      C       7.8645757935    -3.6038276386     1.8463948125
   60      C       3.1840671042     1.0029844381     0.8368944912
   61      C       8.0288333594    -2.4800614198    -2.1148542251
   62      C       2.1600668324    -1.5698099633     1.3969644970
   63      C       5.4531249139    -0.2025950692     3.2633315309
   64      C       4.1354409183    -4.6720053971    -0.9902432256
   65      C       3.3557909466    -3.8081791516    -1.8333814937
   66      C       4.9112023137    -1.4479612830     3.5831484926
   67      C       4.9893880665    -0.9931723819    -3.1582095341
   68      C       3.1162892846     0.2810183984    -1.4814704940
   69      C       5.4160045375    -3.1533410370    -2.9225683480
   70      C       6.3771627655     1.5122116258    -1.1605135215
   71      C       7.1280634933    -1.6943411539     3.2492825472
   72      C       2.5782012342     0.2729537871    -0.1923439633
   73      C       3.6279071034    -1.7906415362     3.1550940017
   74      C       7.2866461039    -1.5613383894    -2.8757313973
   75      C       5.6911139839    -3.6669544345     3.0808695063
   76      C       8.7148958595    -1.8280932790    -1.0864789096
   77      C       5.8918432077    -4.9454269406     1.1675977457
   78      C       6.8069271818    -0.3653159560     3.0220965160
   79      C       5.9678819828    -2.3676642070     3.5802144567
   80      C       7.2529293442     1.2746887231    -0.0527401827
   81      C       6.4799570848     0.6223464826    -2.2613038534
   82      C       5.5145823143    -4.8144295260    -1.2074997040
   83      C       8.1155617088    -2.3319912966     2.3880075796
   84      C       2.4766224725    -2.9269005891     1.5575370972
   85      C       4.0215914905    -2.9976380572    -2.7543368509
   86      C       3.6263861245    -4.6175579483     0.3678420781
   87      C       7.5475555911    -0.3187046310    -2.2721772721
   88      C       7.4783985852    -3.7787691527    -1.8016118529
   89      O      -5.4055300623    -4.3200885471    -4.0989352782
   90      C      -4.7838554504    -3.9484914539    -5.3647718700
   91      H      -5.5032177668    -4.0819764953    -6.1806962547
   92      H      -3.8081395743    -4.4132740965    -5.5521981871
   93      H      -4.5450038997    -2.8814087919    -5.2756341715
   94      O      -7.0058484007    -2.6847690091    -4.0355458128
   95      C      -6.5413190654    -3.7317839196    -3.6598248074
   96      C      -7.1231878204    -4.5396353616    -2.4919965668
   97      H      -6.3670603766    -4.4168045359    -1.7071979448
   98      H      -7.1731810503    -5.5743879565    -2.8521975447
   99      C      -8.5050441199    -3.9888343807    -2.0171319052
  100      H      -8.9966557965    -3.3360659512    -2.7485806983
  101      H      -9.0608857744    -4.9252646933    -1.8787146923
  102      C      -8.3647714202    -3.3734173472    -0.6148093872
  103      H      -9.2353224983    -3.6529460512    -0.0072021751
  104      H      -7.6031370784    -3.8516753305     0.0125823809
  105      C      -8.3881879194    -1.8410267071    -0.5142281073
  106      C      -9.6966311429    -1.2937573829    -0.9776001151
  107      C      -9.8593591818    -0.8659651170    -2.2946283466
  108      H      -9.0332184012    -1.0396254248    -2.9769446282
  109      C     -11.0609609198    -0.3466580683    -2.6976016116
  110      H     -11.2507906490    -0.0757692943    -3.7321536625
  111      C     -12.1796103862    -0.2007489544    -1.8193528416
  112      H     -13.1061403924     0.3177508233    -2.0464059807
  113      C     -11.9738180168    -0.5537907057    -0.4566756889
  114      H     -12.7720488589    -0.5320459162     0.2791542419
  115      C     -10.7565465993    -1.1714097625    -0.0616529086
  116      H     -10.6784155984    -1.5492376868     0.9532927088
  117      C      -5.5035953975     2.6500075899    -1.8567827341
  118      C      -6.6495882487     3.3409245299     0.1214900396
  119      C      -3.0598250305     3.4089185655     2.8523686252
  120      C      -2.9413793226    -1.6348502928    -0.9822338729
  121      C      -3.7450208007     0.2296167946     4.2888525289
  122      C      -6.5957486588     2.5759224735    -1.0257937754
  123      C      -2.1263763007    -1.6606212311     1.6641995635
  124      C      -3.2731220985     4.1897612069     0.5129509347
  125      C      -7.2925034174     0.1736034953     2.5294459258
  126      C      -3.6886052576    -2.3810572145     0.0069272020
  127      C      -7.6176982843    -1.1567260550     0.5741777636
  128      C      -6.6905070726    -0.9967132419     2.8027975958
  129      C      -4.3857116669    -2.4943228740     2.1250295472
  130      C      -2.1045838078    -0.9339132267     2.7729820325
  131      C      -7.7960928331     1.3638896745     0.5078699287
  132      C      -1.9019711079     1.4690960687     3.2061891654
  133      C      -7.1493220609    -1.1545400999    -0.8722246476
  134      C      -5.7991976456    -1.7435183283    -1.1206813029
  135      C      -3.0189368649     1.3914775532     4.0429100649
  136      C      -1.3444988390     1.5222430234    -0.7507484220
  137      C      -1.4351675426     2.7311474565     1.1719554704
  138      C      -2.0770704035     3.5021145737     0.1673956556
  139      C      -4.3799441818     4.1857581541    -0.3199541327
  140      C      -5.0003884588    -0.9226529594    -2.0139399044
  141      C      -7.8758384486     0.1640548560     1.2294085937
  142      C      -5.5273550706     4.1390189927     0.4957772588
  143      C      -3.3021973621    -2.3669409883     1.2971747250
  144      C      -7.3589985866     2.5542811854     1.0924062157
  145      C      -5.5608087273    -0.9616697159     3.6976878684
  146      C      -2.8906059992     0.2499969826    -2.2277577859
  147      C      -3.7181906998     4.1831282613     1.8682162018
  148      C      -6.7166365009    -1.8284749385     1.6696242935
  149      C      -3.2045937880     2.6154939702    -1.8122921790
  150      C      -4.3657823458    -1.7480301400     3.3088251281
  151      C      -6.8857136329     1.3582262607     3.1151489007
  152      C      -0.9545910650     0.3218853700     1.2758325489
  153      C      -1.3922408386    -0.8921631202     0.6996052160
  154      C      -5.8546158081     1.4060037718     4.0558298164
  155      C      -3.6234544987    -0.9358979283    -2.0157947305
  156      C      -5.0834816448    -2.3482669372    -0.0383459915
  157      C      -1.8437999478     0.2752352451    -1.3470704856
  158      C      -6.9382045936     0.2043623649    -1.5331009645
  159      C      -5.8194035517     3.3521635228     2.8309852055
  160      C      -5.5206725819    -2.4210244139     1.2828680086
  161      C      -5.1452364297     0.1788543275     4.3491796734
  162      C      -3.5892064313     1.4760213299    -2.4489720174
  163      C      -3.7522555251     2.5964187627     3.7944902100
  164      C      -4.3615886409     3.3616559032    -1.4674599297
  165      C      -1.9064738879     2.6865703472     2.4980690440
  166      C      -6.9154494410     2.5729488855     2.3979887188
  167      C      -5.1553489515     2.5900242891     3.8185930611
  168      C      -7.2771734034     1.3527285202    -0.8153730777
  169      C      -5.7281054679     0.2551773014    -2.2466238779
  170      C      -0.8871080398     1.5499220475     0.5740747845
  171      C      -5.1156831252     4.1016203896     1.8583984659
  172      C      -3.2487365745    -0.9574867775     3.6396029035
  173      C      -1.8443833707    -0.8875832123    -0.6105272792
  174      C      -1.3709199210     0.2664842857     2.6239078448
  175      C      -5.0247460800     1.4967707468    -2.4468794337
  176      C      -2.1103534767     2.7227266711    -0.9543403803
 ----------------------------------------------------------------

    9   -5804.2724063961      7.56E-06 Convergence criterion met
 Total energy in the final basis set = -5804.2724063961

                    Orbital Energies (a.u.)
 --------------------------------------------------------------

 Alpha MOs
 -- Occupied --
-19.194 -19.193 -19.142 -19.122 -10.319 -10.309 -10.252 -10.249
-10.242 -10.242 -10.240 -10.240 -10.235 -10.232 -10.230 -10.228
-10.228 -10.227 -10.227 -10.225 -10.225 -10.223 -10.223 -10.222
-10.222 -10.221 -10.220 -10.220 -10.220 -10.220 -10.220 -10.219
-10.219 -10.219 -10.219 -10.219 -10.219 -10.218 -10.217 -10.217
-10.217 -10.217 -10.216 -10.216 -10.216 -10.216 -10.216 -10.216
-10.216 -10.216 -10.216 -10.216 -10.215 -10.215 -10.215 -10.215
-10.215 -10.215 -10.215 -10.215 -10.215 -10.215 -10.214 -10.214
-10.214 -10.214 -10.214 -10.214 -10.214 -10.214 -10.214 -10.213
-10.213 -10.213 -10.213 -10.213 -10.213 -10.213 -10.213 -10.213
-10.212 -10.212 -10.212 -10.212 -10.212 -10.212 -10.212 -10.212
-10.212 -10.211 -10.211 -10.211 -10.211 -10.211 -10.211 -10.210
-10.210 -10.210 -10.210 -10.210 -10.210 -10.210 -10.210 -10.210
-10.210 -10.210 -10.209 -10.209 -10.209 -10.209 -10.208 -10.208
-10.208 -10.208 -10.208 -10.208 -10.208 -10.207 -10.207 -10.207
-10.207 -10.206 -10.206 -10.206 -10.205 -10.205 -10.204 -10.204
-10.203 -10.203 -10.203 -10.202 -10.202 -10.201 -10.201 -10.201
-10.199 -10.199 -10.199 -10.198 -10.197 -10.196 -10.196 -10.196
-10.192 -10.191 -10.189 -10.189  -1.098  -1.097  -1.021  -0.994
 -0.982  -0.979  -0.964  -0.963  -0.962  -0.960  -0.960  -0.958
 -0.933  -0.931  -0.928  -0.927  -0.924  -0.922  -0.922  -0.921
 -0.919  -0.917  -0.897  -0.896  -0.888  -0.887  -0.883  -0.882
 -0.874  -0.871  -0.851  -0.850  -0.843  -0.841  -0.840  -0.835
 -0.833  -0.833  -0.819  -0.817  -0.803  -0.802  -0.798  -0.797
 -0.796  -0.793  -0.793  -0.791  -0.789  -0.786  -0.784  -0.781
 -0.772  -0.770  -0.769  -0.767  -0.763  -0.762  -0.761  -0.760
 -0.748  -0.746  -0.746  -0.745  -0.733  -0.732  -0.716  -0.714
 -0.714  -0.713  -0.712  -0.712  -0.711  -0.708  -0.708  -0.706
 -0.705  -0.704  -0.704  -0.703  -0.701  -0.701  -0.672  -0.671
 -0.659  -0.655  -0.654  -0.653  -0.648  -0.646  -0.630  -0.630
 -0.628  -0.626  -0.623  -0.621  -0.621  -0.620  -0.616  -0.615
 -0.615  -0.613  -0.612  -0.611  -0.609  -0.608  -0.607  -0.604
 -0.603  -0.603  -0.601  -0.600  -0.566  -0.565  -0.564  -0.561
 -0.559  -0.558  -0.558  -0.555  -0.554  -0.553  -0.552  -0.548
 -0.537  -0.534  -0.532  -0.530  -0.527  -0.527  -0.526  -0.525
 -0.523  -0.520  -0.519  -0.518  -0.513  -0.513  -0.512  -0.510
 -0.504  -0.502  -0.500  -0.498  -0.495  -0.492  -0.486  -0.485
 -0.483  -0.482  -0.480  -0.480  -0.479  -0.478  -0.476  -0.474
 -0.474  -0.470  -0.470  -0.469  -0.468  -0.466  -0.465  -0.464
 -0.463  -0.463  -0.461  -0.460  -0.459  -0.459  -0.457  -0.457
 -0.454  -0.453  -0.452  -0.450  -0.449  -0.444  -0.443  -0.442
 -0.441  -0.441  -0.438  -0.437  -0.437  -0.435  -0.431  -0.430
 -0.429  -0.428  -0.427  -0.426  -0.426  -0.425  -0.422  -0.422
 -0.421  -0.421  -0.420  -0.420  -0.419  -0.418  -0.417  -0.416
 -0.416  -0.415  -0.414  -0.414  -0.413  -0.411  -0.411  -0.411
 -0.410  -0.408  -0.407  -0.405  -0.400  -0.400  -0.398  -0.394
 -0.394  -0.392  -0.390  -0.389  -0.387  -0.384  -0.383  -0.380
 -0.380  -0.379  -0.372  -0.370  -0.367  -0.366  -0.365  -0.363
 -0.363  -0.361  -0.360  -0.359  -0.359  -0.358  -0.356  -0.356
 -0.354  -0.354  -0.352  -0.352  -0.351  -0.350  -0.349  -0.348
 -0.347  -0.346  -0.346  -0.345  -0.345  -0.344  -0.342  -0.342
 -0.341  -0.339  -0.339  -0.338  -0.336  -0.336  -0.334  -0.332
 -0.331  -0.329  -0.328  -0.327  -0.325  -0.323  -0.322  -0.320
 -0.313  -0.308  -0.302  -0.293  -0.285  -0.282  -0.276  -0.271
 -0.269  -0.268  -0.267  -0.267  -0.265  -0.264  -0.262  -0.261
 -0.260  -0.259  -0.258  -0.255  -0.254  -0.254  -0.252  -0.251
 -0.248  -0.246  -0.243  -0.242  -0.221  -0.217  -0.213  -0.211
 -0.207  -0.207  -0.206  -0.203  -0.203  -0.198

          Ground-State Mulliken Net Atomic Charges

     Atom                 Charge (a.u.)
  ----------------------------------------
      1 O                    -0.454295
      2 C                    -0.093103
      3 H                     0.130571
      4 H                     0.137724
      5 H                     0.128095
      6 O                    -0.494168
      7 C                     0.603275
      8 C                    -0.269762
      9 H                     0.139872
     10 H                     0.134388
     11 C                    -0.165028
     12 H                     0.131643
     13 H                     0.118113
     14 C                    -0.213298
     15 H                     0.104154
     16 H                     0.102059
     17 C                     0.019465
     18 C                     0.085777
     19 C                    -0.135012
     20 H                     0.087666
     21 C                    -0.092730
     22 H                     0.097337
     23 C                    -0.077262
     24 H                     0.090844
     25 C                    -0.082682
     26 H                     0.086918
     27 C                    -0.094484
     28 H                     0.090336
     29 C                    -0.010441
     30 C                     0.000465
     31 C                    -0.009520
     32 C                    -0.053530
     33 C                     0.013858
     34 C                    -0.011092
     35 C                    -0.002725
     36 C                     0.018786
     37 C                    -0.021316
     38 C                    -0.004475
     39 C                    -0.083059
     40 C                     0.027530
     41 C                    -0.001350
     42 C                    -0.025197
     43 C                     0.017622
     44 C                     0.022075
     45 C                    -0.082165
     46 C                     0.054820
     47 C                    -0.005069
     48 C                     0.018039
     49 C                    -0.024635
     50 C                     0.016130
     51 C                     0.008488
     52 C                     0.031876
     53 C                     0.027493
     54 C                    -0.003491
     55 C                     0.033397
     56 C                     0.002999
     57 C                    -0.007110
     58 C                     0.030602
     59 C                    -0.022387
     60 C                     0.025557
     61 C                    -0.012528
     62 C                    -0.014407
     63 C                     0.014578
     64 C                    -0.010976
     65 C                    -0.026164
     66 C                     0.001618
     67 C                    -0.005991
     68 C                     0.012529
     69 C                    -0.002495
     70 C                    -0.013548
     71 C                     0.009222
     72 C                    -0.021750
     73 C                    -0.013303
     74 C                    -0.017399
     75 C                    -0.006485
     76 C                     0.006604
     77 C                     0.004276
     78 C                    -0.004076
     79 C                    -0.001748
     80 C                     0.020072
     81 C                    -0.025364
     82 C                     0.009355
     83 C                    -0.019847
     84 C                     0.011926
     85 C                     0.021002
     86 C                     0.007940
     87 C                     0.004801
     88 C                    -0.026317
     89 O                    -0.471477
     90 C                    -0.090716
     91 H                     0.129557
     92 H                     0.133607
     93 H                     0.134449
     94 O                    -0.473174
     95 C                     0.604163
     96 C                    -0.267022
     97 H                     0.142463
     98 H                     0.126109
     99 C                    -0.169437
    100 H                     0.134393
    101 H                     0.102332
    102 C                    -0.195689
    103 H                     0.101985
    104 H                     0.105151
    105 C                     0.014864
    106 C                     0.086271
    107 C                    -0.106093
    108 H                     0.128993
    109 C                    -0.108889
    110 H                     0.090586
    111 C                    -0.086767
    112 H                     0.095663
    113 C                    -0.096533
    114 H                     0.088273
    115 C                    -0.102991
    116 H                     0.087873
    117 C                    -0.000747
    118 C                    -0.015949
    119 C                    -0.001898
    120 C                    -0.023342
    121 C                     0.001559
    122 C                     0.024388
    123 C                     0.014407
    124 C                    -0.002198
    125 C                     0.035311
    126 C                    -0.014727
    127 C                    -0.091062
    128 C                     0.008054
    129 C                    -0.029690
    130 C                     0.015396
    131 C                     0.002418
    132 C                     0.001169
    133 C                    -0.055359
    134 C                     0.003543
    135 C                     0.010744
    136 C                    -0.027162
    137 C                    -0.007328
    138 C                    -0.003472
    139 C                     0.001384
    140 C                     0.034441
    141 C                     0.022345
    142 C                    -0.007539
    143 C                     0.037136
    144 C                    -0.012642
    145 C                    -0.005387
    146 C                    -0.023574
    147 C                    -0.007501
    148 C                    -0.016248
    149 C                     0.034628
    150 C                    -0.027720
    151 C                     0.018687
    152 C                     0.020756
    153 C                    -0.021534
    154 C                    -0.023948
    155 C                    -0.020681
    156 C                     0.012659
    157 C                     0.022757
    158 C                     0.005097
    159 C                     0.000227
    160 C                     0.012831
    161 C                    -0.001077
    162 C                    -0.011559
    163 C                    -0.009848
    164 C                    -0.017419
    165 C                     0.009607
    166 C                    -0.005583
    167 C                    -0.001789
    168 C                     0.023165
    169 C                     0.017927
    170 C                    -0.010594
    171 C                     0.006578
    172 C                     0.001461
    173 C                     0.012199
    174 C                    -0.035799
    175 C                    -0.021997
    176 C                     0.006447
  ----------------------------------------
  Sum of atomic charges =     0.000000

                    Cartesian Multipole Moments
 -----------------------------------------------------------------
    Charge (ESU x 10^10)
                 0.0000
    Dipole Moment (Debye)
         X      -1.5682      Y      -1.3263      Z      -2.1986
       Tot       3.0086
    Quadrupole Moments (Debye-Ang)
        XX    -769.0417     XY      39.7182     YY    -805.8739
        XZ      -5.6707     YZ       8.4684     ZZ    -789.4646

 Total job time:  846.35s(wall), 8129.75s(cpu)
        *  Thank you very much for using Q-Chem.  Have a nice day.  *
