 Q-Chem 4.4, Q-Chem, Inc., Pleasanton, CA (2016)
 Q-Chem 4.4.2 for Intel X86 Linux

User input:
--------------------------------------------------------------
$comment
SP
$end

$rem
MEM_STATIC 5000
MEM_TOTAL 20000
JOBTYPE SP
EXCHANGE B3LYP
BASIS 6-31g(d,p)
$end

$molecule
0 1
O         -12.289000      3.523000     -2.592000
C         -10.869000      3.289000     -2.868000
H         -10.470000      2.576000     -2.136000
H         -10.287000      4.218000     -2.850000
H         -10.806000      2.879000     -3.884000
O         -12.826000      1.274000     -2.577000
C         -13.122000      2.441000     -2.446000
C         -14.543000      2.865000     -2.264000
H         -15.225000      2.006000     -2.249000
H         -14.877000      3.457000     -3.126000
C         -14.787000      3.702000     -1.087000
H         -14.415000      3.221000     -0.174000
H         -14.266000      4.654000     -1.248000
C         -16.306000      3.901000     -0.865000
H         -16.854000      3.991000     -1.811000
H         -16.737000      2.999000     -0.414000
C         -16.560000      5.148000     -0.026000
C         -16.254000      4.886000      1.442000
C         -17.189000      4.143000      2.238000
H         -18.185000      3.907000      1.875000
C         -16.897000      3.887000      3.582000
H         -17.572000      3.297000      4.194000
C         -15.690000      4.273000      4.148000
H         -15.510000      4.032000      5.192000
C         -14.781000      5.030000      3.415000
H         -13.907000      5.524000      3.828000
C         -15.022000      5.254000      2.001000
H         -14.284000      5.785000      1.408000
C         -19.733000      9.584000      0.955000
C         -17.470000     10.363000      1.261000
C         -17.410000     12.954000     -2.519000
C         -20.286000      7.236000     -3.507000
C         -15.676000     10.489000     -4.305000
C         -18.426000      9.360000      1.389000
C         -18.495000      8.544000     -5.313000
C         -19.191000     12.543000     -0.883000
C         -14.978000      8.468000     -1.001000
C         -18.994000      6.748000     -3.777000
C         -16.328000      6.508000     -0.691000
C         -15.046000      7.782000     -2.194000
C         -16.824000      7.180000     -4.310000
C         -17.576000      9.583000     -5.431000
C         -16.374000      8.462000      0.866000
C         -17.614000     11.889000     -4.496000
C         -17.696000      6.103000     -0.362000
C         -18.663000      6.092000     -1.469000
C         -16.271000     11.731000     -4.078000
C         -21.152000     10.581000     -3.017000
C         -19.686000     12.345000     -3.237000
C         -20.075000     12.284000     -1.910000
C         -19.213000     11.765000      0.283000
C         -19.856000      6.652000     -1.148000
C         -15.656000      7.742000     -0.039000
C         -17.911000     11.554000      0.647000
C         -18.135000      7.378000     -4.657000
C         -16.185000      9.843000      1.023000
C         -14.960000      8.558000     -3.388000
C         -21.377000      8.455000     -1.881000
C         -17.846000     12.878000     -1.157000
C         -15.901000      6.628000     -2.144000
C         -21.037000     10.473000     -0.573000
C         -15.894000      8.256000     -4.416000
C         -14.779000      9.856000     -0.943000
C         -19.576000     10.464000     -4.828000
C         -19.749000      9.062000     -4.943000
C         -14.707000     10.611000     -2.086000
C         -20.665000      7.231000     -2.136000
C         -18.182000      6.186000     -2.766000
C         -21.348000      9.190000     -3.106000
C         -18.402000      7.061000      0.571000
C         -15.775000     11.795000     -0.554000
C         -16.844000      6.407000     -3.129000
C         -14.810000      9.957000     -3.306000
C         -21.179000      9.109000     -0.683000
C         -16.152000     12.433000     -2.844000
C         -20.194000     10.800000      0.488000
C         -18.321000     12.691000     -3.539000
C         -15.364000     10.582000      0.088000
C         -15.367000     11.829000     -1.881000
C         -17.729000      8.156000      1.210000
C         -19.679000      7.321000      0.016000
C         -20.305000     11.269000     -3.894000
C         -17.038000     12.292000     -0.190000
C         -16.256000      9.438000     -4.979000
C         -20.719000      8.471000     -4.081000
C         -18.247000     10.807000     -5.180000
C         -20.343000      8.560000      0.257000
C         -21.004000     11.222000     -1.815000
O          -9.246000     14.286000     10.883000
C         -10.355000     15.157000     11.255000
H          -9.977000     16.164000     11.465000
H         -11.012000     14.757000     12.037000
H         -11.006000     15.201000     10.373000
O          -8.647000     15.341000      8.942000
C          -8.428000     14.573000      9.845000
C          -7.187000     13.672000      9.901000
H          -7.601000     12.672000      9.724000
H          -6.798000     13.778000     10.921000
C          -6.137000     14.036000      8.804000
H          -6.275000     15.035000      8.373000
H          -5.207000     13.975000      9.384000
C          -6.058000     12.905000      7.765000
H          -5.008000     12.734000      7.494000
H          -6.257000     11.906000      8.171000
C          -6.700000     13.164000      6.394000
C          -6.026000     14.295000      5.692000
C          -6.531000     15.591000      5.789000
H          -7.364000     15.748000      6.467000
C          -5.912000     16.614000      5.121000
H          -6.228000     17.647000      5.234000
C          -4.759000     16.421000      4.298000
H          -4.307000     17.164000      3.648000
C          -4.308000     15.082000      4.132000
H          -3.411000     14.833000      3.573000
C          -4.898000     14.037000      4.893000
H          -4.448000     13.050000      4.845000
C         -11.570000     13.934000      3.948000
C         -10.270000     12.932000      2.213000
C         -12.338000      8.923000      2.209000
C         -11.443000     11.047000      8.112000
C          -9.845000      7.324000      4.176000
C         -10.355000     13.721000      3.342000
C         -11.209000      8.395000      7.350000
C         -13.307000     11.194000      2.387000
C          -7.489000     10.485000      3.801000
C         -10.154000     10.390000      8.133000
C          -7.278000     12.020000      5.617000
C          -7.362000      9.713000      4.894000
C          -8.812000      8.882000      7.179000
C         -11.182000      7.595000      6.293000
C          -8.297000     12.710000      3.409000
C         -12.293000      7.653000      4.110000
C          -8.154000     13.037000      6.331000
C          -9.084000     12.486000      7.362000
C         -11.054000      7.446000      3.497000
C         -14.114000     10.786000      5.795000
C         -13.938000      9.448000      3.966000
C         -14.098000     10.777000      3.493000
C         -12.674000     12.426000      2.370000
C         -10.417000     13.053000      7.255000
C          -7.443000     11.869000      4.137000
C         -11.431000     12.258000      1.729000
C         -10.043000      9.108000      7.735000
C          -9.000000     12.264000      2.288000
C          -8.007000      8.424000      4.867000
C         -12.761000     12.499000      6.989000
C         -12.479000     10.243000      1.720000
C          -7.346000     10.513000      6.050000
C         -13.435000     12.807000      4.683000
C          -8.767000      8.023000      6.075000
C          -8.164000     10.051000      2.675000
C         -13.206000      8.608000      6.158000
C         -12.489000      9.042000      7.296000
C          -8.718000      8.772000      2.588000
C         -11.547000     12.404000      7.700000
C          -9.034000     11.092000      7.684000
C         -13.338000     11.259000      6.950000
C          -9.168000     13.799000      5.483000
C         -10.044000     10.227000      1.399000
C          -8.194000     10.152000      7.090000
C          -8.647000      7.920000      3.756000
C         -12.816000     13.284000      5.797000
C         -11.080000      8.266000      2.323000
C         -12.703000     13.219000      3.539000
C         -13.081000      8.526000      3.335000
C          -8.933000     10.943000      1.898000
C          -9.912000      8.904000      1.878000
C          -9.167000     13.595000      4.102000
C         -10.430000     13.851000      6.100000
C         -14.056000      9.444000      5.394000
C         -11.293000     10.891000      1.355000
C          -9.935000      7.387000      5.613000
C         -12.561000     10.376000      7.665000
C         -12.382000      7.639000      5.545000
C         -11.641000     13.962000      5.327000
C         -14.096000     11.582000      4.597000
$end

--------------------------------------------------------------

             Standard Nuclear Orientation (Angstroms)
    I     Atom           X                Y                Z
 ----------------------------------------------------------------
    1      O       4.0159618628    -5.9654727867     3.2904088294
    2      C       3.2796973141    -6.6324869266     4.3675989944
    3      H       2.7527655023    -7.5044253766     3.9608309953
    4      H       2.5717116422    -5.9573156681     4.8625626901
    5      H       4.0209531457    -6.9406665939     5.1158570280
    6      O       5.0853795331    -7.8966671181     2.6023468403
    7      C       4.8406140708    -6.7160440056     2.4888350142
    8      C       5.5787114027    -5.8615170452     1.5105012252
    9      H       6.3129940525    -6.4408249883     0.9373857943
   10      H       6.1823719677    -5.1122915093     2.0390076287
   11      C       4.7254187681    -5.1079177043     0.5888647931
   12      H       4.0275464916    -5.7706229018     0.0624523057
   13      H       4.1683198108    -4.3736672744     1.1839976002
   14      C       5.5764356954    -4.4355041321    -0.5156152554
   15      H       6.5407380925    -4.0775491023    -0.1344209696
   16      H       5.8678498188    -5.1806917502    -1.2656414033
   17      C       4.8198853511    -3.2617061040    -1.1265782376
   18      C       3.7406292277    -3.7501787301    -2.0825618743
   19      C       4.1099199393    -4.2110699458    -3.3906496609
   20      H       5.1114913910    -4.0651247133    -3.7843952847
   21      C       3.1186439883    -4.6773635720    -4.2607520935
   22      H       3.3779289912    -5.0639432031    -5.2413623504
   23      C       1.7920445247    -4.7725275429    -3.8641683292
   24      H       1.0678323386    -5.1586277929    -4.5761095533
   25      C       1.3957455394    -4.2958638062    -2.6182318155
   26      H       0.3658209159    -4.1639319169    -2.3014823142
   27      C       2.4068046867    -3.8698971569    -1.6674611732
   28      H       2.1099165673    -3.5614958280    -0.6699642734
   29      C       5.0022104000     1.8634074464    -3.2261864564
   30      C       2.9855898820     1.8091797172    -1.9025750936
   31      C       4.5734959163     4.5809992412     1.3838898693
   32      C       9.0065863563     0.2736064598    -0.5492734911
   33      C       5.2942617384     1.8616855014     3.4716174412
   34      C       3.8826719104     1.1754751369    -2.7569703998
   35      C       8.5170812681     1.0753404383     2.1521684196
   36      C       4.8845114506     4.6333813918    -1.0487842658
   37      C       3.3077199040    -0.5830449115     1.1125910004
   38      C       8.4351803276    -0.5894443938     0.4041133006
   39      C       4.6615368350    -2.0000951620    -0.2728144655
   40      C       4.3410663711    -1.0893593679     1.8704232710
   41      C       7.1342276301    -0.8576540565     2.2521389108
   42      C       7.6279888709     1.7541975115     2.9808262399
   43      C       3.0745607558    -0.3015197343    -1.1897819898
   44      C       6.3269287653     3.8397797919     2.5923752735
   45      C       5.5278204771    -1.9547438819    -1.4522999096
   46      C       6.9193637797    -1.5362097236    -1.2307251022
   47      C       5.1719773665     3.2032548687     3.1064378071
   48      C       8.2432421736     3.6525491939    -0.9725141531
   49      C       6.8120449126     4.8384543875     0.3893064195
   50      C       6.2444080643     4.7839810269    -0.8719596355
   51      C       4.3904658272     3.7994488150    -2.0616018108
   52      C       7.3663494965    -0.6435738767    -2.1490360592
   53      C       3.3856042543    -1.1296876278    -0.1552101546
   54      C       3.3155581435     3.1320823370    -1.5406253665
   55      C       8.2084908161    -0.2011026552     1.7106291097
   56      C       2.4084157165     0.9153917816    -0.9826391672
   57      C       4.8093016459    -0.2759841951     2.9448461652
   58      C       8.3326709936     1.6251581096    -2.2926220568
   59      C       4.0206508933     4.5247959370     0.0639960974
   60      C       5.2656404746    -1.8909085061     1.1168168046
   61      C       6.6179385723     3.2787507413    -2.7660268854
   62      C       6.2181216580    -0.1489215168     3.0842206586
   63      C       2.6963892193     0.6465768037     1.4020978769
   64      C       8.3535610915     3.1902281646     1.3836002333
   65      C       8.9880232070     1.9442591368     1.1517015358
   66      C       3.1479995807     1.4400467692     2.4258710429
   67      C       8.3859951928     0.2640942207    -1.8291497058
   68      C       7.3932534228    -1.4843754294     0.0712533201
   69      C       8.8734569422     2.4220825131    -1.2370875700
   70      C       5.1156786419    -0.9100778459    -2.4649701328
   71      C       2.5297975654     2.7601041946     0.7631086840
   72      C       6.6275299212    -1.6890024570     1.2299807681
   73      C       4.2131060669     0.9780106905     3.1866573696
   74      C       7.2156808945     2.0575891997    -2.9763328662
   75      C       4.0716356073     3.7036210678     2.3523803294
   76      C       5.2432693926     3.2023479406    -2.9845360579
   77      C       5.9489102350     4.7361902985     1.5376467803
   78      C       2.2095117205     1.4239030398     0.3575998043
   79      C       3.0926841751     2.7829155896     2.0324342155
   80      C       3.8910523635    -0.1691070476    -2.3576027530
   81      C       6.2812341880    -0.1868091268    -2.8181225488
   82      C       8.0047698052     4.0989992721     0.3327426251
   83      C       3.0174657203     3.6129091235    -0.2416686664
   84      C       6.4629936306     1.1342840617     3.4564546714
   85      C       9.2913406394     1.6312679375    -0.2059655973
   86      C       7.5487224247     3.1019581226     2.5464575419
   87      C       6.1988534371     1.1736391188    -3.2382320380
   88      C       7.1625342124     4.0890970612    -1.6929898726
   89      O     -10.1842217537     1.8209225809    -3.3732594873
   90      C      -9.9261904892     2.9722747244    -4.2304141456
   91      H     -10.6407643187     3.7702962883    -3.9989431417
   92      H      -9.8488735366     2.7415745749    -5.2999806606
   93      H      -8.9171466516     3.3153448854    -3.9700405708
   94      O      -9.6777707126     2.7962458486    -1.3653852715
   95      C     -10.1727002115     1.9164361251    -2.0243038109
   96      C     -10.7897114630     0.6518856947    -1.4117457937
   97      H     -10.0736081370    -0.1307155295    -1.6900556038
   98      H     -11.7526822119     0.5237188582    -1.9208799595
   99      C     -10.9256413890     0.7478132841     0.1409054720
  100      H     -10.8645093455     1.7719889426     0.5283755919
  101      H     -11.9283396018     0.3245976442     0.2841039914
  102      C      -9.9544896643    -0.2396272800     0.8092979166
  103      H     -10.4563100299    -0.7245296203     1.6567812740
  104      H      -9.7649917404    -1.1489118487     0.2264342019
  105      C      -8.7031874349     0.3489019190     1.4777005740
  106      C      -9.0733277442     1.2517640805     2.6064507983
  107      C      -9.1911726797     2.6263826970     2.4049905538
  108      H      -9.0989232603     2.9867282482     1.3852537601
  109      C      -9.5111360870     3.4430697915     3.4569219240
  110      H      -9.6883216783     4.5064340933     3.3243488195
  111      C      -9.7210507297     2.9560345171     4.7845963887
  112      H      -9.8486182287     3.5641724576     5.6749602349
  113      C      -9.5075617383     1.5657285133     4.9975509998
  114      H      -9.6923724865     1.0863449851     5.9541739246
  115      C      -9.2609658211     0.7098208082     3.8903660766
  116      H      -9.2334428458    -0.3613649508     4.0657985577
  117      C      -3.9758371235     2.9309844328     0.3473356220
  118      C      -3.4449792966     1.7236005935     2.3384768104
  119      C      -0.7459660973    -1.3451539729     0.4288186838
  120      C      -5.8491203533    -0.2176216533    -3.1550754982
  121      C      -3.2499108758    -3.8652684107     0.2866119113
  122      C      -4.3628286515     2.3837090969     1.5471511344
  123      C      -4.6876795164    -2.7096692194    -2.8245333513
  124      C      -0.8991515599     1.0909093881     0.0162468534
  125      C      -5.6384151605    -1.6515637135     2.5400183983
  126      C      -6.5534531313    -1.2660294749    -2.4491240995
  127      C      -7.4401218931    -0.4565113522     1.5279390023
  128      C      -6.1908452375    -2.5226150907     1.6781294795
  129      C      -6.3977288790    -3.0367576268    -1.0980446165
  130      C      -3.7725467417    -3.3676292034    -2.1262506979
  131      C      -5.5208909230     0.7422235556     2.6545765237
  132      C      -1.6072088215    -2.7332409311    -1.1712443045
  133      C      -7.6109844974     0.7212110580     0.5817694113
  134      C      -7.4572432537     0.4161875439    -0.8724610676
  135      C      -2.0082580975    -3.2822307250     0.0500290819
  136      C      -2.4117237114     0.6512125437    -3.1382688260
  137      C      -0.9326783955    -0.4870431411    -1.8408637429
  138      C      -0.9326175196     0.8579600143    -1.3864008639
  139      C      -1.7150535162     2.0365495023     0.6153050910
  140      C      -6.6384965822     1.4031237850    -1.5546910465
  141      C      -6.3216644620    -0.4012511278     2.5211284517
  142      C      -2.1130276868     1.5254793483     1.8661359577
  143      C      -5.9713758209    -2.4671604509    -2.2682390991
  144      C      -4.1675333831     0.6660468264     2.9898174447
  145      C      -5.3202837291    -3.5134864513     1.0962604163
  146      C      -4.6619430262     1.6915541501    -2.9265700371
  147      C      -0.7459635467    -0.0134003697     0.9061386397
  148      C      -7.1998642827    -1.8884932719     0.9322326466
  149      C      -2.7996051779     2.4262872746    -1.5632502014
  150      C      -5.4462440350    -3.7515514685    -0.3615201053
  151      C      -4.3050728645    -1.7253552180     2.8986409512
  152      C      -2.5948306647    -1.7291036003    -3.1602665054
  153      C      -3.9651492316    -1.6704819675    -3.5012643489
  154      C      -3.4621953791    -2.7314783796     2.4215668184
  155      C      -5.9362206819     1.1291012817    -2.7070131488
  156      C      -7.2628120303    -0.9385844626    -1.2922339939
  157      C      -3.8463111661     0.7250829782    -3.4488038379
  158      C      -6.5965688295     1.8555093478     0.6925495651
  159      C      -2.2277476280    -0.8104960655     2.6954056372
  160      C      -7.1685921216    -2.0435779809    -0.4483454152
  161      C      -3.9990277263    -3.6660415378     1.4553516589
  162      C      -4.0997188077     2.5602456555    -1.9419924644
  163      C      -1.4888208913    -2.3921227550     1.0446369396
  164      C      -2.6989666788     2.6778833743    -0.1700971965
  165      C      -0.8320258121    -1.5772873542    -0.9554651812
  166      C      -3.5477773349    -0.5577351617     3.1308496615
  167      C      -2.2140857353    -2.1411006080     2.2194866269
  168      C      -5.6409527771     1.7961708396     1.7084505946
  169      C      -6.1334800555     2.2664413023    -0.5694808293
  170      C      -1.7720107447    -0.5882042212    -2.9977611643
  171      C      -1.5385804485     0.2333267708     2.0333516476
  172      C      -4.1355571254    -3.9138087806    -0.8493073433
  173      C      -4.5719353585    -0.4308282787    -3.6276381121
  174      C      -2.4681048006    -2.8541308525    -2.3164891430
  175      C      -4.8262479804     2.8488363550    -0.7377998846
  176      C      -1.8998648233     1.5064255770    -2.1010826583
 ----------------------------------------------------------------

    9   -5804.2694878900      7.84E-06 Convergence criterion met
 Total energy in the final basis set = -5804.2694878900

                    Orbital Energies (a.u.)
 --------------------------------------------------------------

 Alpha MOs
 -- Occupied --
-19.194 -19.191 -19.143 -19.133 -10.320 -10.313 -10.253 -10.247
-10.242 -10.236 -10.235 -10.234 -10.233 -10.232 -10.230 -10.229
-10.226 -10.226 -10.225 -10.225 -10.223 -10.223 -10.223 -10.222
-10.221 -10.221 -10.221 -10.221 -10.221 -10.221 -10.220 -10.220
-10.219 -10.219 -10.219 -10.218 -10.218 -10.218 -10.218 -10.218
-10.217 -10.217 -10.217 -10.217 -10.217 -10.217 -10.216 -10.216
-10.216 -10.216 -10.216 -10.216 -10.216 -10.216 -10.216 -10.215
-10.215 -10.215 -10.215 -10.215 -10.215 -10.215 -10.215 -10.215
-10.214 -10.214 -10.214 -10.214 -10.214 -10.214 -10.214 -10.214
-10.214 -10.214 -10.213 -10.213 -10.213 -10.213 -10.213 -10.213
-10.213 -10.212 -10.212 -10.212 -10.212 -10.212 -10.212 -10.212
-10.212 -10.212 -10.212 -10.212 -10.212 -10.211 -10.211 -10.211
-10.211 -10.211 -10.211 -10.211 -10.211 -10.211 -10.210 -10.210
-10.210 -10.210 -10.210 -10.209 -10.209 -10.209 -10.209 -10.209
-10.209 -10.209 -10.209 -10.208 -10.208 -10.208 -10.208 -10.208
-10.206 -10.206 -10.206 -10.206 -10.205 -10.205 -10.204 -10.204
-10.203 -10.202 -10.202 -10.202 -10.202 -10.202 -10.200 -10.200
-10.199 -10.198 -10.198 -10.198 -10.197 -10.197 -10.197 -10.194
-10.192 -10.192 -10.190 -10.188  -1.098  -1.086  -1.022  -1.010
 -0.984  -0.981  -0.966  -0.965  -0.963  -0.962  -0.961  -0.959
 -0.934  -0.934  -0.928  -0.928  -0.925  -0.924  -0.923  -0.920
 -0.920  -0.918  -0.898  -0.895  -0.892  -0.888  -0.887  -0.883
 -0.876  -0.874  -0.851  -0.848  -0.843  -0.841  -0.838  -0.836
 -0.835  -0.835  -0.823  -0.818  -0.812  -0.803  -0.799  -0.796
 -0.795  -0.794  -0.794  -0.793  -0.791  -0.788  -0.788  -0.783
 -0.770  -0.770  -0.769  -0.768  -0.764  -0.763  -0.762  -0.761
 -0.749  -0.746  -0.742  -0.738  -0.735  -0.730  -0.717  -0.716
 -0.715  -0.714  -0.713  -0.711  -0.710  -0.710  -0.708  -0.707
 -0.706  -0.705  -0.705  -0.704  -0.702  -0.702  -0.673  -0.671
 -0.660  -0.657  -0.655  -0.654  -0.647  -0.643  -0.632  -0.631
 -0.629  -0.627  -0.624  -0.623  -0.621  -0.620  -0.616  -0.616
 -0.614  -0.614  -0.612  -0.612  -0.609  -0.608  -0.607  -0.605
 -0.604  -0.602  -0.601  -0.601  -0.566  -0.566  -0.563  -0.562
 -0.559  -0.559  -0.557  -0.556  -0.556  -0.555  -0.553  -0.551
 -0.538  -0.535  -0.532  -0.532  -0.528  -0.527  -0.526  -0.522
 -0.521  -0.520  -0.519  -0.517  -0.516  -0.514  -0.513  -0.511
 -0.505  -0.504  -0.503  -0.499  -0.496  -0.491  -0.487  -0.486
 -0.484  -0.483  -0.482  -0.481  -0.479  -0.478  -0.477  -0.475
 -0.474  -0.474  -0.471  -0.470  -0.469  -0.467  -0.466  -0.465
 -0.464  -0.463  -0.462  -0.461  -0.461  -0.460  -0.458  -0.457
 -0.454  -0.453  -0.451  -0.450  -0.450  -0.447  -0.445  -0.443
 -0.442  -0.441  -0.439  -0.438  -0.436  -0.436  -0.432  -0.431
 -0.431  -0.429  -0.427  -0.426  -0.426  -0.426  -0.424  -0.423
 -0.423  -0.422  -0.421  -0.421  -0.420  -0.419  -0.418  -0.417
 -0.417  -0.416  -0.416  -0.415  -0.414  -0.414  -0.411  -0.410
 -0.410  -0.409  -0.408  -0.408  -0.401  -0.401  -0.400  -0.396
 -0.394  -0.392  -0.390  -0.389  -0.389  -0.386  -0.384  -0.384
 -0.381  -0.378  -0.374  -0.370  -0.368  -0.367  -0.366  -0.364
 -0.363  -0.362  -0.361  -0.360  -0.360  -0.359  -0.359  -0.358
 -0.357  -0.356  -0.355  -0.354  -0.352  -0.351  -0.350  -0.349
 -0.348  -0.348  -0.347  -0.346  -0.346  -0.345  -0.343  -0.343
 -0.340  -0.340  -0.339  -0.338  -0.337  -0.336  -0.335  -0.334
 -0.331  -0.330  -0.329  -0.327  -0.326  -0.325  -0.322  -0.321
 -0.315  -0.305  -0.303  -0.299  -0.288  -0.284  -0.277  -0.272
 -0.270  -0.269  -0.268  -0.266  -0.265  -0.265  -0.264  -0.262
 -0.260  -0.260  -0.259  -0.256  -0.255  -0.254  -0.253  -0.250
 -0.247  -0.245  -0.244  -0.243  -0.223  -0.219  -0.212  -0.210
 -0.208  -0.207  -0.205  -0.203  -0.201  -0.199

          Ground-State Mulliken Net Atomic Charges

     Atom                 Charge (a.u.)
  ----------------------------------------
      1 O                    -0.480086
      2 C                    -0.086160
      3 H                     0.135203
      4 H                     0.127954
      5 H                     0.130999
      6 O                    -0.469489
      7 C                     0.601775
      8 C                    -0.245145
      9 H                     0.124473
     10 H                     0.128471
     11 C                    -0.181049
     12 H                     0.116134
     13 H                     0.120668
     14 C                    -0.198250
     15 H                     0.101240
     16 H                     0.114866
     17 C                     0.013374
     18 C                     0.089231
     19 C                    -0.106394
     20 H                     0.090348
     21 C                    -0.085664
     22 H                     0.088420
     23 C                    -0.079943
     24 H                     0.089652
     25 C                    -0.091176
     26 H                     0.092103
     27 C                    -0.120770
     28 H                     0.095085
     29 C                     0.016052
     30 C                    -0.015366
     31 C                     0.014928
     32 C                    -0.034099
     33 C                     0.018777
     34 C                     0.005108
     35 C                    -0.005543
     36 C                     0.001760
     37 C                     0.044445
     38 C                     0.010134
     39 C                    -0.089462
     40 C                    -0.010603
     41 C                    -0.016141
     42 C                    -0.017189
     43 C                     0.034036
     44 C                    -0.016083
     45 C                    -0.101864
     46 C                     0.032311
     47 C                    -0.003828
     48 C                     0.010402
     49 C                    -0.010187
     50 C                     0.014307
     51 C                     0.018849
     52 C                     0.024692
     53 C                     0.002869
     54 C                     0.024490
     55 C                     0.016111
     56 C                    -0.006367
     57 C                    -0.037420
     58 C                    -0.014577
     59 C                    -0.014048
     60 C                     0.029688
     61 C                    -0.008825
     62 C                     0.010138
     63 C                     0.038016
     64 C                    -0.012806
     65 C                     0.013784
     66 C                    -0.004879
     67 C                    -0.016469
     68 C                     0.009487
     69 C                     0.016009
     70 C                     0.012058
     71 C                    -0.018470
     72 C                    -0.017475
     73 C                    -0.019474
     74 C                     0.017465
     75 C                    -0.010764
     76 C                    -0.040211
     77 C                    -0.003467
     78 C                    -0.032358
     79 C                     0.028987
     80 C                    -0.010303
     81 C                     0.016522
     82 C                    -0.006139
     83 C                    -0.012995
     84 C                     0.016398
     85 C                    -0.013051
     86 C                    -0.002100
     87 C                     0.006212
     88 C                    -0.010648
     89 O                    -0.471580
     90 C                    -0.090934
     91 H                     0.129892
     92 H                     0.133418
     93 H                     0.134659
     94 O                    -0.473020
     95 C                     0.604190
     96 C                    -0.267041
     97 H                     0.142196
     98 H                     0.126221
     99 C                    -0.169253
    100 H                     0.134573
    101 H                     0.102502
    102 C                    -0.196400
    103 H                     0.102189
    104 H                     0.105040
    105 C                     0.014618
    106 C                     0.087171
    107 C                    -0.106403
    108 H                     0.128941
    109 C                    -0.108745
    110 H                     0.090864
    111 C                    -0.086564
    112 H                     0.095923
    113 C                    -0.096751
    114 H                     0.088425
    115 C                    -0.103590
    116 H                     0.087785
    117 C                     0.000265
    118 C                    -0.016276
    119 C                    -0.006518
    120 C                    -0.023936
    121 C                     0.000458
    122 C                     0.024403
    123 C                     0.016101
    124 C                     0.000724
    125 C                     0.034849
    126 C                    -0.014507
    127 C                    -0.090451
    128 C                     0.008945
    129 C                    -0.030282
    130 C                     0.014832
    131 C                     0.002942
    132 C                    -0.015424
    133 C                    -0.055667
    134 C                     0.004273
    135 C                     0.011121
    136 C                    -0.021114
    137 C                    -0.003257
    138 C                     0.016410
    139 C                    -0.004119
    140 C                     0.033368
    141 C                     0.022645
    142 C                    -0.007129
    143 C                     0.036440
    144 C                    -0.013597
    145 C                    -0.005981
    146 C                    -0.022597
    147 C                     0.004895
    148 C                    -0.015986
    149 C                     0.036597
    150 C                    -0.028022
    151 C                     0.019110
    152 C                     0.017210
    153 C                    -0.027893
    154 C                    -0.024737
    155 C                    -0.020470
    156 C                     0.012758
    157 C                     0.023762
    158 C                     0.006595
    159 C                     0.000237
    160 C                     0.013097
    161 C                    -0.001270
    162 C                    -0.011689
    163 C                    -0.011780
    164 C                    -0.019087
    165 C                     0.019578
    166 C                    -0.004590
    167 C                    -0.003280
    168 C                     0.021197
    169 C                     0.018429
    170 C                    -0.009847
    171 C                     0.001712
    172 C                     0.002381
    173 C                     0.014500
    174 C                    -0.032744
    175 C                    -0.021769
    176 C                    -0.000835
  ----------------------------------------
  Sum of atomic charges =     0.000000

                    Cartesian Multipole Moments
 -----------------------------------------------------------------
    Charge (ESU x 10^10)
                 0.0000
    Dipole Moment (Debye)
         X      -6.1301      Y       0.3777      Z      -0.4555
       Tot       6.1586
    Quadrupole Moments (Debye-Ang)
        XX    -765.9429     XY      -1.0465     YY    -828.4121
        XZ      -1.1655     YZ      -0.7027     ZZ    -782.9331

 Total job time:  867.43s(wall), 8294.34s(cpu)
        *  Thank you very much for using Q-Chem.  Have a nice day.  *
