 Q-Chem 4.4, Q-Chem, Inc., Pleasanton, CA (2016)
 Q-Chem 4.4.2 for Intel X86 Linux

User input:
--------------------------------------------------------------
$comment
SP
$end

$rem
MEM_STATIC 5000
MEM_TOTAL 20000
JOBTYPE SP
EXCHANGE B3LYP
BASIS 6-31g(d,p)
$end

$molecule
0 1
O         -10.234000    -16.310000    -12.254000
C          -9.683000    -15.782000    -13.523000
H          -9.380000    -16.616000    -14.169000
H          -8.766000    -15.193000    -13.399000
H         -10.444000    -15.232000    -14.090000
O         -12.106000    -16.892000    -13.388000
C         -11.510000    -16.807000    -12.354000
C         -12.088000    -17.360000    -11.063000
H         -12.152000    -16.568000    -10.307000
H         -11.361000    -18.097000    -10.703000
C         -13.554000    -18.004000    -11.249000
H         -14.083000    -18.009000    -10.288000
H         -14.139000    -17.259000    -11.802000
C         -13.581000    -19.398000    -11.903000
H         -13.056000    -19.229000    -12.851000
H         -13.020000    -20.139000    -11.320000
C         -14.970000    -19.981000    -12.204000
C         -16.024000    -18.887000    -12.453000
C         -16.209000    -18.389000    -13.764000
H         -15.652000    -18.843000    -14.579000
C         -17.167000    -17.437000    -14.051000
H         -17.412000    -17.171000    -15.075000
C         -17.983000    -16.956000    -13.019000
H         -18.759000    -16.226000    -13.226000
C         -17.772000    -17.384000    -11.662000
H         -18.412000    -16.948000    -10.901000
C         -16.813000    -18.375000    -11.419000
H         -16.701000    -18.795000    -10.424000
C         -18.743000    -23.927000    -11.372000
C         -18.666000    -23.622000    -13.792000
C         -16.604000    -27.684000    -14.846000
C         -13.995000    -24.796000     -9.696000
C         -13.452000    -26.156000    -15.162000
C         -18.621000    -23.108000    -12.511000
C         -12.633000    -26.218000    -11.690000
C         -18.329000    -27.076000    -13.177000
C         -15.090000    -22.469000    -15.161000
C         -13.062000    -24.119000    -10.554000
C         -14.901000    -21.249000    -13.029000
C         -13.756000    -22.676000    -14.697000
C         -12.267000    -23.961000    -12.665000
C         -12.748000    -26.827000    -12.981000
C         -17.063000    -22.028000    -13.866000
C         -14.492000    -28.060000    -13.979000
C         -15.470000    -21.309000    -11.677000
C         -14.675000    -22.231000    -10.728000
C         -14.413000    -27.165000    -15.109000
C         -16.186000    -27.440000    -10.423000
C         -16.301000    -28.370000    -12.495000
C         -17.550000    -27.715000    -12.205000
C         -18.986000    -25.871000    -12.823000
C         -15.615000    -22.946000     -9.965000
C         -15.757000    -21.701000    -14.176000
C         -18.834000    -24.988000    -13.975000
C         -12.379000    -24.812000    -11.536000
C         -17.722000    -22.988000    -14.607000
C         -13.084000    -23.894000    -14.948000
C         -16.189000    -25.249000     -9.372000
C         -17.848000    -27.036000    -14.504000
C         -13.616000    -22.077000    -13.436000
C         -18.161000    -25.998000    -10.580000
C         -12.330000    -24.559000    -13.956000
C         -15.717000    -23.505000    -15.856000
C         -14.169000    -27.883000    -11.614000
C         -13.488000    -26.891000    -10.856000
C         -15.022000    -24.655000    -16.186000
C         -15.265000    -24.211000     -9.459000
C         -13.507000    -22.905000    -11.102000
C         -15.547000    -26.457000     -9.652000
C         -16.816000    -21.808000    -11.446000
C         -17.205000    -25.108000    -15.791000
C         -13.005000    -22.774000    -12.401000
C         -13.728000    -24.919000    -15.709000
C         -17.506000    -25.027000     -9.835000
C         -15.670000    -26.917000    -15.608000
C         -18.932000    -25.303000    -11.538000
C         -15.830000    -28.353000    -13.838000
C         -17.023000    -23.725000    -15.617000
C         -15.947000    -25.693000    -16.159000
C         -17.608000    -22.103000    -12.562000
C         -16.930000    -22.706000    -10.353000
C         -15.470000    -28.186000    -11.402000
C         -18.161000    -25.735000    -14.960000
C         -12.635000    -25.937000    -14.066000
C         -14.168000    -26.171000     -9.866000
C         -13.659000    -27.886000    -12.948000
C         -17.853000    -23.741000    -10.350000
C         -17.502000    -27.198000    -10.908000
O          -2.843000    -29.223000     -7.459000
C          -2.117000    -30.428000     -7.333000
H          -2.007000    -30.866000     -8.333000
H          -2.750000    -31.037000     -6.676000
H          -1.100000    -30.225000     -6.976000
O          -4.975000    -30.164000     -7.314000
C          -4.210000    -29.180000     -7.409000
C          -4.614000    -27.647000     -7.496000
H          -3.684000    -27.255000     -7.927000
H          -4.730000    -27.219000     -6.493000
C          -5.916000    -27.373000     -8.352000
H          -5.661000    -27.768000     -9.343000
H          -6.669000    -27.981000     -7.837000
C          -6.209000    -25.884000     -8.330000
H          -6.759000    -25.635000     -7.414000
H          -5.322000    -25.238000     -8.315000
C          -7.059000    -25.371000     -9.566000
C          -8.175000    -26.336000     -9.855000
C          -9.350000    -26.133000     -9.148000
H          -9.338000    -25.410000     -8.338000
C         -10.508000    -26.909000     -9.388000
H         -11.359000    -26.752000     -8.733000
C         -10.462000    -27.946000    -10.327000
H         -11.322000    -28.563000    -10.569000
C          -9.236000    -28.201000    -10.994000
H          -9.228000    -29.028000    -11.699000
C          -8.094000    -27.382000    -10.771000
H          -7.146000    -27.553000    -11.272000
C          -6.525000    -23.907000    -14.858000
C          -8.683000    -22.976000    -14.157000
C          -7.273000    -18.708000    -14.152000
C          -2.859000    -22.495000    -11.726000
C          -6.739000    -18.518000    -10.724000
C          -7.738000    -24.021000    -14.093000
C          -3.399000    -19.898000    -10.842000
C          -6.804000    -20.435000    -15.782000
C          -8.613000    -21.988000    -10.246000
C          -3.391000    -22.301000    -10.429000
C          -7.209000    -23.874000     -9.927000
C          -7.487000    -21.623000     -9.454000
C          -4.811000    -21.049000     -9.195000
C          -4.368000    -18.919000    -10.917000
C          -8.666000    -23.691000    -11.964000
C          -5.576000    -18.050000    -12.772000
C          -6.271000    -24.710000    -10.708000
C          -4.875000    -24.245000    -10.761000
C          -6.797000    -18.059000    -12.077000
C          -3.466000    -20.838000    -14.825000
C          -5.003000    -19.156000    -14.847000
C          -5.425000    -20.158000    -15.702000
C          -7.258000    -21.776000    -15.730000
C          -4.346000    -24.365000    -12.100000
C          -8.365000    -23.299000    -10.646000
C          -8.447000    -21.849000    -14.950000
C          -3.654000    -20.999000    -10.017000
C          -9.254000    -22.784000    -12.893000
C          -7.077000    -20.283000     -9.381000
C          -3.317000    -23.057000    -13.895000
C          -7.705000    -19.700000    -15.048000
C          -6.608000    -22.674000     -9.287000
C          -4.934000    -22.574000    -15.679000
C          -5.772000    -20.013000     -9.311000
C          -9.241000    -21.097000    -11.112000
C          -3.466000    -19.121000    -12.981000
C          -2.849000    -20.081000    -12.108000
C          -8.727000    -19.783000    -11.184000
C          -3.357000    -23.469000    -12.569000
C          -4.332000    -23.205000     -9.944000
C          -2.926000    -21.722000    -13.935000
C          -6.568000    -24.968000    -12.202000
C          -9.379000    -20.272000    -13.259000
C          -5.241000    -22.414000     -9.200000
C          -7.699000    -19.375000    -10.299000
C          -4.315000    -23.481000    -14.775000
C          -7.802000    -18.486000    -12.904000
C          -6.315000    -22.835000    -15.721000
C          -5.919000    -18.417000    -14.075000
C          -9.598000    -21.438000    -12.440000
C          -8.830000    -19.289000    -12.439000
C          -7.735000    -24.479000    -12.743000
C          -5.377000    -24.739000    -12.955000
C          -3.810000    -19.579000    -14.288000
C          -8.740000    -20.543000    -14.561000
C          -5.527000    -18.892000    -10.146000
C          -2.580000    -21.362000    -12.593000
C          -4.388000    -18.405000    -12.219000
C          -5.325000    -24.311000    -14.298000
C          -4.458000    -21.252000    -15.748000
$end

--------------------------------------------------------------

             Standard Nuclear Orientation (Angstroms)
    I     Atom           X                Y                Z
 ----------------------------------------------------------------
    1      O      -1.3870956171     6.4272869306    -1.7023410721
    2      C      -1.8688065660     7.2384016110    -0.5609412574
    3      H      -1.9876303376     6.5981398724     0.3225896235
    4      H      -2.8646858959     7.6725143137    -0.7124553551
    5      H      -1.1338911849     8.0008575003    -0.2751609230
    6      O       0.6542276758     6.3843102597    -0.7224348422
    7      C      -0.0523641157     6.1098848538    -1.6481862865
    8      C       0.4570253995     5.2713521904    -2.8074788701
    9      H       0.3345285734     5.8162163697    -3.7514140128
   10      H      -0.1976013499     4.3933131319    -2.8500139237
   11      C       2.0077539694     4.8574699384    -2.6577111031
   12      H       2.4294515671     4.6306742813    -3.6446872254
   13      H       2.5415109008     5.7841473936    -2.4139254756
   14      C       2.2903861802     3.7188383902    -1.6600547340
   15      H       1.8491788835     4.0986016189    -0.7305354973
   16      H       1.7766101366     2.7897902391    -1.9368122271
   17      C       3.7690178598     3.3882871902    -1.4066868986
   18      C       4.6861872519     4.6074828649    -1.6119068125
   19      C       4.9381367520     5.4756323077    -0.5238865947
   20      H       4.5354591285     5.2204456096     0.4524947246
   21      C       5.7838048596     6.5607770790    -0.6411183185
   22      H       6.0961970302     7.1317295696     0.2282385618
   23      C       6.4154225975     6.8055142491    -1.8672519779
   24      H       7.1033166968     7.6380106523    -1.9753095867
   25      C       6.1236242136     5.9883119593    -3.0145044003
   26      H       6.6161459016     6.2500952015    -3.9460133487
   27      C       5.2868146549     4.8784895669    -2.8446367466
   28      H       5.1292505417     4.1823781519    -3.6629102022
   29      C       7.9316935123    -0.2328146307    -1.6483933644
   30      C       8.0671547378     0.7424875832     0.5844948656
   31      C       6.6925083723    -3.0331472251     2.9756312408
   32      C       3.1953784466    -2.0152882225    -2.3539062940
   33      C       3.4136981537    -1.8018399852     3.2966141560
   34      C       7.8199437935     0.8613260770    -0.7689991910
   35      C       2.2528675607    -2.9361515541     0.1193199299
   36      C       8.1362791430    -2.7587153850     0.9828785901
   37      C       4.5309041177     1.8752844185     2.0687619851
   38      C       2.2743082233    -1.2179700708    -1.5917413455
   39      C       3.9579150547     2.4090506828    -0.2671151754
   40      C       3.1959000512     1.4118581391     1.8670165369
   41      C       1.6898420233    -0.5429648967     0.4857757485
   42      C       2.5828970477    -3.1356603204     1.4984732172
   43      C       6.2805592689     2.1223724513     0.4433729990
   44      C       4.5716132190    -3.8507293284     2.5432283579
   45      C       4.3856530328     2.0219794073    -1.6171081567
   46      C       3.6275072872     0.7923311005    -2.1610659402
   47      C       4.4910567086    -2.6824374411     3.3874858510
   48      C       5.7863901357    -4.1078218257    -1.2458866431
   49      C       6.2411319876    -4.3897938059     0.9643193768
   50      C       7.3533726499    -3.7236537411     0.3379775187
   51      C       8.5844009576    -1.6459592560     0.2279278391
   52      C       4.5705040925    -0.0133208184    -2.8233921520
   53      C       4.9819365549     2.3920682408     0.8300359372
   54      C       8.4358234176    -0.4901096924     1.1064683907
   55      C       1.7970923135    -1.6657397458    -0.3740265622
   56      C       7.1365533445     1.4854259459     1.3188930111
   57      C       2.7240052340     0.2557455707     2.5294574857
   58      C       5.3845314451    -2.3202538282    -2.8421952746
   59      C       7.7953411856    -2.3890548844     2.3023490989
   60      C       2.8457126598     1.6079197826     0.5226019346
   61      C       7.5546106831    -2.4912041237    -1.7602613130
   62      C       1.9671498967    -0.7371915695     1.8691160331
   63      C       5.3608071590     1.1495516736     2.9255133639
   64      C       3.9827997372    -4.3909700532     0.2870542416
   65      C       3.0990428565    -3.7305924065    -0.6103108677
   66      C       4.8653276257     0.0785421204     3.6479146159
   67      C       4.3432712669    -1.3985927052    -2.9136586607
   68      C       2.6064039214     0.1402174144    -1.4607291235
   69      C       4.9438756295    -3.4555396669    -2.1589848263
   70      C       5.7551042321     1.6149749840    -1.8873465926
   71      C       7.0362355593    -0.2478362858     3.0935150493
   72      C       2.2295922596     0.5864871438    -0.1897364799
   73      C       3.5760620657    -0.4389221324     3.4437429652
   74      C       6.7006588871    -1.8445193041    -2.6431294086
   75      C       5.7483137283    -2.1776270001     3.6220603700
   76      C       8.3206291358    -1.4777049625    -1.1427945686
   77      C       5.9148154580    -4.0364739566     2.3038945358
   78      C       6.6524200199     1.0021361437     2.5774302140
   79      C       5.9138317006    -0.8258533442     3.7763904832
   80      C       6.6916759097     1.7323389180    -0.8535167228
   81      C       5.8744125482     0.4579100487    -2.7003750430
   82      C       5.2834843700    -4.6102574393    -0.0120887483
   83      C       7.9760494539    -0.9874812505     2.3403210705
   84      C       2.4648174541    -1.9884078715     2.3059154926
   85      C       3.5688305415    -3.2596813805    -1.8425617904
   86      C       3.6198092516    -4.0631848271     1.6288663569
   87      C       6.9230450959    -0.4369602740    -2.5495775457
   88      C       7.1011324548    -3.6068338814    -1.0311572462
   89      O      -7.4304519438    -7.9893890737    -1.7444396961
   90      C      -7.9966329466    -9.2463711209    -1.4371740047
   91      H      -7.9417054511    -9.3886781498    -0.3505849933
   92      H      -7.3593712910    -9.9513857277    -1.9849613599
   93      H      -9.0633493765    -9.2567650663    -1.6920367602
   94      O      -5.2179744078    -8.7143928771    -1.9211955671
   95      C      -6.0944498812    -7.8260015776    -1.9923126778
   96      C      -5.8938187927    -6.2998071303    -2.3813521043
   97      H      -6.8180755424    -5.8959470210    -1.9489501236
   98      H      -5.9417996825    -6.1672879998    -3.4689115345
   99      C      -4.5584845013    -5.6635834370    -1.8199986129
  100      H      -4.6531687425    -5.7819892354    -0.7336533816
  101      H      -3.7883004690    -6.3150184296    -2.2493551160
  102      C      -4.4726719558    -4.2216050258    -2.2856040988
  103      H      -4.0598081533    -4.1913723502    -3.3015698787
  104      H      -5.4352997511    -3.6989885669    -2.3529076237
  105      C      -3.5752906128    -3.2941110307    -1.3648290913
  106      C      -2.3154529973    -4.0194320491    -0.9815268570
  107      C      -1.2587304497    -3.9107355632    -1.8721477254
  108      H      -1.4524524675    -3.4546760697    -2.8383022256
  109      C       0.0119185220    -4.4657637934    -1.5926216004
  110      H       0.7610003125    -4.4184303962    -2.3765291336
  111      C       0.2042486900    -5.1899497159    -0.4103484271
  112      H       1.1600422867    -5.6226870232    -0.1309740843
  113      C      -0.8998946517    -5.3647448470     0.4633243624
  114      H      -0.7228210011    -5.9519531099     1.3604583425
  115      C      -2.1587975921    -4.7622752219     0.1861101177
  116      H      -3.0176383372    -4.8767097015     0.8405131467
  117      C      -3.7467207057    -0.4383614338     3.3520578019
  118      C      -1.8188275474     0.4641228067     2.1339132431
  119      C      -3.7837450532     4.3889447385     1.1649854856
  120      C      -7.8760427903    -0.3554565232     0.4911925661
  121      C      -4.6931046933     3.5358722876    -2.0781260510
  122      C      -2.6158953271    -0.6445488594     2.4870082606
  123      C      -7.7860334150     1.9204999303    -1.1303454488
  124      C      -3.8431907007     3.1625974260     3.2511131145
  125      C      -2.4288651971     0.2797403064    -1.8499068029
  126      C      -7.5132474033    -0.4884391432    -0.8702640545
  127      C      -3.5915146175    -1.7492363488    -1.4480696993
  128      C      -3.6701877589     0.2883750687    -2.5480534483
  129      C      -6.4114064989     0.4936517849    -2.5814344231
  130      C      -6.9552772162     2.9718229996    -1.4583560316
  131      C      -1.9679981836    -0.8463539237     0.2415174440
  132      C      -5.6885264880     4.4514696881    -0.0940106686
  133      C      -4.3217018423    -2.4162880879    -0.3478108233
  134      C      -5.7544081356    -2.0976098650    -0.2309910155
  135      C      -4.5566627994     4.3661705773    -0.9219935501
  136      C      -7.1779085602     2.1709236402     2.9094379769
  137      C      -5.8876993646     3.9338262845     2.2617409041
  138      C      -5.2476899928     3.2657673262     3.2899423591
  139      C      -3.2205848221     1.9151952801     3.5030075495
  140      C      -6.1198362105    -1.8817916273     1.1499676408
  141      C      -2.4548884631    -0.8799657393    -1.0787844538
  142      C      -2.1204969271     1.7413878748     2.6158505120
  143      C      -7.4724826407     0.6607572208    -1.6524423916
  144      C      -1.4138908070     0.3425757729     0.7990523684
  145      C      -4.2623408924     1.5034629496    -2.9248094810
  146      C      -7.1227780532    -0.2246814895     2.6465716804
  147      C      -3.1309525215     3.7431454262     2.2281454730
  148      C      -4.4121560688    -0.8488813969    -2.3005423200
  149      C      -5.4084093847     0.9077112282     3.9916593360
  150      C      -5.5919360912     1.6102238043    -2.8847629189
  151      C      -1.8397585458     1.4393990113    -1.3535540639
  152      C      -7.6015796438     3.2796121272     0.6868859187
  153      C      -8.1712811563     2.0532960884     0.2010802375
  154      C      -2.5157632646     2.6607922638    -1.5707915902
  155      C      -7.1661687992    -0.9926646964     1.4898785331
  156      C      -6.5148040484    -1.3945678361    -1.2166217584
  157      C      -7.6837485059     1.0198703907     2.3761853481
  158      C      -3.8384481396    -2.2050260356     1.1043059778
  159      C      -1.5909754047     2.8536431825     0.4484721215
  160      C      -5.8032706384    -0.7627144837    -2.2654208562
  161      C      -3.6760128102     2.6935989413    -2.3827138241
  162      C      -5.9904557406    -0.2771664457     3.4622134583
  163      C      -3.4225670242     4.2963638029    -0.1569858461
  164      C      -4.0080586959     0.8091172605     3.9120152665
  165      C      -5.1651831624     4.5088147397     1.1994228661
  166      C      -1.3035151186     1.5300737336    -0.0452975595
  167      C      -2.3499170794     3.5009076889    -0.5237141740
  168      C      -2.6979632712    -1.4675353121     1.3258746976
  169      C      -4.9643405041    -1.8904801846     1.9236705434
  170      C      -7.0645735673     3.2514814777     2.0086960943
  171      C      -2.0483106541     2.9039765958     1.8503555036
  172      C      -5.8972845421     2.8928869218    -2.3599499519
  173      C      -8.2131729135     0.9443968599     1.0479182278
  174      C      -6.8690093748     3.8361433236    -0.3604907225
  175      C      -4.9331566672    -1.1035860174     3.0938680215
  176      C      -6.0483605071     2.1396703476     3.7641504592
 ----------------------------------------------------------------

    9   -5804.3045609634      8.14E-06 Convergence criterion met
 Total energy in the final basis set = -5804.3045609634

                    Orbital Energies (a.u.)
 --------------------------------------------------------------

 Alpha MOs
 -- Occupied --
-19.196 -19.193 -19.143 -19.136 -10.327 -10.315 -10.247 -10.244
-10.242 -10.240 -10.240 -10.236 -10.236 -10.235 -10.233 -10.227
-10.225 -10.224 -10.223 -10.223 -10.223 -10.223 -10.222 -10.222
-10.222 -10.222 -10.222 -10.222 -10.221 -10.221 -10.221 -10.221
-10.221 -10.221 -10.221 -10.221 -10.220 -10.220 -10.219 -10.219
-10.219 -10.219 -10.219 -10.219 -10.218 -10.218 -10.218 -10.217
-10.217 -10.217 -10.217 -10.217 -10.216 -10.216 -10.216 -10.216
-10.216 -10.216 -10.216 -10.215 -10.215 -10.215 -10.215 -10.215
-10.215 -10.215 -10.215 -10.214 -10.214 -10.214 -10.214 -10.214
-10.214 -10.214 -10.213 -10.213 -10.213 -10.213 -10.213 -10.213
-10.213 -10.213 -10.212 -10.212 -10.212 -10.212 -10.212 -10.212
-10.212 -10.212 -10.212 -10.211 -10.211 -10.211 -10.211 -10.211
-10.211 -10.211 -10.211 -10.210 -10.210 -10.210 -10.210 -10.210
-10.210 -10.210 -10.210 -10.210 -10.210 -10.210 -10.209 -10.209
-10.209 -10.209 -10.209 -10.209 -10.209 -10.208 -10.208 -10.208
-10.208 -10.208 -10.208 -10.208 -10.207 -10.207 -10.207 -10.206
-10.206 -10.205 -10.205 -10.205 -10.204 -10.204 -10.202 -10.201
-10.201 -10.200 -10.200 -10.198 -10.197 -10.197 -10.197 -10.195
-10.195 -10.193 -10.193 -10.192  -1.094  -1.093  -1.013  -1.005
 -0.985  -0.980  -0.967  -0.966  -0.964  -0.961  -0.961  -0.957
 -0.936  -0.932  -0.927  -0.926  -0.924  -0.924  -0.923  -0.923
 -0.919  -0.917  -0.895  -0.894  -0.892  -0.888  -0.886  -0.882
 -0.874  -0.871  -0.853  -0.850  -0.842  -0.841  -0.840  -0.838
 -0.837  -0.833  -0.822  -0.819  -0.804  -0.798  -0.797  -0.797
 -0.796  -0.794  -0.794  -0.793  -0.790  -0.788  -0.784  -0.779
 -0.773  -0.770  -0.769  -0.768  -0.767  -0.765  -0.764  -0.757
 -0.749  -0.748  -0.745  -0.736  -0.736  -0.732  -0.719  -0.718
 -0.716  -0.714  -0.712  -0.711  -0.709  -0.709  -0.708  -0.708
 -0.706  -0.705  -0.704  -0.704  -0.700  -0.698  -0.672  -0.670
 -0.661  -0.658  -0.658  -0.657  -0.646  -0.645  -0.632  -0.630
 -0.628  -0.624  -0.622  -0.622  -0.620  -0.620  -0.619  -0.617
 -0.615  -0.614  -0.612  -0.611  -0.610  -0.609  -0.609  -0.608
 -0.607  -0.605  -0.604  -0.600  -0.566  -0.564  -0.563  -0.562
 -0.561  -0.559  -0.557  -0.556  -0.555  -0.554  -0.552  -0.548
 -0.535  -0.533  -0.533  -0.532  -0.531  -0.528  -0.524  -0.523
 -0.523  -0.520  -0.520  -0.518  -0.517  -0.514  -0.512  -0.510
 -0.507  -0.502  -0.500  -0.499  -0.492  -0.489  -0.487  -0.486
 -0.485  -0.484  -0.483  -0.480  -0.480  -0.478  -0.477  -0.474
 -0.472  -0.471  -0.470  -0.469  -0.468  -0.467  -0.465  -0.464
 -0.464  -0.464  -0.463  -0.462  -0.461  -0.460  -0.458  -0.456
 -0.456  -0.455  -0.452  -0.450  -0.448  -0.444  -0.444  -0.442
 -0.442  -0.441  -0.440  -0.439  -0.438  -0.435  -0.435  -0.433
 -0.432  -0.430  -0.430  -0.427  -0.426  -0.425  -0.424  -0.424
 -0.423  -0.422  -0.421  -0.420  -0.418  -0.418  -0.418  -0.417
 -0.416  -0.416  -0.416  -0.415  -0.414  -0.414  -0.414  -0.413
 -0.410  -0.409  -0.409  -0.407  -0.401  -0.399  -0.399  -0.396
 -0.395  -0.391  -0.391  -0.388  -0.387  -0.386  -0.384  -0.382
 -0.381  -0.376  -0.373  -0.370  -0.369  -0.367  -0.366  -0.365
 -0.363  -0.361  -0.360  -0.359  -0.359  -0.358  -0.357  -0.355
 -0.355  -0.355  -0.355  -0.353  -0.353  -0.352  -0.352  -0.350
 -0.350  -0.348  -0.348  -0.348  -0.345  -0.345  -0.344  -0.342
 -0.341  -0.340  -0.340  -0.339  -0.337  -0.336  -0.336  -0.333
 -0.333  -0.331  -0.330  -0.329  -0.328  -0.324  -0.324  -0.321
 -0.309  -0.303  -0.299  -0.299  -0.289  -0.286  -0.273  -0.271
 -0.271  -0.270  -0.269  -0.268  -0.267  -0.265  -0.264  -0.262
 -0.262  -0.261  -0.258  -0.258  -0.257  -0.255  -0.254  -0.250
 -0.247  -0.247  -0.246  -0.244  -0.224  -0.222  -0.213  -0.212
 -0.211  -0.206  -0.204  -0.204  -0.202  -0.199

          Ground-State Mulliken Net Atomic Charges

     Atom                 Charge (a.u.)
  ----------------------------------------
      1 O                    -0.483077
      2 C                    -0.095325
      3 H                     0.126165
      4 H                     0.125114
      5 H                     0.137287
      6 O                    -0.458459
      7 C                     0.620688
      8 C                    -0.290038
      9 H                     0.132061
     10 H                     0.134934
     11 C                    -0.187618
     12 H                     0.088986
     13 H                     0.134056
     14 C                    -0.170945
     15 H                     0.136047
     16 H                     0.104654
     17 C                     0.002856
     18 C                     0.080170
     19 C                    -0.099766
     20 H                     0.093853
     21 C                    -0.080360
     22 H                     0.093222
     23 C                    -0.092292
     24 H                     0.087425
     25 C                    -0.090672
     26 H                     0.093056
     27 C                    -0.110227
     28 H                     0.088050
     29 C                     0.004675
     30 C                    -0.001323
     31 C                    -0.014153
     32 C                    -0.029951
     33 C                     0.009749
     34 C                    -0.003104
     35 C                     0.022339
     36 C                     0.000599
     37 C                    -0.007575
     38 C                    -0.029069
     39 C                    -0.073124
     40 C                     0.012117
     41 C                    -0.041700
     42 C                    -0.011151
     43 C                     0.028817
     44 C                     0.021718
     45 C                    -0.069126
     46 C                     0.014691
     47 C                    -0.001951
     48 C                    -0.014912
     49 C                     0.000923
     50 C                     0.002906
     51 C                    -0.007337
     52 C                    -0.004631
     53 C                     0.016544
     54 C                     0.005829
     55 C                     0.023253
     56 C                    -0.011557
     57 C                    -0.006810
     58 C                    -0.009847
     59 C                    -0.012415
     60 C                     0.003639
     61 C                    -0.002119
     62 C                    -0.016353
     63 C                     0.022308
     64 C                    -0.003694
     65 C                     0.006529
     66 C                     0.005965
     67 C                     0.016490
     68 C                     0.028656
     69 C                    -0.000408
     70 C                     0.016339
     71 C                    -0.030834
     72 C                     0.036264
     73 C                    -0.020897
     74 C                    -0.010498
     75 C                     0.025701
     76 C                    -0.014585
     77 C                    -0.018298
     78 C                     0.005671
     79 C                    -0.008170
     80 C                    -0.014747
     81 C                     0.004784
     82 C                    -0.000550
     83 C                     0.002374
     84 C                     0.014250
     85 C                    -0.017005
     86 C                     0.001384
     87 C                     0.017200
     88 C                     0.008882
     89 O                    -0.454561
     90 C                    -0.082934
     91 H                     0.123877
     92 H                     0.135803
     93 H                     0.126650
     94 O                    -0.483693
     95 C                     0.586405
     96 C                    -0.278068
     97 H                     0.133743
     98 H                     0.132186
     99 C                    -0.174670
    100 H                     0.112477
    101 H                     0.142529
    102 C                    -0.173278
    103 H                     0.111187
    104 H                     0.106938
    105 C                    -0.008793
    106 C                     0.098972
    107 C                    -0.109734
    108 H                     0.087523
    109 C                    -0.092266
    110 H                     0.095971
    111 C                    -0.079727
    112 H                     0.096573
    113 C                    -0.102754
    114 H                     0.093472
    115 C                    -0.102113
    116 H                     0.092648
    117 C                    -0.009671
    118 C                    -0.000303
    119 C                     0.015165
    120 C                    -0.019447
    121 C                    -0.009096
    122 C                     0.006564
    123 C                     0.022216
    124 C                     0.007921
    125 C                     0.016488
    126 C                     0.003457
    127 C                    -0.092821
    128 C                     0.001307
    129 C                    -0.012714
    130 C                     0.014068
    131 C                     0.014080
    132 C                     0.004758
    133 C                    -0.083616
    134 C                     0.040200
    135 C                    -0.026819
    136 C                     0.006700
    137 C                     0.015869
    138 C                    -0.011668
    139 C                    -0.017495
    140 C                    -0.006645
    141 C                     0.037642
    142 C                     0.030667
    143 C                     0.005523
    144 C                    -0.008338
    145 C                    -0.019779
    146 C                     0.002161
    147 C                    -0.008245
    148 C                     0.067896
    149 C                     0.010774
    150 C                     0.005352
    151 C                    -0.020312
    152 C                    -0.025073
    153 C                    -0.025202
    154 C                     0.015816
    155 C                     0.017321
    156 C                    -0.017749
    157 C                     0.011236
    158 C                     0.003032
    159 C                    -0.037774
    160 C                    -0.038306
    161 C                     0.003293
    162 C                    -0.009076
    163 C                     0.017539
    164 C                     0.003478
    165 C                    -0.019546
    166 C                    -0.005891
    167 C                     0.019918
    168 C                     0.006998
    169 C                     0.002277
    170 C                     0.011749
    171 C                    -0.011838
    172 C                    -0.007276
    173 C                    -0.014304
    174 C                     0.015125
    175 C                     0.007035
    176 C                    -0.031527
  ----------------------------------------
  Sum of atomic charges =     0.000000

                    Cartesian Multipole Moments
 -----------------------------------------------------------------
    Charge (ESU x 10^10)
                 0.0000
    Dipole Moment (Debye)
         X      -2.6797      Y       0.6681      Z      -1.7018
       Tot       3.2440
    Quadrupole Moments (Debye-Ang)
        XX    -794.1739     XY      28.3577     YY    -793.5820
        XZ      -2.8571     YZ      -7.5902     ZZ    -800.1005

 Total job time:  859.22s(wall), 8248.26s(cpu)
        *  Thank you very much for using Q-Chem.  Have a nice day.  *
