 Q-Chem 4.4, Q-Chem, Inc., Pleasanton, CA (2016)
 Q-Chem 4.4.2 for Intel X86 Linux

User input:
--------------------------------------------------------------
$comment
SP
$end

$rem
MEM_STATIC 5000
MEM_TOTAL 20000
JOBTYPE SP
EXCHANGE B3LYP
BASIS 6-31g(d,p)
$end

$molecule
0 1
O         -22.661000     11.965000      5.695000
C         -23.991000     12.348000      5.225000
H         -24.525000     11.542000      4.708000
H         -23.917000     13.124000      4.453000
H         -24.621000     12.703000      6.050000
O         -21.735000     11.805000      3.647000
C         -21.662000     11.702000      4.877000
C         -20.511000     11.064000      5.606000
H         -21.119000     10.320000      6.136000
H         -19.967000     11.673000      6.339000
C         -19.577000     10.403000      4.569000
H         -20.132000      9.749000      3.885000
H         -18.980000     11.137000      4.012000
C         -18.699000      9.368000      5.292000
H         -18.007000      8.978000      4.535000
H         -17.930000      9.826000      5.925000
C         -19.414000      8.119000      5.990000
C         -20.425000      7.506000      5.083000
C         -21.830000      7.389000      5.284000
H         -22.217000      7.731000      6.240000
C         -22.699000      6.658000      4.397000
H         -23.727000      6.482000      4.702000
C         -22.128000      6.121000      3.232000
H         -22.633000      5.545000      2.463000
C         -20.766000      6.329000      2.997000
H         -20.363000      5.897000      2.086000
C         -19.959000      7.034000      3.835000
H         -18.920000      7.138000      3.538000
C         -21.463000      6.140000     10.759000
C         -20.623000      4.183000      9.588000
C         -17.054000      3.312000     12.124000
C         -17.607000      9.564000     10.969000
C         -14.797000      4.685000      9.933000
C         -21.280000      5.444000      9.562000
C         -15.212000      8.083000     11.118000
C         -19.333000      4.130000     12.721000
C         -17.639000      4.930000      7.053000
C         -16.873000      9.255000      9.794000
C         -18.601000      7.140000      6.748000
C         -16.574000      5.890000      7.117000
C         -15.479000      7.863000      8.732000
C         -14.550000      6.829000     11.107000
C         -19.969000      5.216000      7.732000
C         -15.402000      4.790000     12.167000
C         -19.510000      8.104000      7.511000
C         -18.852000      9.016000      8.482000
C         -15.220000      4.012000     11.059000
C         -18.255000      7.233000     13.519000
C         -17.340000      5.200000     13.603000
C         -18.763000      5.114000     13.503000
C         -20.462000      4.307000     12.009000
C         -19.543000      9.090000      9.661000
C         -18.875000      5.643000      6.926000
C         -20.310000      3.572000     10.830000
C         -15.708000      8.562000      9.886000
C         -19.892000      4.035000      8.422000
C         -15.522000      5.612000      7.961000
C         -19.465000      8.720000     12.047000
C         -18.504000      3.116000     12.098000
C         -17.076000      7.185000      7.043000
C         -20.488000      6.671000     12.736000
C         -14.875000      6.627000      8.724000
C         -17.580000      3.780000      7.844000
C         -15.903000      7.063000     12.964000
C         -15.937000      8.339000     12.304000
C         -16.460000      3.490000      8.624000
C         -19.009000      9.317000     10.906000
C         -17.476000      9.042000      8.557000
C         -18.301000      8.444000     12.814000
C         -20.615000      7.502000      8.392000
C         -18.289000      2.679000      9.665000
C         -16.593000      8.191000      7.888000
C         -15.391000      4.385000      8.685000
C         -20.550000      7.871000     12.008000
C         -16.266000      3.069000     10.984000
C         -21.002000      5.611000     11.984000
C         -16.498000      4.332000     12.904000
C         -18.704000      3.314000      8.505000
C         -16.915000      2.795000      9.752000
C         -20.855000      6.091000      8.437000
C         -20.668000      8.201000      9.626000
C         -17.049000      6.569000     13.606000
C         -19.105000      2.812000     10.865000
C         -14.466000      6.045000      9.933000
C         -17.165000      8.990000     12.175000
C         -15.049000      6.153000     12.223000
C         -21.125000      7.503000     10.779000
C         -19.339000      6.379000     13.562000
O         -10.519000      6.900000     -1.511000
C         -11.064000      7.939000     -2.343000
H         -10.225000      8.344000     -2.923000
H         -11.681000      8.676000     -1.813000
H         -11.662000      7.468000     -3.133000
O         -12.318000      6.782000     -0.120000
C         -11.196000      6.473000     -0.390000
C         -10.469000      5.413000      0.366000
H          -9.973000      5.929000      1.198000
H          -9.841000      5.018000     -0.442000
C         -11.287000      4.332000      1.050000
H         -11.628000      4.739000      2.010000
H         -12.146000      4.064000      0.422000
C         -10.410000      3.225000      1.498000
H          -9.844000      2.748000      0.689000
H          -9.538000      3.573000      2.065000
C         -11.129000      2.184000      2.334000
C         -12.272000      1.517000      1.526000
C         -11.981000      0.551000      0.616000
H         -10.932000      0.325000      0.451000
C         -12.975000     -0.199000      0.052000
H         -12.616000     -0.996000     -0.593000
C         -14.322000     -0.021000      0.470000
H         -15.146000     -0.703000      0.282000
C         -14.684000      1.089000      1.247000
H         -15.728000      1.296000      1.464000
C         -13.587000      1.768000      1.823000
H         -13.938000      2.614000      2.406000
C         -13.650000      1.365000      7.180000
C         -12.772000     -0.801000      6.488000
C          -9.391000     -1.091000      9.544000
C          -9.762000      4.663000      6.964000
C          -6.895000     -0.177000      7.244000
C         -13.287000      0.443000      6.173000
C          -7.388000      3.340000      7.622000
C         -11.657000     -0.220000      9.776000
C          -9.467000     -0.596000      4.251000
C          -8.900000      4.186000      5.961000
C         -10.390000      1.410000      3.385000
C          -8.418000      0.297000      4.147000
C          -7.465000      2.586000      5.357000
C          -6.789000      2.116000      8.014000
C         -11.842000     -0.224000      4.520000
C          -7.677000      0.409000      9.436000
C         -11.361000      2.466000      3.799000
C         -10.834000      3.632000      4.492000
C          -7.418000     -0.565000      8.461000
C         -10.623000      3.210000      9.935000
C          -9.757000      1.123000     10.419000
C         -11.182000      0.941000     10.298000
C         -12.723000     -0.136000      8.849000
C         -11.656000      3.965000      5.614000
C         -10.673000      0.016000      3.804000
C         -12.435000     -1.098000      7.837000
C          -7.706000      3.566000      6.315000
C         -11.845000     -1.163000      5.451000
C          -7.366000      0.249000      5.079000
C         -11.738000      4.271000      8.017000
C         -10.804000     -1.205000      9.365000
C          -8.891000      1.515000      3.682000
C         -12.820000      2.285000      9.071000
C          -6.869000      1.424000      5.723000
C          -9.487000     -1.644000      5.196000
C          -8.288000      2.752000      9.542000
C          -8.206000      3.790000      8.672000
C          -8.435000     -1.690000      6.126000
C         -11.138000      4.545000      6.771000
C          -9.426000      3.610000      4.785000
C         -10.688000      4.223000      8.981000
C         -12.551000      2.138000      4.642000
C         -10.360000     -2.147000      7.181000
C          -8.520000      2.662000      4.388000
C          -7.415000     -0.737000      6.094000
C         -12.798000      3.334000      8.043000
C          -8.469000     -1.488000      8.532000
C         -13.283000      1.118000      8.494000
C          -8.881000      0.054000     10.085000
C         -10.715000     -1.932000      5.823000
C          -8.994000     -2.036000      7.365000
C         -12.708000      0.818000      4.983000
C         -12.698000      3.035000      5.703000
C          -9.496000      2.511000     10.217000
C         -11.230000     -1.720000      8.114000
C          -6.561000      1.144000      7.051000
C          -9.451000      4.415000      8.323000
C          -7.366000      1.755000      9.223000
C         -13.332000      2.719000      6.884000
C         -11.698000      2.251000      9.983000
$end

--------------------------------------------------------------

             Standard Nuclear Orientation (Angstroms)
    I     Atom           X                Y                Z
 ----------------------------------------------------------------
    1      O     -10.1825139654     4.6438724938     1.2061309463
    2      C     -11.3441221419     5.3482854989     0.6667259386
    3      H     -11.2208855020     5.6692539264    -0.3743662759
    4      H     -11.4983612332     6.2966969564     1.1962181575
    5      H     -12.2510389106     4.7343988308     0.7314957883
    6      O      -8.8290777936     6.4447448455     1.2556213683
    7      C      -9.0267354068     5.2364487754     1.4282193839
    8      C      -7.9412065592     4.2324851266     1.7056542643
    9      H      -8.1756009601     3.5828167255     0.8529584022
   10      H      -8.0070112524     3.6485018021     2.6323360971
   11      C      -6.5726586157     4.9269634343     1.5341246562
   12      H      -6.5044199485     5.4526649568     0.5736152115
   13      H      -6.3350737906     5.6006935593     2.3678243441
   14      C      -5.4974296162     3.8455268279     1.3360957064
   15      H      -4.5389747835     4.3778051121     1.2907397596
   16      H      -5.2758030783     3.2885999041     2.2539889896
   17      C      -5.5945520680     2.9034770195     0.0470885737
   18      C      -5.8612609463     3.7037543821    -1.1813093737
   19      C      -6.9895571672     3.6348922229    -2.0475198798
   20      H      -7.7257302336     2.8656362363    -1.8308093738
   21      C      -7.0839113608     4.3666481836    -3.2852280441
   22      H      -7.9017050593     4.1400991963    -3.9639577569
   23      C      -6.0427487398     5.2586830839    -3.5883602483
   24      H      -5.9536309541     5.8820374866    -4.4724695791
   25      C      -4.9887441067     5.3906897485    -2.6799652495
   26      H      -4.2034823638     6.0896128185    -2.9516719616
   27      C      -4.9185398925     4.7050214685    -1.5071701360
   28      H      -4.0558502685     4.9021551861    -0.8783212591
   29      C      -7.4180375855    -1.9741245870    -1.8873638385
   30      C      -5.4077818473    -1.5121111009    -3.1727063631
   31      C      -2.6959319624    -4.5709385093    -1.3790667427
   32      C      -6.1518413054    -1.6231763949     3.1036475166
   33      C      -1.0362298711    -2.3434584740     0.6367161475
   34      C      -6.5994546486    -1.0540260953    -2.5461921476
   35      C      -3.4659825099    -2.4540690018     3.3212871421
   36      C      -5.1265594783    -4.6524928762    -1.9311290258
   37      C      -2.7411828690     0.7831996157    -1.2993968309
   38      C      -5.0963229173    -0.6745395235     3.0748201224
   39      C      -4.6104378737     1.8119453485    -0.1374428969
   40      C      -2.4005418992     0.8785103372     0.0915742673
   41      C      -2.9626588771    -0.2162516086     2.5786407693
   42      C      -2.2645886070    -2.8754901345     2.6968370489
   43      C      -4.9531231344     0.4771902341    -2.2920778072
   44      C      -2.1474275133    -4.3727108926     0.7599250014
   45      C      -6.0493104778     1.4621030667     0.2433483936
   46      C      -6.2428216796     0.7255416158     1.5191146904
   47      C      -1.3088947643    -3.5606529945     0.0503499179
   48      C      -6.0921525922    -4.6447282893     1.3084800015
   49      C      -4.2985086587    -5.4073111131     0.2228102189
   50      C      -5.3816032915    -5.1788132839    -0.6810812340
   51      C      -5.9552390319    -3.7989209494    -2.5616995319
   52      C      -7.1404557733    -0.2988448416     1.3853857872
   53      C      -4.0875309023     1.2450287039    -1.4614303657
   54      C      -5.1457616391    -2.9036632187    -3.2664192962
   55      C      -3.8092428905    -1.0894595981     3.2059854237
   56      C      -4.4419477536    -0.5256885905    -3.0729259316
   57      C      -1.6143859124    -0.1210288974     0.6199719233
   58      C      -7.4856249881    -2.6843327848     1.5475137807
   59      C      -3.7615844624    -4.4413221599    -2.3736401946
   60      C      -3.4723389383     1.3748028857     0.8260467400
   61      C      -7.4079660059    -3.8123075129    -0.5599237855
   62      C      -1.8185514362    -0.6289475460     1.9357751325
   63      C      -2.2865183202    -0.3049562503    -2.0483020047
   64      C      -3.9549724446    -4.4260306387     2.4280608849
   65      C      -4.4890137175    -3.4293238787     3.3148007304
   66      C      -1.4227005299    -1.2545534397    -1.5015077080
   67      C      -7.1422957501    -1.4782458231     2.0894596039
   68      C      -5.1598422489     0.5089047115     2.3436757884
   69      C      -6.5902313376    -3.6224367090     2.1285406629
   70      C      -6.8504340291     0.5740767183    -0.7206019474
   71      C      -2.7410262310    -2.2742773170    -3.0209890536
   72      C      -3.8254749126     0.8044588469     2.0546038861
   73      C      -1.0437507004    -1.1754102624    -0.1607465867
   74      C      -7.9073926612    -2.7694925758     0.2381601845
   75      C      -1.6403196026    -3.6427426138    -1.3180100021
   76      C      -7.0749948748    -3.3424792493    -1.8333803527
   77      C      -2.9808216781    -5.0835117882    -0.1086170257
   78      C      -3.1191636804    -0.9425975959    -2.9524967949
   79      C      -1.7102060095    -2.4763892503    -2.1235140192
   80      C      -6.3116985216     0.1545629900    -1.9792990058
   81      C      -7.5745562877    -0.3948069192     0.0217439636
   82      C      -4.7858701696    -5.0511493770     1.4855368621
   83      C      -3.7764650471    -3.2879180645    -3.1757271979
   84      C      -1.4856496874    -1.9914521464     1.9147123815
   85      C      -5.7956460361    -2.9842005068     3.1074286794
   86      C      -2.5947617247    -4.0755908560     2.0626628059
   87      C      -7.8684254122    -1.6410741465    -0.5994813867
   88      C      -6.5312177959    -4.8094785494     0.0099038202
   89      O       4.1588795144     8.7077578940     2.8848487640
   90      C       3.3791187064     9.8571379682     3.2585712909
   91      H       3.9923835462    10.4318685643     3.9642177876
   92      H       2.3557651939     9.6317882275     3.5852562810
   93      H       3.3427259570    10.5408127211     2.4013610483
   94      O       2.4105618847     7.5496464205     1.9975104516
   95      C       3.5516961409     7.5938215444     2.3484038368
   96      C       4.5093377293     6.4905835610     2.0493159897
   97      H       4.4286502181     5.7911122598     2.8911743058
   98      H       5.4314433309     7.0770776250     1.9543477197
   99      C       4.2435745293     5.6213084061     0.8330628801
  100      H       3.5093802214     4.8617201260     1.1288911461
  101      H       3.8474290533     6.2377710135     0.0162816269
  102      C       5.4255732216     4.7811569054     0.5292429548
  103      H       6.3409404990     5.3520439477     0.3328842717
  104      H       5.8054697770     4.2441803675     1.4069170429
  105      C       5.1805103200     3.7676513803    -0.5717968832
  106      C       4.8102264217     4.4729089360    -1.9020989597
  107      C       5.7862657214     5.0306723949    -2.6651089265
  108      H       6.7978371354     5.0067293118    -2.2715965338
  109      C       5.5188638556     5.4634253317    -3.9339088074
  110      H       6.3937921271     5.8097135824    -4.4767715591
  111      C       4.2269912972     5.2659006412    -4.4932533251
  112      H       3.9664036420     5.3413377078    -5.5448460803
  113      C       3.1510331935     4.8837692746    -3.6789052558
  114      H       2.1403870842     4.8522313759    -4.0757349455
  115      C       3.5363858946     4.4078712404    -2.4056219579
  116      H       2.6577692457     4.1337148418    -1.8297078554
  117      C       2.3425988206    -0.7993009026    -1.8363613012
  118      C       4.3727795794    -0.8571713890    -3.1840708742
  119      C       6.4939804992    -4.2240221714    -0.9437094152
  120      C       3.8090278589    -0.0824374744     2.9984806508
  121      C       8.6173026627    -2.0505095200     0.8234232183
  122      C       3.3783362798    -0.1446220375    -2.5396005912
  123      C       6.2656831263    -1.3503213661     3.4185810372
  124      C       4.1382713354    -3.9444506286    -1.5091252691
  125      C       7.5103146094     0.9639528053    -1.5081831677
  126      C       5.0134807890     0.6402610630     2.9386311447
  127      C       5.9222930810     2.4640395187    -0.5841439492
  128      C       7.9158514068     1.2017960288    -0.2090925215
  129      C       7.1742878300     0.5986064607     2.3789715825
  130      C       7.2981965967    -2.1397658591     2.8517174505
  131      C       5.3202341019     1.0777700409    -2.5289490604
  132      C       7.1193492948    -3.8826588896     1.2223572918
  133      C       4.4728956854     2.4795633412    -0.2258435155
  134      C       4.1094469774     2.0947491620     1.1296479393
  135      C       8.0901109727    -3.2617622077     0.4233009264
  136      C       3.1260912769    -3.2301145623     1.8560719782
  137      C       4.8072998360    -4.3834287358     0.7683288109
  138      C       3.7785650649    -4.1621605402    -0.2171330890
  139      C       3.4641561863    -2.9198075583    -2.2151113486
  140      C       2.9833198817     1.2131839627     1.1179191846
  141      C       6.3225631849     1.6981705564    -1.7891811173
  142      C       4.4614595040    -2.2634808760    -2.9943118225
  143      C       6.2192552924    -0.0063913314     3.1902271056
  144      C       5.5778416536    -0.0764520219    -3.1204731759
  145      C       8.5583495416     0.1842372534     0.5185078396
  146      C       2.1473311316    -0.9775078117     1.7317280793
  147      C       5.4537604658    -3.9294424535    -1.8779315900
  148      C       7.0071372599     2.0450283860     0.4127400852
  149      C       2.0515503618    -2.4283475521    -0.2960110785
  150      C       8.1782240963    -0.1480357811     1.8554705453
  151      C       7.8081255857    -0.2328644997    -2.1942341576
  152      C       5.3605034766    -3.2460477680     2.7635885099
  153      C       5.0992646214    -2.1303558331     3.4902615910
  154      C       8.4500741659    -1.2479479405    -1.4653805175
  155      C       2.8044612914     0.2202190524     2.0798980262
  156      C       5.1885490082     1.6533418244     1.9719634202
  157      C       2.7801111299    -2.0253033360     2.4637212577
  158      C       3.4678523135     1.7154567608    -1.0260697050
  159      C       6.8635294144    -2.1691601132    -2.7544665831
  160      C       6.5239406372     1.6597193018     1.6656343080
  161      C       8.7822126508    -1.0582688452    -0.1224959850
  162      C       1.7758335432    -1.1524641605     0.3776140450
  163      C       7.7071358743    -3.4765480259    -0.9066494962
  164      C       2.4380690223    -2.1613333276    -1.5954316143
  165      C       6.1662900612    -4.4682738634     0.3588903268
  166      C       6.8058110515    -0.7757252245    -3.0217151593
  167      C       7.8659595516    -2.4641413758    -1.8487884532
  168      C       3.9509633611     1.0310015425    -2.1130171599
  169      C       2.6067823627     0.9782656651    -0.2093403568
  170      C       4.3374541469    -3.8233815044     1.9935068090
  171      C       5.6966907632    -2.8386343269    -2.7513298391
  172      C       8.2397313032    -1.5262797476     2.0385236315
  173      C       3.8482346249    -1.4813744717     3.2142214841
  174      C       6.7149947319    -3.3296945193     2.4407717503
  175      C       1.9606979260    -0.1658244088    -0.6219004173
  176      C       2.7484765984    -3.4306351907     0.4795514982
 ----------------------------------------------------------------

    9   -5804.2339379192      8.03E-06 Convergence criterion met
 Total energy in the final basis set = -5804.2339379192

                    Orbital Energies (a.u.)
 --------------------------------------------------------------

 Alpha MOs
 -- Occupied --
-19.194 -19.190 -19.133 -19.123 -10.312 -10.310 -10.250 -10.246
-10.243 -10.242 -10.241 -10.235 -10.232 -10.231 -10.230 -10.228
-10.227 -10.225 -10.225 -10.224 -10.223 -10.223 -10.223 -10.222
-10.221 -10.221 -10.220 -10.220 -10.220 -10.219 -10.219 -10.219
-10.218 -10.218 -10.218 -10.218 -10.218 -10.217 -10.217 -10.217
-10.217 -10.217 -10.216 -10.216 -10.216 -10.216 -10.216 -10.215
-10.215 -10.215 -10.215 -10.215 -10.215 -10.215 -10.215 -10.215
-10.215 -10.215 -10.214 -10.214 -10.214 -10.214 -10.214 -10.213
-10.213 -10.213 -10.213 -10.213 -10.213 -10.213 -10.213 -10.213
-10.213 -10.213 -10.213 -10.213 -10.213 -10.212 -10.212 -10.212
-10.212 -10.212 -10.212 -10.212 -10.212 -10.211 -10.211 -10.211
-10.211 -10.211 -10.211 -10.211 -10.210 -10.210 -10.210 -10.210
-10.210 -10.210 -10.210 -10.210 -10.209 -10.209 -10.209 -10.209
-10.209 -10.209 -10.209 -10.209 -10.209 -10.209 -10.209 -10.209
-10.208 -10.208 -10.208 -10.208 -10.208 -10.208 -10.208 -10.208
-10.207 -10.207 -10.207 -10.207 -10.206 -10.206 -10.205 -10.205
-10.205 -10.204 -10.203 -10.203 -10.202 -10.200 -10.200 -10.199
-10.199 -10.199 -10.197 -10.197 -10.197 -10.196 -10.193 -10.192
-10.191 -10.191 -10.190 -10.190  -1.099  -1.094  -1.017  -0.995
 -0.986  -0.982  -0.969  -0.965  -0.964  -0.963  -0.961  -0.960
 -0.934  -0.932  -0.930  -0.928  -0.928  -0.926  -0.924  -0.922
 -0.922  -0.920  -0.899  -0.897  -0.891  -0.888  -0.884  -0.883
 -0.878  -0.872  -0.860  -0.851  -0.846  -0.843  -0.841  -0.841
 -0.841  -0.833  -0.825  -0.819  -0.811  -0.804  -0.800  -0.799
 -0.798  -0.796  -0.795  -0.793  -0.792  -0.789  -0.786  -0.784
 -0.772  -0.772  -0.771  -0.771  -0.770  -0.764  -0.764  -0.762
 -0.754  -0.747  -0.747  -0.746  -0.733  -0.732  -0.720  -0.716
 -0.716  -0.714  -0.714  -0.713  -0.712  -0.711  -0.709  -0.708
 -0.708  -0.706  -0.705  -0.705  -0.704  -0.701  -0.676  -0.672
 -0.661  -0.660  -0.659  -0.655  -0.648  -0.645  -0.632  -0.630
 -0.627  -0.626  -0.623  -0.622  -0.621  -0.620  -0.619  -0.617
 -0.616  -0.615  -0.614  -0.613  -0.612  -0.611  -0.610  -0.609
 -0.607  -0.604  -0.604  -0.601  -0.567  -0.566  -0.565  -0.563
 -0.562  -0.560  -0.558  -0.557  -0.556  -0.553  -0.553  -0.549
 -0.537  -0.534  -0.533  -0.532  -0.530  -0.527  -0.527  -0.526
 -0.524  -0.523  -0.521  -0.520  -0.516  -0.513  -0.512  -0.512
 -0.507  -0.505  -0.503  -0.501  -0.497  -0.493  -0.488  -0.486
 -0.485  -0.483  -0.482  -0.481  -0.480  -0.480  -0.475  -0.475
 -0.471  -0.470  -0.470  -0.469  -0.469  -0.468  -0.467  -0.466
 -0.466  -0.465  -0.463  -0.463  -0.463  -0.460  -0.460  -0.459
 -0.457  -0.455  -0.453  -0.452  -0.449  -0.445  -0.444  -0.443
 -0.443  -0.442  -0.440  -0.439  -0.438  -0.437  -0.434  -0.432
 -0.432  -0.431  -0.428  -0.427  -0.427  -0.426  -0.424  -0.423
 -0.423  -0.422  -0.422  -0.421  -0.421  -0.420  -0.419  -0.418
 -0.418  -0.418  -0.417  -0.415  -0.414  -0.413  -0.413  -0.412
 -0.411  -0.411  -0.409  -0.405  -0.402  -0.401  -0.398  -0.398
 -0.395  -0.394  -0.390  -0.390  -0.388  -0.385  -0.384  -0.381
 -0.380  -0.379  -0.375  -0.371  -0.371  -0.369  -0.366  -0.365
 -0.364  -0.362  -0.361  -0.360  -0.359  -0.358  -0.357  -0.356
 -0.356  -0.355  -0.354  -0.353  -0.351  -0.350  -0.350  -0.348
 -0.348  -0.347  -0.347  -0.346  -0.345  -0.344  -0.342  -0.342
 -0.341  -0.340  -0.339  -0.339  -0.338  -0.336  -0.335  -0.333
 -0.332  -0.332  -0.330  -0.330  -0.328  -0.327  -0.321  -0.319
 -0.310  -0.308  -0.296  -0.294  -0.286  -0.285  -0.275  -0.272
 -0.269  -0.268  -0.268  -0.266  -0.266  -0.264  -0.263  -0.262
 -0.261  -0.260  -0.260  -0.258  -0.257  -0.256  -0.256  -0.252
 -0.250  -0.249  -0.245  -0.241  -0.220  -0.218  -0.214  -0.212
 -0.211  -0.209  -0.207  -0.206  -0.203  -0.199

          Ground-State Mulliken Net Atomic Charges

     Atom                 Charge (a.u.)
  ----------------------------------------
      1 O                    -0.454179
      2 C                    -0.093046
      3 H                     0.130636
      4 H                     0.137629
      5 H                     0.128411
      6 O                    -0.494144
      7 C                     0.602975
      8 C                    -0.269680
      9 H                     0.140230
     10 H                     0.134080
     11 C                    -0.163846
     12 H                     0.131989
     13 H                     0.117048
     14 C                    -0.212456
     15 H                     0.104050
     16 H                     0.099300
     17 C                     0.022638
     18 C                     0.085777
     19 C                    -0.134975
     20 H                     0.087892
     21 C                    -0.092630
     22 H                     0.097498
     23 C                    -0.077441
     24 H                     0.090564
     25 C                    -0.082461
     26 H                     0.086632
     27 C                    -0.095468
     28 H                     0.090865
     29 C                    -0.011955
     30 C                    -0.000065
     31 C                    -0.011152
     32 C                    -0.052533
     33 C                     0.024080
     34 C                    -0.011135
     35 C                    -0.000607
     36 C                     0.018240
     37 C                    -0.021844
     38 C                    -0.005180
     39 C                    -0.085594
     40 C                     0.023919
     41 C                    -0.004345
     42 C                    -0.027097
     43 C                     0.017416
     44 C                     0.020740
     45 C                    -0.082470
     46 C                     0.054550
     47 C                    -0.004216
     48 C                     0.018949
     49 C                    -0.024787
     50 C                     0.017012
     51 C                     0.008246
     52 C                     0.032009
     53 C                     0.026461
     54 C                    -0.003806
     55 C                     0.035163
     56 C                     0.004057
     57 C                    -0.000389
     58 C                     0.029856
     59 C                    -0.022045
     60 C                     0.027796
     61 C                    -0.013253
     62 C                    -0.020347
     63 C                     0.015809
     64 C                    -0.010242
     65 C                    -0.024847
     66 C                    -0.003978
     67 C                    -0.005829
     68 C                     0.012785
     69 C                    -0.001598
     70 C                    -0.013831
     71 C                     0.009209
     72 C                    -0.030395
     73 C                    -0.010641
     74 C                    -0.017026
     75 C                    -0.004773
     76 C                     0.008211
     77 C                     0.004989
     78 C                    -0.005452
     79 C                    -0.002277
     80 C                     0.020690
     81 C                    -0.027376
     82 C                     0.008884
     83 C                    -0.020212
     84 C                     0.014280
     85 C                     0.020910
     86 C                     0.008733
     87 C                     0.007323
     88 C                    -0.026817
     89 O                    -0.481769
     90 C                    -0.086328
     91 H                     0.123963
     92 H                     0.138045
     93 H                     0.121199
     94 O                    -0.454383
     95 C                     0.588497
     96 C                    -0.262519
     97 H                     0.137727
     98 H                     0.125934
     99 C                    -0.166595
    100 H                     0.113127
    101 H                     0.124464
    102 C                    -0.178848
    103 H                     0.099971
    104 H                     0.100529
    105 C                     0.002504
    106 C                     0.125162
    107 C                    -0.103852
    108 H                     0.088427
    109 C                    -0.088360
    110 H                     0.089716
    111 C                    -0.094713
    112 H                     0.088539
    113 C                    -0.089023
    114 H                     0.099512
    115 C                    -0.136885
    116 H                     0.091582
    117 C                    -0.022435
    118 C                    -0.047816
    119 C                    -0.011674
    120 C                    -0.005782
    121 C                     0.015571
    122 C                     0.027882
    123 C                     0.012184
    124 C                     0.012981
    125 C                     0.035177
    126 C                    -0.026696
    127 C                    -0.088301
    128 C                     0.033775
    129 C                    -0.012994
    130 C                    -0.010976
    131 C                     0.038044
    132 C                    -0.015543
    133 C                    -0.057620
    134 C                    -0.012802
    135 C                    -0.000767
    136 C                     0.022508
    137 C                    -0.021616
    138 C                     0.004316
    139 C                    -0.017342
    140 C                     0.016896
    141 C                     0.007043
    142 C                    -0.009795
    143 C                     0.006680
    144 C                     0.007672
    145 C                    -0.041737
    146 C                     0.002660
    147 C                    -0.003764
    148 C                    -0.027814
    149 C                    -0.005479
    150 C                    -0.011303
    151 C                    -0.028994
    152 C                     0.012362
    153 C                    -0.026715
    154 C                    -0.004290
    155 C                    -0.015482
    156 C                     0.046972
    157 C                    -0.017218
    158 C                    -0.019563
    159 C                     0.021889
    160 C                     0.008516
    161 C                     0.017708
    162 C                    -0.026684
    163 C                    -0.006992
    164 C                     0.043227
    165 C                     0.005824
    166 C                    -0.021294
    167 C                     0.000332
    168 C                     0.031461
    169 C                     0.027489
    170 C                     0.022759
    171 C                     0.020294
    172 C                     0.016960
    173 C                    -0.000653
    174 C                     0.014102
    175 C                    -0.001033
    176 C                    -0.027825
  ----------------------------------------
  Sum of atomic charges =     0.000000

                    Cartesian Multipole Moments
 -----------------------------------------------------------------
    Charge (ESU x 10^10)
                 0.0000
    Dipole Moment (Debye)
         X       0.0299      Y       3.8077      Z      -0.6211
       Tot       3.8582
    Quadrupole Moments (Debye-Ang)
        XX    -773.9695     XY      14.5309     YY    -800.6068
        XZ       7.4378     YZ      -4.0649     ZZ    -796.3362

 Total job time:  863.69s(wall), 8209.89s(cpu)
        *  Thank you very much for using Q-Chem.  Have a nice day.  *
