 Q-Chem 4.4, Q-Chem, Inc., Pleasanton, CA (2016)
 Q-Chem 4.4.2 for Intel X86 Linux

User input:
--------------------------------------------------------------
$comment
SP
$end

$rem
MEM_STATIC 5000
MEM_TOTAL 20000
JOBTYPE SP
EXCHANGE B3LYP
BASIS 6-31g(d,p)
$end

$molecule
0 1
O         -22.130000     -7.863000    -13.402000
C         -22.219000     -7.156000    -14.670000
H         -22.606000     -7.821000    -15.452000
H         -21.209000     -6.840000    -14.956000
H         -22.860000     -6.268000    -14.603000
O         -20.557000     -9.217000    -14.116000
C         -21.272000     -8.885000    -13.256000
C         -21.466000     -9.665000    -11.956000
H         -20.771000     -9.262000    -11.209000
H         -21.217000    -10.723000    -12.109000
C         -22.984000     -9.553000    -11.583000
H         -23.213000     -8.539000    -11.233000
H         -23.539000     -9.727000    -12.514000
C         -23.385000    -10.516000    -10.438000
H         -23.177000    -11.551000    -10.734000
H         -22.786000    -10.409000     -9.525000
C         -24.857000    -10.455000    -10.033000
C         -25.796000    -11.172000    -10.952000
C         -26.232000    -10.609000    -12.189000
H         -25.950000     -9.621000    -12.539000
C         -27.155000    -11.376000    -12.945000
H         -27.533000    -11.077000    -13.918000
C         -27.532000    -12.727000    -12.636000
H         -28.195000    -13.310000    -13.270000
C         -26.996000    -13.305000    -11.487000
H         -27.214000    -14.332000    -11.208000
C         -26.184000    -12.528000    -10.658000
H         -25.738000    -12.951000     -9.763000
C         -29.258000     -7.579000     -8.513000
C         -29.527000     -9.683000     -7.470000
C         -28.770000     -8.220000     -3.259000
C         -24.776000     -5.686000     -7.366000
C         -25.444000     -9.399000     -3.134000
C         -29.141000     -9.019000     -8.572000
C         -24.093000     -6.451000     -4.728000
C         -29.986000     -7.152000     -4.989000
C         -25.961000    -11.467000     -6.578000
C         -23.932000     -6.751000     -7.126000
C         -25.203000    -10.413000     -8.570000
C         -24.709000    -10.922000     -6.302000
C         -23.465000     -8.499000     -5.849000
C         -24.523000     -7.211000     -3.609000
C         -27.603000    -10.728000     -8.248000
C         -26.744000     -7.370000     -2.672000
C         -25.454000     -9.225000     -9.454000
C         -24.840000     -7.900000     -9.030000
C         -26.629000     -8.772000     -2.699000
C         -27.567000     -4.683000     -5.602000
C         -28.255000     -5.932000     -3.826000
C         -29.166000     -5.986000     -4.847000
C         -30.228000     -7.606000     -6.313000
C         -25.743000     -6.848000     -9.180000
C         -26.305000    -11.120000     -7.894000
C         -30.081000     -8.993000     -6.362000
C         -23.555000     -7.123000     -5.833000
C         -28.600000    -10.762000     -7.301000
C         -24.556000    -10.451000     -4.994000
C         -26.856000     -5.067000     -7.991000
C         -29.772000     -8.299000     -4.226000
C         -24.262000    -10.224000     -7.385000
C         -29.121000     -5.670000     -7.265000
C         -23.825000     -9.272000     -4.729000
C         -26.984000    -11.487000     -5.557000
C         -25.932000     -5.502000     -3.972000
C         -24.949000     -5.341000     -4.964000
C         -26.795000    -11.034000     -4.277000
C         -25.677000     -5.729000     -8.387000
C         -23.946000     -7.866000     -7.937000
C         -26.580000     -4.584000     -6.636000
C         -26.882000     -8.823000     -9.609000
C         -28.925000    -10.472000     -4.936000
C         -23.658000     -9.007000     -7.114000
C         -25.543000    -10.499000     -4.033000
C         -28.125000     -5.653000     -8.249000
C         -27.885000     -9.301000     -3.026000
C         -29.821000     -6.872000     -7.420000
C         -28.086000     -7.013000     -3.003000
C         -28.297000    -11.115000     -5.988000
C         -28.005000    -10.417000     -3.900000
C         -27.913000     -9.612000     -9.052000
C         -27.011000     -7.426000     -9.498000
C         -27.227000     -5.144000     -4.306000
C         -29.839000     -9.405000     -5.089000
C         -24.405000     -8.610000     -3.619000
C         -25.292000     -5.004000     -6.246000
C         -25.657000     -6.614000     -3.102000
C         -28.177000     -6.831000     -8.975000
C         -28.788000     -5.319000     -5.962000
O         -10.473000    -12.711000    -10.079000
C          -9.621000    -13.914000    -10.200000
H          -8.962000    -14.009000     -9.328000
H          -8.949000    -13.826000    -11.062000
H         -10.234000    -14.812000    -10.339000
O         -11.648000    -13.108000    -12.037000
C         -11.455000    -12.421000    -11.061000
C         -12.283000    -11.208000    -10.761000
H         -11.685000    -10.395000    -10.331000
H         -13.022000    -11.638000    -10.073000
C         -13.030000    -10.619000    -11.976000
H         -12.254000    -10.089000    -12.542000
H         -13.358000    -11.419000    -12.651000
C         -13.994000     -9.516000    -11.676000
H         -13.522000     -8.786000    -11.007000
H         -14.245000     -9.077000    -12.649000
C         -15.284000     -9.988000    -10.930000
C         -15.993000    -11.132000    -11.699000
C         -17.080000    -10.791000    -12.519000
H         -17.587000     -9.835000    -12.432000
C         -17.689000    -11.760000    -13.310000
H         -18.578000    -11.470000    -13.862000
C         -17.121000    -13.090000    -13.355000
H         -17.557000    -13.864000    -13.980000
C         -15.954000    -13.410000    -12.637000
H         -15.576000    -14.423000    -12.735000
C         -15.545000    -12.438000    -11.754000
H         -14.638000    -12.676000    -11.207000
C         -19.928000     -8.356000     -8.439000
C         -19.512000    -10.544000     -7.576000
C         -18.322000     -9.131000     -3.361000
C         -15.877000     -5.298000     -7.880000
C         -14.859000     -9.309000     -4.051000
C         -19.475000     -9.686000     -8.671000
C         -14.607000     -5.981000     -5.532000
C         -20.067000     -8.385000     -4.917000
C         -15.571000    -11.308000     -7.449000
C         -14.761000     -6.097000     -7.946000
C         -15.420000     -9.936000     -9.429000
C         -14.511000    -10.414000     -7.330000
C         -13.621000     -7.769000     -6.915000
C         -14.642000     -6.889000     -4.459000
C         -17.539000    -10.985000     -8.694000
C         -16.507000     -7.766000     -3.151000
C         -16.118000     -8.893000    -10.181000
C         -15.779000     -7.472000     -9.694000
C         -15.977000     -9.113000     -3.265000
C         -18.520000     -5.262000     -5.580000
C         -18.559000     -6.828000     -3.840000
C         -19.691000     -7.071000     -4.643000
C         -20.449000     -8.777000     -6.157000
C         -16.991000     -6.743000     -9.537000
C         -16.129000    -11.070000     -8.735000
C         -19.917000    -10.080000     -6.279000
C         -14.102000     -6.482000     -6.779000
C         -18.327000    -11.308000     -7.608000
C         -14.073000    -10.029000     -6.017000
C         -18.166000     -5.288000     -8.041000
C         -19.401000     -9.437000     -4.227000
C         -14.374000     -9.551000     -8.435000
C         -20.030000     -6.546000     -7.017000
C         -13.652000     -8.675000     -5.843000
C         -16.268000    -11.658000     -6.283000
C         -16.517000     -5.584000     -4.378000
C         -15.742000     -5.198000     -5.467000
C         -15.918000    -11.301000     -5.027000
C         -16.976000     -5.623000     -8.708000
C         -14.678000     -7.160000     -8.830000
C         -17.827000     -4.840000     -6.760000
C         -17.647000     -8.894000    -10.014000
C         -18.212000    -11.313000     -5.147000
C         -13.963000     -8.242000     -8.213000
C         -14.822000    -10.404000     -4.871000
C         -19.274000     -6.196000     -8.155000
C         -17.129000     -9.937000     -3.537000
C         -20.451000     -7.868000     -7.253000
C         -17.902000     -7.849000     -3.170000
C         -17.656000    -11.664000     -6.400000
C         -17.104000    -11.100000     -4.277000
C         -18.267000     -9.939000     -9.341000
C         -18.090000     -7.579000     -9.753000
C         -17.876000     -5.726000     -4.415000
C         -19.362000    -10.524000     -5.088000
C         -14.139000     -8.247000     -4.603000
C         -16.430000     -4.867000     -6.649000
C         -15.810000     -6.699000     -3.761000
C         -19.257000     -7.306000     -9.030000
C         -19.627000     -6.131000     -5.723000
$end

--------------------------------------------------------------

             Standard Nuclear Orientation (Angstroms)
    I     Atom           X                Y                Z
 ----------------------------------------------------------------
    1      O      -0.0243846242     4.9073323006     3.4003244604
    2      C       0.0093757084     5.7454628451     4.5885969166
    3      H      -0.1698966531     6.7943348071     4.3216755281
    4      H       1.0092835515     5.6692949127     5.0314679490
    5      H      -0.7311776601     5.4324554656     5.3352702648
    6      O       1.7862095615     5.8108300028     2.5501000211
    7      C       0.9103772033     5.0470532556     2.4470866198
    8      C       0.6023282915     4.2662318850     1.1698004909
    9      H       1.1190967313     3.3002532488     1.2270600239
   10      H       0.9915354054     4.8031570206     0.2951558652
   11      C      -0.9584139280     4.1815457290     1.0561828025
   12      H      -1.3543234540     3.4852337749     1.8055440704
   13      H      -1.3347458293     5.1859294871     1.2899552700
   14      C      -1.4239295558     3.6555077542    -0.3243150241
   15      H      -1.0548075294     4.3170369247    -1.1169265849
   16      H      -0.9939429052     2.6870307591    -0.6088897774
   17      C      -2.9388338204     3.5553222936    -0.4962392596
   18      C      -3.6317059251     4.8539295589    -0.7681186757
   19      C      -3.9267380856     5.7927724685     0.2656917592
   20      H      -3.7072245745     5.6280333297     1.3158550011
   21      C      -4.6241427845     6.9653843071    -0.1220738427
   22      H      -4.8741736765     7.7717529956     0.5607644187
   23      C      -4.8888893664     7.3389792385    -1.4833772896
   24      H      -5.3717176497     8.2753453721    -1.7507895419
   25      C      -4.4800832297     6.4650508364    -2.4887168793
   26      H      -4.6210927075     6.6968130720    -3.5406182973
   27      C      -3.9042834857     5.2450372983    -2.1276966285
   28      H      -3.5610164536     4.5472351153    -2.8853970034
   29      C      -7.8245439829     1.8376320087     1.2729281416
   30      C      -8.0142334527     1.8612557704    -1.0830187641
   31      C      -8.1085614334    -2.6307645863    -1.5917371019
   32      C      -3.8276180838    -0.8457945824     2.6187316515
   33      C      -4.7322890526    -2.8817845590    -2.5945909218
   34      C      -7.5361598975     2.4792291452     0.0096159341
   35      C      -3.4901633926    -2.9854896288     0.7970325985
   36      C      -9.1476957150    -1.3200780794     0.0859043454
   37      C      -4.4555887723     1.1427200818    -2.9577002045
   38      C      -2.9166319616    -0.7682332147     1.5851700813
   39      C      -3.5156358879     2.3103194167    -1.1119633955
   40      C      -3.3338756528     0.4255136665    -2.5477250403
   41      C      -2.4623872710    -1.2448197646    -0.5292681471
   42      C      -4.0031390090    -3.5692121272    -0.3907321349
   43      C      -5.8844969603     2.6223318774    -1.6160015332
   44      C      -6.3120791230    -3.9019359753    -1.0185708010
   45      C      -3.7566890640     2.6356640929     0.3343578717
   46      C      -3.3731514431     1.5791333064     1.3585837210
   47      C      -6.0350809609    -3.3044037624    -2.2618669333
   48      C      -6.9596255692    -2.2938187794     2.6525108767
   49      C      -7.7743317468    -3.2010146386     0.7287721945
   50      C      -8.4991507082    -2.0993661484     1.0979416371
   51      C      -9.1226317292     0.0905029854     0.2510977357
   52      C      -4.3548287318     1.4388800788     2.3390181824
   53      C      -4.6231954054     2.2254837001    -2.0801285759
   54      C      -8.8124643128     0.6949450934    -0.9680105088
   55      C      -2.7101535043    -1.8263958466     0.6963391124
   56      C      -7.0089626007     1.9915507172    -2.0952364981
   57      C      -3.4456123617    -0.9609750181    -2.6935949664
   58      C      -5.8385824118    -0.1549089645     3.3795769278
   59      C      -8.9283575884    -1.5486970684    -1.2717399910
   60      C      -2.8028825826     1.0004677283    -1.4308650732
   61      C      -8.1064622323    -0.1038403533     2.4441502249
   62      C      -2.9053930398    -1.8374036683    -1.7268153094
   63      C      -5.6189188801     0.4455577466    -3.4576979432
   64      C      -5.5220938986    -3.7027048791     1.2562914619
   65      C      -4.4186868447    -3.0833985421     1.8688488344
   66      C      -5.6888449970    -0.9154614790    -3.6062476176
   67      C      -4.5438852614     0.2492501908     2.9981117707
   68      C      -2.6741744932     0.4255861382     0.9392972388
   69      C      -5.8385429728    -1.6117894521     3.2279548867
   70      C      -5.1782695297     2.8773397650     0.7158219579
   71      C      -7.7369320838    -0.1606373757    -2.8833334746
   72      C      -2.3924957476     0.1270792561    -0.4368222057
   73      C      -4.5609012655    -1.6001168995    -3.1912116027
   74      C      -6.9751528407     0.5670816568     2.9243207330
   75      C      -7.1544298235    -2.5481207552    -2.6352302107
   76      C      -8.6311540774     0.6790986113     1.4094840732
   77      C      -7.6161954470    -3.5020677160    -0.5974295078
   78      C      -6.8804012924     0.9218984914    -2.9782444854
   79      C      -7.0057871720    -1.2777129500    -3.2578869145
   80      C      -6.1879205003     2.9189031479    -0.2714006122
   81      C      -5.4817875148     2.2103424722     1.9173053927
   82      C      -6.7797562439    -3.3096739115     1.6812115529
   83      C      -8.7306304899    -0.3024904919    -1.8884791279
   84      C      -3.7262450990    -2.9885684937    -1.6386935660
   85      C      -4.5895801247    -2.0266478384     2.7225557144
   86      C      -5.2639475495    -4.0525962046    -0.1148414721
   87      C      -6.7762938811     1.7198300979     2.1833145618
   88      C      -8.0271968505    -1.4696273486     2.1987080066
   89      O      11.4315959928     1.7803423627    -2.0230991846
   90      C      12.4235896335     2.2342809857    -3.0219196606
   91      H      12.9419795389     1.3763395675    -3.4678999615
   92      H      13.2096619019     2.8296251091    -2.5423075637
   93      H      11.9469922969     2.8570918232    -3.7877235778
   94      O      10.6360486864     3.9073750936    -1.5595970325
   95      C      10.5917065393     2.7149973570    -1.3644993459
   96      C       9.5936363293     2.0938703380    -0.4344401638
   97      H      10.0189336120     1.2527136729     0.1268535971
   98      H       8.8085487747     1.8106829544    -1.1470462523
   99      C       8.9871547283     3.0621933332     0.6027124983
  100      H       9.7777142138     3.1878471512     1.3528183694
  101      H       8.8641214038     4.0624268800     0.1695789703
  102      C       7.8682630344     2.5140472946     1.4294665716
  103      H       8.1414502953     1.5210942006     1.8071673440
  104      H       7.7268055744     3.2364212812     2.2422498210
  105      C       6.5383991104     2.3036925903     0.6353552179
  106      C       6.0959276449     3.6067455594    -0.0781221552
  107      C       5.1214839721     4.3967045536     0.5516987049
  108      H       4.5014005836     4.0112633152     1.3551199164
  109      C       4.7606150119     5.6255530678     0.0083499008
  110      H       3.9435311332     6.1619738064     0.4813739239
  111      C       5.4765006585     6.1210291446    -1.1473144961
  112      H       5.2366375727     7.0868239327    -1.5826340655
  113      C       6.5432254329     5.3969244545    -1.7108601050
  114      H       7.0450558068     5.8412005677    -2.5649338787
  115      C       6.6929873505     4.1240120285    -1.2118417449
  116      H       7.5225866394     3.5664419965    -1.6353776694
  117      C       1.4018474733     0.3027979141     0.8532973526
  118      C       1.9221206183     0.3891891774    -1.4762994804
  119      C       2.2574843836    -4.1686379760    -2.0172586141
  120      C       4.9367440423    -2.2725754022     3.4889006097
  121      C       5.7835546935    -4.1507034096    -1.7590735622
  122      C       2.0347016770     0.9858401827    -0.2241449040
  123      C       5.8866176604    -4.3038635047     1.8876193245
  124      C       0.7086372770    -2.7729567704    -0.7227225534
  125      C       5.8538392361    -0.1585935460    -2.0868965635
  126      C       6.1327980058    -2.0898961944     2.8375203649
  127      C       6.1603500134     0.9803266975     0.0189279359
  128      C       6.7724276568    -0.8482352240    -1.3010297368
  129      C       7.2774839300    -2.5110278757     0.9216687939
  130      C       5.7852007878    -4.8601938115     0.6002851769
  131      C       4.0850903779     1.1848197689    -1.3160878052
  132      C       3.8482667248    -5.2845579500    -0.8232384490
  133      C       5.4764877383     1.3367717343     1.2622445988
  134      C       5.5693731386     0.2367671937     2.3358801576
  135      C       4.5398017177    -4.7135032252    -1.9651582600
  136      C       1.9749249577    -3.8122253609     2.4240763450
  137      C       1.8385518275    -4.6780424030     0.2530765248
  138      C       0.8838922518    -3.6462449480     0.3495187687
  139      C       0.5759758967    -1.4360117193    -0.5433712543
  140      C       4.2726867123     0.0218727923     2.8812779097
  141      C       5.4840340335     0.9852387031    -1.3274916004
  142      C       1.2657255388    -0.8769670081    -1.6422031076
  143      C       6.6373460980    -3.0854915590     2.0016877904
  144      C       3.1764393902     0.5136148718    -2.1088717409
  145      C       6.9491929889    -2.2575687271    -1.5168331064
  146      C       2.7164883507    -1.6929247165     3.4923279597
  147      C       1.3720068535    -3.0645712406    -1.9479824465
  148      C       6.9840946371    -0.2641534336    -0.0366688107
  149      C       0.8691689760    -1.7043885830     1.8513173846
  150      C       7.1799206014    -3.0680952859    -0.3632974692
  151      C       5.0247832016    -0.9066289060    -2.9359985550
  152      C       3.7847222856    -5.1247849846     1.6741977772
  153      C       4.6739154176    -4.4751936876     2.5244381673
  154      C       5.1275111104    -2.2366776124    -3.1548647590
  155      C       4.0277764760    -1.1901837606     3.5237760722
  156      C       6.4760588101    -0.8723240976     2.2736017453
  157      C       2.7940720587    -3.0816359517     3.3438426968
  158      C       3.9506145773     1.4844194246     1.1371755939
  159      C       2.8983402716    -1.6829735362    -3.1893490642
  160      C       7.2025140437    -1.0960782998     1.0550637481
  161      C       6.0751757684    -2.9672612197    -2.3813401707
  162      C       1.7516301034    -0.9924968232     2.6900977379
  163      C       3.5473439504    -3.9005508414    -2.6240968019
  164      C       0.6446527591    -0.8526282888     0.7537209790
  165      C       2.4927404673    -4.9634073942    -0.9358700868
  166      C       3.6829258632    -0.5328805703    -2.9362529967
  167      C       3.8222292480    -2.7566475449    -3.3429273253
  168      C       3.3547649535     1.4529133518    -0.1171467702
  169      C       3.3246652917     0.7801752818     2.1887566318
  170      C       2.4740929519    -4.7695845098     1.5176814125
  171      C       1.6711981039    -1.8486539425    -2.5450090118
  172      C       6.4562846105    -4.2527240634    -0.5392480644
  173      C       4.1494740191    -3.4377891416     3.3173959390
  174      C       4.5070966187    -5.3329714759     0.4257600704
  175      C       2.0340973746     0.2498203980     2.0778280566
  176      C       1.0112113054    -3.1029170528     1.6696250738
 ----------------------------------------------------------------

    9   -5804.2628116572      8.11E-06 Convergence criterion met
 Total energy in the final basis set = -5804.2628116572

                    Orbital Energies (a.u.)
 --------------------------------------------------------------

 Alpha MOs
 -- Occupied --
-19.190 -19.185 -19.142 -19.135 -10.321 -10.313 -10.251 -10.247
-10.244 -10.242 -10.237 -10.236 -10.236 -10.236 -10.234 -10.229
-10.227 -10.226 -10.225 -10.225 -10.224 -10.224 -10.223 -10.222
-10.222 -10.221 -10.221 -10.221 -10.221 -10.221 -10.220 -10.220
-10.220 -10.220 -10.220 -10.220 -10.220 -10.220 -10.219 -10.219
-10.219 -10.219 -10.219 -10.219 -10.218 -10.218 -10.218 -10.218
-10.218 -10.218 -10.218 -10.217 -10.217 -10.217 -10.217 -10.217
-10.217 -10.217 -10.217 -10.216 -10.216 -10.216 -10.216 -10.216
-10.215 -10.215 -10.215 -10.215 -10.215 -10.215 -10.215 -10.214
-10.214 -10.214 -10.214 -10.214 -10.214 -10.214 -10.214 -10.214
-10.214 -10.213 -10.213 -10.213 -10.213 -10.213 -10.213 -10.213
-10.213 -10.212 -10.212 -10.212 -10.212 -10.212 -10.212 -10.212
-10.212 -10.211 -10.211 -10.211 -10.211 -10.211 -10.211 -10.210
-10.210 -10.210 -10.210 -10.210 -10.210 -10.209 -10.209 -10.209
-10.208 -10.208 -10.208 -10.208 -10.208 -10.208 -10.208 -10.208
-10.207 -10.207 -10.207 -10.206 -10.206 -10.206 -10.206 -10.206
-10.206 -10.205 -10.205 -10.205 -10.204 -10.204 -10.204 -10.203
-10.202 -10.202 -10.200 -10.199 -10.198 -10.198 -10.196 -10.193
-10.192 -10.191 -10.189 -10.189  -1.113  -1.077  -1.026  -1.005
 -0.984  -0.984  -0.968  -0.965  -0.964  -0.963  -0.962  -0.962
 -0.938  -0.934  -0.929  -0.926  -0.926  -0.926  -0.926  -0.923
 -0.921  -0.918  -0.899  -0.899  -0.893  -0.889  -0.888  -0.883
 -0.875  -0.873  -0.852  -0.848  -0.844  -0.842  -0.839  -0.839
 -0.839  -0.837  -0.823  -0.823  -0.810  -0.805  -0.803  -0.798
 -0.798  -0.796  -0.795  -0.793  -0.791  -0.790  -0.783  -0.783
 -0.774  -0.772  -0.771  -0.769  -0.767  -0.767  -0.763  -0.759
 -0.748  -0.748  -0.741  -0.738  -0.734  -0.733  -0.717  -0.716
 -0.716  -0.715  -0.715  -0.712  -0.712  -0.710  -0.710  -0.708
 -0.707  -0.707  -0.706  -0.706  -0.704  -0.702  -0.674  -0.672
 -0.661  -0.660  -0.658  -0.658  -0.650  -0.649  -0.633  -0.632
 -0.628  -0.626  -0.624  -0.623  -0.622  -0.620  -0.619  -0.617
 -0.615  -0.614  -0.613  -0.611  -0.611  -0.609  -0.608  -0.606
 -0.605  -0.604  -0.604  -0.602  -0.570  -0.566  -0.564  -0.562
 -0.561  -0.560  -0.559  -0.557  -0.557  -0.556  -0.554  -0.549
 -0.537  -0.535  -0.534  -0.534  -0.528  -0.528  -0.526  -0.524
 -0.523  -0.521  -0.521  -0.517  -0.517  -0.516  -0.515  -0.512
 -0.508  -0.504  -0.503  -0.502  -0.496  -0.491  -0.489  -0.488
 -0.485  -0.484  -0.482  -0.482  -0.481  -0.481  -0.475  -0.474
 -0.472  -0.472  -0.470  -0.470  -0.468  -0.467  -0.466  -0.465
 -0.465  -0.464  -0.464  -0.463  -0.463  -0.460  -0.459  -0.457
 -0.456  -0.456  -0.454  -0.453  -0.453  -0.446  -0.444  -0.444
 -0.443  -0.443  -0.441  -0.440  -0.440  -0.437  -0.436  -0.433
 -0.432  -0.429  -0.429  -0.428  -0.428  -0.426  -0.424  -0.424
 -0.424  -0.423  -0.422  -0.422  -0.420  -0.419  -0.419  -0.418
 -0.417  -0.417  -0.416  -0.416  -0.415  -0.414  -0.413  -0.413
 -0.412  -0.410  -0.410  -0.408  -0.404  -0.402  -0.400  -0.398
 -0.395  -0.395  -0.392  -0.389  -0.388  -0.387  -0.386  -0.384
 -0.381  -0.378  -0.374  -0.374  -0.369  -0.367  -0.366  -0.366
 -0.364  -0.363  -0.362  -0.362  -0.361  -0.359  -0.359  -0.358
 -0.356  -0.356  -0.354  -0.354  -0.353  -0.352  -0.352  -0.350
 -0.349  -0.348  -0.348  -0.347  -0.345  -0.344  -0.344  -0.343
 -0.343  -0.341  -0.340  -0.339  -0.338  -0.337  -0.335  -0.333
 -0.332  -0.331  -0.331  -0.330  -0.329  -0.327  -0.326  -0.322
 -0.312  -0.304  -0.303  -0.297  -0.290  -0.287  -0.277  -0.273
 -0.271  -0.270  -0.270  -0.268  -0.266  -0.266  -0.263  -0.263
 -0.262  -0.261  -0.260  -0.259  -0.258  -0.257  -0.254  -0.254
 -0.248  -0.248  -0.243  -0.242  -0.223  -0.221  -0.216  -0.211
 -0.210  -0.209  -0.207  -0.203  -0.202  -0.199

          Ground-State Mulliken Net Atomic Charges

     Atom                 Charge (a.u.)
  ----------------------------------------
      1 O                    -0.464782
      2 C                    -0.086242
      3 H                     0.127529
      4 H                     0.132849
      5 H                     0.127992
      6 O                    -0.447454
      7 C                     0.580143
      8 C                    -0.271601
      9 H                     0.139482
     10 H                     0.135472
     11 C                    -0.179449
     12 H                     0.123318
     13 H                     0.111487
     14 C                    -0.191376
     15 H                     0.108698
     16 H                     0.109165
     17 C                     0.019746
     18 C                     0.068199
     19 C                    -0.103503
     20 H                     0.099707
     21 C                    -0.101314
     22 H                     0.086102
     23 C                    -0.085657
     24 H                     0.094183
     25 C                    -0.082144
     26 H                     0.092502
     27 C                    -0.098073
     28 H                     0.087043
     29 C                    -0.013042
     30 C                     0.027004
     31 C                     0.005234
     32 C                     0.018611
     33 C                    -0.018551
     34 C                    -0.033073
     35 C                    -0.031801
     36 C                    -0.032724
     37 C                    -0.016070
     38 C                    -0.003336
     39 C                    -0.095229
     40 C                    -0.005979
     41 C                     0.005390
     42 C                     0.031097
     43 C                     0.033184
     44 C                    -0.007269
     45 C                    -0.066405
     46 C                     0.015225
     47 C                     0.018700
     48 C                    -0.038048
     49 C                     0.014559
     50 C                     0.011513
     51 C                    -0.008248
     52 C                     0.008529
     53 C                     0.030156
     54 C                     0.040483
     55 C                     0.009283
     56 C                    -0.036862
     57 C                     0.028079
     58 C                    -0.027096
     59 C                     0.001361
     60 C                     0.029450
     61 C                    -0.011598
     62 C                    -0.049325
     63 C                    -0.010843
     64 C                    -0.019575
     65 C                     0.005617
     66 C                    -0.014132
     67 C                     0.006748
     68 C                    -0.017697
     69 C                    -0.041018
     70 C                     0.031185
     71 C                     0.023880
     72 C                     0.015601
     73 C                     0.022528
     74 C                     0.001205
     75 C                    -0.016175
     76 C                    -0.015732
     77 C                    -0.002664
     78 C                    -0.004096
     79 C                    -0.014457
     80 C                     0.004003
     81 C                    -0.011597
     82 C                     0.008747
     83 C                    -0.022049
     84 C                    -0.005467
     85 C                     0.032620
     86 C                     0.001838
     87 C                     0.027245
     88 C                     0.048455
     89 O                    -0.506679
     90 C                    -0.081849
     91 H                     0.127913
     92 H                     0.126702
     93 H                     0.130792
     94 O                    -0.456376
     95 C                     0.602406
     96 C                    -0.255579
     97 H                     0.131033
     98 H                     0.139501
     99 C                    -0.195018
    100 H                     0.101405
    101 H                     0.144884
    102 C                    -0.172362
    103 H                     0.100151
    104 H                     0.119643
    105 C                     0.004219
    106 C                     0.100970
    107 C                    -0.115745
    108 H                     0.095973
    109 C                    -0.099598
    110 H                     0.114240
    111 C                    -0.101530
    112 H                     0.084616
    113 C                    -0.070102
    114 H                     0.103450
    115 C                    -0.121767
    116 H                     0.075892
    117 C                     0.023457
    118 C                    -0.030441
    119 C                     0.005445
    120 C                    -0.002697
    121 C                     0.032088
    122 C                    -0.010622
    123 C                    -0.001273
    124 C                     0.022177
    125 C                    -0.003452
    126 C                     0.008691
    127 C                    -0.068845
    128 C                     0.000867
    129 C                     0.010369
    130 C                    -0.006982
    131 C                     0.042841
    132 C                    -0.005584
    133 C                    -0.104113
    134 C                     0.017672
    135 C                    -0.037352
    136 C                    -0.004819
    137 C                     0.025835
    138 C                    -0.020425
    139 C                     0.000545
    140 C                     0.038317
    141 C                     0.004650
    142 C                     0.001055
    143 C                     0.004828
    144 C                    -0.010380
    145 C                    -0.028598
    146 C                    -0.020127
    147 C                    -0.007185
    148 C                     0.072636
    149 C                     0.012304
    150 C                    -0.014233
    151 C                     0.044491
    152 C                    -0.039764
    153 C                     0.017464
    154 C                    -0.013203
    155 C                    -0.012751
    156 C                    -0.017115
    157 C                     0.005860
    158 C                    -0.009082
    159 C                    -0.019787
    160 C                    -0.041644
    161 C                     0.005864
    162 C                    -0.004708
    163 C                     0.025831
    164 C                    -0.017022
    165 C                     0.009733
    166 C                    -0.001126
    167 C                    -0.038865
    168 C                     0.028644
    169 C                     0.006285
    170 C                     0.021101
    171 C                     0.008950
    172 C                    -0.001393
    173 C                     0.002583
    174 C                     0.006471
    175 C                    -0.026900
    176 C                    -0.013146
  ----------------------------------------
  Sum of atomic charges =     0.000000

                    Cartesian Multipole Moments
 -----------------------------------------------------------------
    Charge (ESU x 10^10)
                 0.0000
    Dipole Moment (Debye)
         X       1.5820      Y       2.4749      Z       0.1604
       Tot       2.9417
    Quadrupole Moments (Debye-Ang)
        XX    -802.5322     XY     -16.5627     YY    -799.7027
        XZ      -8.8632     YZ       1.7709     ZZ    -792.6262

 Total job time:  873.57s(wall), 8371.67s(cpu)
        *  Thank you very much for using Q-Chem.  Have a nice day.  *
