 Q-Chem 4.4, Q-Chem, Inc., Pleasanton, CA (2016)
 Q-Chem 4.4.2 for Intel X86 Linux

User input:
--------------------------------------------------------------
$comment
SP
$end

$rem
MEM_STATIC 5000
MEM_TOTAL 20000
JOBTYPE SP
EXCHANGE B3LYP
BASIS 6-31g(d,p)
$end

$molecule
0 1
O         -17.472000    -13.779000      0.371000
C         -18.881000    -14.181000      0.194000
H         -18.995000    -14.707000     -0.761000
H         -19.585000    -13.340000      0.203000
H         -19.273000    -14.880000      0.943000
O         -16.987000    -13.584000     -1.859000
C         -16.731000    -13.407000     -0.710000
C         -15.448000    -12.852000     -0.111000
H         -15.070000    -13.580000      0.618000
H         -15.716000    -11.910000      0.383000
C         -14.477000    -12.543000     -1.249000
H         -14.322000    -13.378000     -1.942000
H         -14.932000    -11.758000     -1.866000
C         -13.173000    -11.940000     -0.725000
H         -13.119000    -11.035000     -1.343000
H         -13.309000    -11.585000      0.305000
C         -11.771000    -12.652000     -0.760000
C         -11.704000    -13.788000      0.205000
C         -10.995000    -13.557000      1.439000
H         -10.573000    -12.583000      1.667000
C         -10.773000    -14.622000      2.367000
H         -10.293000    -14.596000      3.341000
C         -11.079000    -15.930000      1.935000
H         -10.926000    -16.725000      2.658000
C         -11.819000    -16.114000      0.784000
H         -12.206000    -17.119000      0.646000
C         -12.132000    -15.097000     -0.162000
H         -12.687000    -15.328000     -1.067000
C          -6.338000    -12.582000     -1.149000
C          -6.913000    -14.391000     -2.603000
C          -5.973000    -12.193000     -6.539000
C          -8.840000     -8.351000     -2.458000
C          -9.365000    -11.360000     -7.113000
C          -7.171000    -13.660000     -1.442000
C          -9.308000     -8.383000     -5.218000
C          -4.726000    -12.298000     -4.458000
C         -10.585000    -13.827000     -4.138000
C         -10.158000     -8.659000     -2.951000
C         -11.188000    -12.648000     -2.136000
C         -11.217000    -12.633000     -4.440000
C         -11.209000     -9.820000     -4.583000
C          -9.093000     -9.111000     -6.394000
C          -9.149000    -14.258000     -2.255000
C          -7.162000    -10.330000     -7.090000
C         -10.499000    -11.910000     -1.026000
C         -10.296000    -10.409000     -1.161000
C          -8.002000    -11.408000     -7.396000
C          -5.532000     -8.878000     -3.602000
C          -5.327000    -10.059000     -5.438000
C          -4.648000    -10.826000     -4.438000
C          -5.034000    -12.995000     -3.214000
C          -8.992000    -10.083000     -0.774000
C         -10.406000    -13.819000     -2.743000
C          -5.869000    -14.092000     -3.506000
C         -10.334000     -8.759000     -4.303000
C          -8.183000    -14.776000     -3.117000
C         -10.965000    -11.959000     -5.693000
C          -6.875000     -9.065000     -1.548000
C          -5.439000    -12.948000     -5.449000
C         -11.604000    -11.890000     -3.371000
C          -5.178000    -10.770000     -2.055000
C         -10.930000    -10.589000     -5.780000
C          -9.581000    -14.257000     -5.030000
C          -7.052000     -8.498000     -5.526000
C          -8.060000     -8.052000     -4.666000
C          -9.324000    -13.593000     -6.209000
C          -8.280000     -9.042000     -1.409000
C         -10.776000     -9.774000     -2.324000
C          -6.586000     -8.419000     -2.746000
C          -9.146000    -12.412000     -0.688000
C          -7.388000    -14.425000     -5.404000
C         -11.452000    -10.479000     -3.378000
C         -10.031000    -12.461000     -6.548000
C          -6.182000    -10.265000     -1.227000
C          -7.241000    -12.547000     -7.032000
C          -5.299000    -12.179000     -2.102000
C          -5.958000    -10.800000     -6.494000
C          -8.406000    -14.704000     -4.482000
C          -7.966000    -13.689000     -6.473000
C          -8.567000    -13.579000     -1.202000
C          -8.305000    -11.301000     -0.480000
C          -5.800000     -8.869000     -4.991000
C          -6.100000    -14.124000     -4.943000
C          -9.909000    -10.182000     -6.678000
C          -7.804000     -8.018000     -3.329000
C          -7.719000     -9.204000     -6.547000
C          -6.891000    -11.356000     -0.770000
C          -4.861000    -10.087000     -3.235000
O          -8.112000    -27.974000     -3.123000
C          -7.565000    -29.189000     -3.808000
H          -6.584000    -29.439000     -3.386000
H          -7.400000    -29.035000     -4.881000
H          -8.182000    -30.055000     -3.537000
O          -8.140000    -28.943000     -1.029000
C          -8.404000    -28.044000     -1.725000
C          -9.001000    -26.698000     -1.220000
H          -8.261000    -25.888000     -1.245000
H          -9.279000    -26.818000     -0.166000
C         -10.181000    -26.189000     -1.947000
H          -9.901000    -25.979000     -2.987000
H         -10.914000    -27.004000     -1.978000
C         -10.814000    -24.926000     -1.285000
H         -11.882000    -24.891000     -1.533000
H         -10.734000    -25.034000     -0.197000
C         -10.147000    -23.627000     -1.777000
C          -8.908000    -23.316000     -1.009000
C          -8.980000    -23.288000      0.404000
H          -9.924000    -23.413000      0.927000
C          -7.901000    -22.965000      1.204000
H          -7.985000    -22.798000      2.274000
C          -6.670000    -22.666000      0.638000
H          -5.802000    -22.438000      1.251000
C          -6.557000    -22.675000     -0.756000
H          -5.566000    -22.407000     -1.109000
C          -7.629000    -23.078000     -1.591000
H          -7.425000    -23.144000     -2.656000
C         -10.953000    -18.260000     -2.638000
C          -9.283000    -18.873000     -4.245000
C         -11.919000    -18.462000     -7.911000
C         -15.066000    -21.343000     -3.100000
C         -12.526000    -21.851000     -8.068000
C          -9.869000    -19.055000     -3.005000
C         -15.313000    -22.035000     -5.766000
C         -11.863000    -17.024000     -5.937000
C          -9.647000    -22.635000     -5.382000
C         -14.566000    -22.586000     -3.523000
C         -10.282000    -23.180000     -3.165000
C         -10.733000    -23.486000     -5.563000
C         -13.481000    -23.635000     -5.169000
C         -14.744000    -21.816000     -7.042000
C          -9.023000    -21.063000     -3.731000
C         -13.827000    -19.807000     -8.120000
C         -11.046000    -22.469000     -2.043000
C         -12.564000    -22.395000     -2.077000
C         -12.650000    -20.543000     -8.485000
C         -14.895000    -18.210000     -4.514000
C         -13.993000    -17.910000     -6.614000
C         -13.222000    -17.111000     -5.734000
C         -10.995000    -17.148000     -4.773000
C         -13.001000    -21.078000     -1.743000
C          -9.348000    -22.383000     -4.019000
C          -9.840000    -17.919000     -5.168000
C         -14.685000    -22.923000     -4.907000
C          -8.814000    -20.095000     -4.714000
C         -11.563000    -23.354000     -6.651000
C         -14.391000    -19.240000     -2.446000
C         -11.181000    -17.697000     -6.983000
C         -11.219000    -23.798000     -4.246000
C         -12.904000    -17.456000     -3.384000
C         -12.963000    -23.359000     -6.452000
C          -9.320000    -21.714000     -6.437000
C         -15.452000    -19.785000     -6.289000
C         -15.821000    -20.754000     -5.328000
C         -10.119000    -21.581000     -7.509000
C         -14.235000    -20.621000     -2.201000
C         -13.324000    -23.083000     -3.088000
C         -15.219000    -19.180000     -3.542000
C         -10.760000    -21.018000     -1.928000
C          -9.554000    -19.516000     -6.951000
C         -12.618000    -23.758000     -4.106000
C         -11.271000    -22.376000     -7.619000
C         -13.207000    -18.433000     -2.393000
C         -11.534000    -19.724000     -8.409000
C         -11.511000    -17.297000     -3.488000
C         -13.319000    -18.557000     -7.692000
C          -8.891000    -20.454000     -6.084000
C         -10.322000    -20.232000     -7.849000
C          -9.764000    -20.404000     -2.682000
C         -11.890000    -20.239000     -1.572000
C         -15.026000    -18.538000     -5.905000
C          -9.974000    -18.278000     -6.494000
C         -13.551000    -22.531000     -7.368000
C         -15.618000    -20.447000     -3.963000
C         -14.855000    -20.437000     -7.375000
C         -11.984000    -18.878000     -1.938000
C         -13.758000    -17.374000     -4.437000
$end

--------------------------------------------------------------

             Standard Nuclear Orientation (Angstroms)
    I     Atom           X                Y                Z
 ----------------------------------------------------------------
    1      O       1.5367722394    -7.7431455281    -3.4232736849
    2      C       0.8563089308    -9.0284693237    -3.1720239561
    3      H       0.3004748889    -8.9708467758    -2.2289305568
    4      H       1.5385013350    -9.8851080010    -3.1106912560
    5      H       0.1067794545    -9.3224861720    -3.9170243971
    6      O       1.7838838744    -7.1582247242    -1.2226025388
    7      C       2.0300878871    -7.0204138152    -2.3790876177
    8      C       2.8428891561    -5.9171247051    -3.0386497728
    9      H       2.2194955682    -5.4512698825    -3.8123866265
   10      H       3.7207264187    -6.4002470276    -3.4849888388
   11      C       3.3197164477    -4.9531504168    -1.9538662434
   12      H       2.5202411341    -4.5884872571    -1.2986113290
   13      H       3.9855249046    -5.5131718615    -1.2852751275
   14      C       4.1823589357    -3.8338750831    -2.5383931165
   15      H       5.0680753579    -3.9201820985    -1.8965812137
   16      H       4.5218178051    -4.1068080217    -3.5462107027
   17      C       3.7664475653    -2.3188755243    -2.6130059096
   18      C       2.6852860716    -2.0914810438    -3.6157977997
   19      C       3.0770911019    -1.5273042148    -4.8834694148
   20      H       4.1201404061    -1.3244196801    -5.1062473637
   21      C       2.0959609434    -1.1600671525    -5.8567183820
   22      H       2.2360914855    -0.7613982990    -6.8573074967
   23      C       0.7453455662    -1.1692106507    -5.4482107328
   24      H       0.0109564068    -0.9095410839    -6.2041255949
   25      C       0.3948770565    -1.7786428926    -4.2599257644
   26      H      -0.6698191553    -1.9471678808    -4.1300823783
   27      C       1.3103551031    -2.2240541673    -3.2645952954
   28      H       0.9556457518    -2.6597684588    -2.3346784538
   29      C       4.9207925590     3.0045036059    -2.5597868173
   30      C       3.0063994473     2.9009658396    -1.1309407986
   31      C       5.2750397329     3.6455356817     2.8067980202
   32      C       8.5368595691    -0.1977989541    -0.9647433403
   33      C       5.3977882879     0.2018751001     3.6162197835
   34      C       3.6919946161     2.4249462014    -2.2499629470
   35      C       8.3600778504    -0.4636443921     1.8165733311
   36      C       5.4617490314     4.7458403834     0.6501654132
   37      C       2.7915064748    -0.6982306411     0.6459977775
   38      C       7.9608930564    -1.3917057654    -0.4009294508
   39      C       3.8620836099    -1.6573685349    -1.2763895661
   40      C       3.8281249891    -1.5340429275     1.0242885093
   41      C       6.5820667420    -2.0779276814     1.2555377167
   42      C       7.6684912808    -0.0292526794     2.9533217011
   43      C       2.6932824455     0.6651798872    -1.3351659642
   44      C       6.8501769158     2.1484305888     3.4892276473
   45      C       4.7441052636    -1.2055858888    -2.4030639836
   46      C       6.2524823772    -1.2975820554    -2.2334462114
   47      C       5.6197291269     1.5629027685     3.8124542092
   48      C       8.6649759467     3.2180153825    -0.0454351155
   49      C       7.5154547136     3.7773288447     1.7359832480
   50      C       6.9194568949     4.5270271922     0.6719959417
   51      C       4.7402760713     4.5003121971    -0.5937805975
   52      C       6.8412913643    -0.1138373477    -2.6900789343
   53      C       2.8612760913    -0.6184858776    -0.7564654033
   54      C       3.4924861715     3.9225237409    -0.2854319868
   55      C       7.8024232941    -1.4530467286     0.9555382491
   56      C       2.3642873016     1.7707575269    -0.5515944754
   57      C       4.5156388687    -1.3380660562     2.2799583431
   58      C       8.2498152960     1.8045431209    -2.0170516603
   59      C       4.6632956398     4.2450476113     1.6624049012
   60      C       4.4978106920    -2.1323898264     0.0054258847
   61      C       6.9119591126     3.8377595180    -1.6705622446
   62      C       5.8628110378    -1.5713794978     2.4079660960
   63      C       2.5557839716     0.4289497493     1.4599260722
   64      C       8.6955905920     1.7854163757     1.9802249817
   65      C       8.9455837615     0.6532811772     1.1989738650
   66      C       3.2358851149     0.6268422958     2.6411487332
   67      C       7.9922644641     0.4171120639    -2.0678220373
   68      C       6.7562083687    -1.8154589673    -1.0233810770
   69      C       8.9183723617     2.0385856631    -0.8194304605
   70      C       4.5309367738     0.1945688597    -2.8400798588
   71      C       2.8254888054     2.6314287198     1.6916472125
   72      C       5.9101621797    -2.2648770944     0.0476680316
   73      C       4.1960060520    -0.2674337666     3.0590388029
   74      C       7.2199456419     2.6999100054    -2.4182706000
   75      C       4.6640809015     2.5096870728     3.3660530999
   76      C       5.5067995194     4.0037779692    -1.6607953884
   77      C       6.6431669118     3.3792198466     2.8050955978
   78      C       2.3645734224     1.6300218211     0.8262049945
   79      C       3.4101629906     1.9912844511     2.8172192504
   80      C       3.4949351995     1.0279599474    -2.4002093858
   81      C       5.7920840847     0.7810682501    -3.0645613175
   82      C       8.5940621255     3.0474703697     1.3571024521
   83      C       3.3879695853     3.7995528596     1.1613950401
   84      C       6.4501363084    -0.5941920481     3.2533344859
   85      C       9.0552303412     0.8070057208    -0.1495836578
   86      C       7.8509888919     1.3427807687     3.0177642280
   87      C       6.0172994386     2.1938195748    -2.8647295407
   88      C       7.6227207209     4.0905831938    -0.4914625351
   89      O     -10.5473681094     4.4740937236    -0.9680184847
   90      C     -11.6399952923     5.2972592351    -0.3570983754
   91      H     -11.6796390155     6.2778284530    -0.8468507457
   92      H     -11.4759156893     5.4998631282     0.7079366223
   93      H     -12.6072292520     4.8486967092    -0.6165904320
   94      O     -11.4631056175     4.4995038922    -3.0858853689
   95      C     -10.6486905417     4.1087574569    -2.3467248265
   96      C      -9.4411688543     3.2226563655    -2.7708312167
   97      H      -8.4994633686     3.7861222711    -2.7661459700
   98      H      -9.5950361609     2.9040762109    -3.8088252133
   99      C      -9.1935691309     2.0163412607    -1.9562710624
  100      H      -8.9508953021     2.3179781919    -0.9295166737
  101      H     -10.1398038804     1.4644754760    -1.9056849515
  102      C      -8.0716608030     1.1010693179    -2.5373915096
  103      H      -8.2568526346     0.0666703026    -2.2226286424
  104      H      -8.1411208980     1.1277885901    -3.6311325099
  105      C      -6.6744040352     1.5269463868    -2.0468242388
  106      C      -6.1062824005     2.6245642673    -2.8799741633
  107      C      -6.0670872102     2.4537354139    -4.2841886198
  108      H      -6.3697055929     1.5207259642    -4.7513133155
  109      C      -5.5188073765     3.3903966341    -5.1389546595
  110      H      -5.3522667900     3.2031264865    -6.1958553761
  111      C      -4.9888373314     4.5721404176    -4.6412284482
  112      H      -4.5795226176     5.3340403446    -5.2993674657
  113      C      -5.0008228407     4.7779836263    -3.2579096415
  114      H      -4.5455388269     5.7169933262    -2.9587587594
  115      C      -5.6266950296     3.8664782619    -2.3711966249
  116      H      -5.6700838065     4.1505697546    -1.3235294841
  117      C      -1.5962354693    -0.2741192510    -0.9679300898
  118      C      -1.8904842273     1.5886485348     0.5121482339
  119      C      -2.0863984941    -0.8241825186     4.3457936150
  120      C      -5.4517005903    -3.6487416847    -0.3495336706
  121      C      -5.5305442369    -0.7307986893     4.4327336113
  122      C      -2.1635803343     0.9688565979    -0.6942499057
  123      C      -6.2286638029    -3.5731543563     2.3033974861
  124      C      -0.6301044469    -1.1888913426     2.4186581444
  125      C      -5.6692621083     2.0598023577     1.5498190881
  126      C      -6.5763371423    -2.8835238756     0.0020517821
  127      C      -6.2895747155     1.3989550070    -0.6396630535
  128      C      -6.7245588478     1.1801011777     1.7708001397
  129      C      -7.4160103258    -1.5030274123     1.5435187652
  130      C      -5.9234197833    -2.9749476767     3.5479346921
  131      C      -3.9734628161     2.2453081034    -0.0860945341
  132      C      -3.7913990952    -2.4070084038     4.6300561122
  133      C      -5.7260895084     0.4348849553    -1.6890220754
  134      C      -5.9596403906    -1.0615764362    -1.5585870756
  135      C      -4.2822136571    -1.0850240154     4.8978402465
  136      C      -2.3751843042    -4.0118094626     1.1496512180
  137      C      -1.9389296764    -3.0489132878     3.1980937620
  138      C      -0.9849431929    -2.5137003616     2.2977055607
  139      C      -0.5552915218    -0.3937423703     1.1997089501
  140      C      -4.7515093493    -1.7739975490    -1.8229533840
  141      C      -5.3369772292     2.2103181217     0.1795615342
  142      C      -1.0853677788     0.9157328968     1.4976765433
  143      C      -6.9560467620    -2.8397032676     1.3793993632
  144      C      -3.0016452765     2.3224588011     0.9122102488
  145      C      -6.7824795648     0.4154022944     2.9118298538
  146      C      -3.2441186289    -3.4524054058    -0.9772150779
  147      C      -1.1714578535    -0.3176678977     3.3984924152
  148      C      -7.1034250631     0.6788391028     0.4772678737
  149      C      -1.2151830630    -2.2917430785    -0.0772415053
  150      C      -7.0653320936    -0.9655815456     2.8000082072
  151      C      -4.7210739153     2.2665201489     2.6111399187
  152      C      -4.0627468725    -4.1228940380     2.9050120912
  153      C      -5.0681416014    -4.3547823315     1.9385483006
  154      C      -4.7714813116     1.5308528513     3.7343169848
  155      C      -4.5607022493    -3.0407844305    -1.2750367410
  156      C      -6.8051373106    -1.5993907044    -0.5246839027
  157      C      -3.3723008461    -4.2002452128     0.1693907577
  158      C      -4.2453375175     0.4172229064    -1.7755298419
  159      C      -2.6250295939     1.6336815390     3.2080230702
  160      C      -7.3431008031    -0.7061857340     0.4256661179
  161      C      -5.7838914667     0.5706904036     3.8903386240
  162      C      -2.2145773692    -2.4595281925    -1.0779803205
  163      C      -3.2541727769    -0.1625612335     4.7787295219
  164      C      -0.7811492494    -0.9547088624    -0.0548773887
  165      C      -2.4570233636    -2.1885503980     4.2111700815
  166      C      -3.3941914371     2.4107881316     2.2722894528
  167      C      -3.4974586716     1.0860479315     4.1288101989
  168      C      -3.4576346386     1.3189991573    -1.0657046748
  169      C      -3.7031214428    -0.8667908989    -2.0358897392
  170      C      -2.7486237785    -3.9810458485     2.5350113008
  171      C      -1.4885636180     0.9453859939     2.8173987902
  172      C      -6.3897237797    -1.6441303115     3.7764860505
  173      C      -4.7012671717    -4.3092239153     0.5739932143
  174      C      -4.6013770621    -3.3362706465     3.9306875559
  175      C      -2.3959006776    -1.2056878587    -1.6218417688
  176      C      -1.3262506145    -3.0722766474     1.0287785428
 ----------------------------------------------------------------

    9   -5804.2709609978      8.44E-06 Convergence criterion met
 Total energy in the final basis set = -5804.2709609978

                    Orbital Energies (a.u.)
 --------------------------------------------------------------

 Alpha MOs
 -- Occupied --
-19.190 -19.180 -19.147 -19.143 -10.318 -10.315 -10.249 -10.246
-10.245 -10.243 -10.241 -10.238 -10.235 -10.234 -10.233 -10.231
-10.230 -10.227 -10.227 -10.226 -10.224 -10.223 -10.222 -10.222
-10.222 -10.221 -10.221 -10.221 -10.221 -10.221 -10.221 -10.220
-10.220 -10.220 -10.220 -10.220 -10.220 -10.220 -10.220 -10.220
-10.220 -10.220 -10.219 -10.219 -10.218 -10.218 -10.218 -10.218
-10.218 -10.218 -10.218 -10.218 -10.218 -10.217 -10.217 -10.217
-10.217 -10.216 -10.216 -10.216 -10.216 -10.216 -10.216 -10.216
-10.216 -10.215 -10.215 -10.215 -10.215 -10.215 -10.215 -10.214
-10.214 -10.214 -10.214 -10.214 -10.214 -10.214 -10.214 -10.214
-10.214 -10.214 -10.213 -10.213 -10.213 -10.213 -10.213 -10.213
-10.213 -10.213 -10.213 -10.213 -10.212 -10.212 -10.212 -10.212
-10.212 -10.212 -10.212 -10.212 -10.212 -10.211 -10.211 -10.211
-10.211 -10.211 -10.211 -10.210 -10.210 -10.210 -10.210 -10.210
-10.210 -10.209 -10.209 -10.209 -10.209 -10.209 -10.208 -10.208
-10.208 -10.208 -10.208 -10.208 -10.208 -10.208 -10.207 -10.207
-10.207 -10.206 -10.206 -10.206 -10.205 -10.205 -10.204 -10.203
-10.202 -10.202 -10.201 -10.199 -10.198 -10.197 -10.197 -10.196
-10.196 -10.193 -10.192 -10.191  -1.095  -1.091  -1.021  -1.007
 -0.983  -0.982  -0.965  -0.965  -0.963  -0.962  -0.961  -0.956
 -0.937  -0.933  -0.929  -0.925  -0.925  -0.924  -0.921  -0.919
 -0.919  -0.917  -0.896  -0.894  -0.892  -0.890  -0.885  -0.882
 -0.876  -0.870  -0.857  -0.847  -0.843  -0.843  -0.841  -0.836
 -0.836  -0.834  -0.823  -0.816  -0.810  -0.805  -0.799  -0.798
 -0.795  -0.794  -0.793  -0.792  -0.791  -0.789  -0.786  -0.782
 -0.772  -0.771  -0.770  -0.769  -0.765  -0.764  -0.763  -0.760
 -0.753  -0.744  -0.743  -0.738  -0.730  -0.728  -0.718  -0.714
 -0.714  -0.713  -0.712  -0.711  -0.711  -0.709  -0.709  -0.708
 -0.708  -0.706  -0.705  -0.702  -0.700  -0.699  -0.676  -0.671
 -0.660  -0.658  -0.656  -0.653  -0.647  -0.645  -0.632  -0.629
 -0.628  -0.626  -0.625  -0.622  -0.621  -0.620  -0.619  -0.617
 -0.617  -0.616  -0.613  -0.612  -0.611  -0.609  -0.609  -0.606
 -0.606  -0.604  -0.602  -0.599  -0.566  -0.563  -0.562  -0.560
 -0.560  -0.558  -0.557  -0.556  -0.556  -0.555  -0.554  -0.548
 -0.537  -0.534  -0.532  -0.529  -0.528  -0.527  -0.526  -0.525
 -0.525  -0.522  -0.522  -0.519  -0.515  -0.514  -0.513  -0.512
 -0.508  -0.504  -0.502  -0.496  -0.494  -0.492  -0.489  -0.487
 -0.485  -0.483  -0.481  -0.481  -0.478  -0.477  -0.477  -0.475
 -0.472  -0.472  -0.469  -0.468  -0.467  -0.466  -0.465  -0.465
 -0.464  -0.463  -0.463  -0.462  -0.461  -0.460  -0.459  -0.459
 -0.457  -0.453  -0.451  -0.449  -0.448  -0.444  -0.443  -0.442
 -0.441  -0.440  -0.438  -0.438  -0.437  -0.435  -0.434  -0.433
 -0.431  -0.430  -0.428  -0.427  -0.426  -0.425  -0.425  -0.425
 -0.423  -0.423  -0.423  -0.421  -0.420  -0.419  -0.418  -0.418
 -0.417  -0.416  -0.415  -0.415  -0.415  -0.413  -0.413  -0.412
 -0.411  -0.410  -0.407  -0.405  -0.405  -0.402  -0.399  -0.397
 -0.395  -0.394  -0.391  -0.391  -0.389  -0.389  -0.385  -0.385
 -0.384  -0.377  -0.377  -0.371  -0.369  -0.367  -0.367  -0.366
 -0.366  -0.363  -0.362  -0.361  -0.360  -0.360  -0.359  -0.358
 -0.356  -0.356  -0.356  -0.354  -0.353  -0.352  -0.351  -0.350
 -0.350  -0.348  -0.348  -0.347  -0.345  -0.345  -0.344  -0.342
 -0.341  -0.340  -0.340  -0.337  -0.336  -0.335  -0.335  -0.333
 -0.332  -0.331  -0.330  -0.329  -0.328  -0.326  -0.324  -0.323
 -0.317  -0.303  -0.302  -0.295  -0.284  -0.283  -0.277  -0.275
 -0.273  -0.270  -0.269  -0.268  -0.268  -0.266  -0.264  -0.262
 -0.262  -0.261  -0.261  -0.259  -0.258  -0.257  -0.255  -0.255
 -0.249  -0.247  -0.245  -0.243  -0.220  -0.218  -0.214  -0.212
 -0.211  -0.208  -0.206  -0.203  -0.201  -0.197

          Ground-State Mulliken Net Atomic Charges

     Atom                 Charge (a.u.)
  ----------------------------------------
      1 O                    -0.479361
      2 C                    -0.103804
      3 H                     0.138557
      4 H                     0.123901
      5 H                     0.125966
      6 O                    -0.451672
      7 C                     0.608765
      8 C                    -0.269391
      9 H                     0.148809
     10 H                     0.135197
     11 C                    -0.180346
     12 H                     0.117721
     13 H                     0.120062
     14 C                    -0.185353
     15 H                     0.100481
     16 H                     0.098760
     17 C                     0.019014
     18 C                     0.059269
     19 C                    -0.113143
     20 H                     0.097051
     21 C                    -0.092372
     22 H                     0.094154
     23 C                    -0.076168
     24 H                     0.087546
     25 C                    -0.095103
     26 H                     0.086024
     27 C                    -0.101215
     28 H                     0.105393
     29 C                    -0.040250
     30 C                     0.014240
     31 C                    -0.000239
     32 C                    -0.017485
     33 C                     0.012262
     34 C                    -0.004988
     35 C                     0.000068
     36 C                    -0.017769
     37 C                    -0.009144
     38 C                    -0.029531
     39 C                    -0.103895
     40 C                     0.018952
     41 C                    -0.037484
     42 C                     0.002059
     43 C                    -0.001364
     44 C                    -0.028400
     45 C                    -0.087276
     46 C                     0.016328
     47 C                     0.002636
     48 C                    -0.018743
     49 C                     0.023475
     50 C                    -0.017802
     51 C                    -0.019233
     52 C                    -0.017368
     53 C                     0.037660
     54 C                    -0.002055
     55 C                     0.023408
     56 C                    -0.016910
     57 C                     0.016821
     58 C                    -0.021779
     59 C                     0.017502
     60 C                     0.024000
     61 C                     0.007966
     62 C                    -0.021115
     63 C                    -0.001645
     64 C                     0.001589
     65 C                    -0.003105
     66 C                     0.012970
     67 C                     0.024033
     68 C                     0.024679
     69 C                    -0.003746
     70 C                     0.059629
     71 C                    -0.018625
     72 C                     0.003884
     73 C                    -0.009581
     74 C                     0.013486
     75 C                    -0.018404
     76 C                     0.009253
     77 C                     0.008735
     78 C                     0.040637
     79 C                    -0.015145
     80 C                     0.015014
     81 C                    -0.010180
     82 C                    -0.003912
     83 C                    -0.017349
     84 C                     0.009470
     85 C                     0.020142
     86 C                     0.017165
     87 C                     0.014713
     88 C                     0.000098
     89 O                    -0.508341
     90 C                    -0.088641
     91 H                     0.126431
     92 H                     0.130033
     93 H                     0.130366
     94 O                    -0.419786
     95 C                     0.589408
     96 C                    -0.248730
     97 H                     0.141000
     98 H                     0.119599
     99 C                    -0.185156
    100 H                     0.124162
    101 H                     0.099972
    102 C                    -0.200011
    103 H                     0.108440
    104 H                     0.109680
    105 C                     0.037557
    106 C                     0.083245
    107 C                    -0.111448
    108 H                     0.091946
    109 C                    -0.086998
    110 H                     0.091346
    111 C                    -0.077423
    112 H                     0.092015
    113 C                    -0.090542
    114 H                     0.091866
    115 C                    -0.123937
    116 H                     0.105059
    117 C                     0.008947
    118 C                    -0.004490
    119 C                     0.003473
    120 C                     0.000350
    121 C                     0.013729
    122 C                     0.013515
    123 C                     0.008536
    124 C                     0.023989
    125 C                     0.009021
    126 C                    -0.022683
    127 C                    -0.076393
    128 C                     0.008573
    129 C                    -0.014940
    130 C                    -0.024481
    131 C                    -0.003305
    132 C                    -0.024642
    133 C                    -0.076482
    134 C                    -0.009735
    135 C                    -0.004593
    136 C                     0.004579
    137 C                    -0.005565
    138 C                    -0.016491
    139 C                    -0.017585
    140 C                     0.019110
    141 C                     0.011312
    142 C                    -0.005086
    143 C                     0.005113
    144 C                     0.011914
    145 C                    -0.015691
    146 C                    -0.024332
    147 C                    -0.014636
    148 C                     0.008587
    149 C                    -0.014870
    150 C                     0.001818
    151 C                     0.019593
    152 C                     0.014390
    153 C                    -0.031432
    154 C                    -0.009569
    155 C                    -0.010535
    156 C                    -0.011744
    157 C                    -0.003860
    158 C                     0.043230
    159 C                     0.009827
    160 C                     0.040173
    161 C                    -0.012351
    162 C                     0.015957
    163 C                    -0.003551
    164 C                    -0.008191
    165 C                     0.009640
    166 C                    -0.036771
    167 C                     0.011888
    168 C                     0.003246
    169 C                    -0.006036
    170 C                     0.004572
    171 C                     0.009556
    172 C                     0.005820
    173 C                     0.037494
    174 C                     0.015035
    175 C                    -0.016129
    176 C                     0.004977
  ----------------------------------------
  Sum of atomic charges =     0.000000

                    Cartesian Multipole Moments
 -----------------------------------------------------------------
    Charge (ESU x 10^10)
                 0.0000
    Dipole Moment (Debye)
         X      -1.5954      Y      -1.1510      Z      -3.4430
       Tot       3.9654
    Quadrupole Moments (Debye-Ang)
        XX    -817.9258     XY     -10.0898     YY    -787.7762
        XZ     -13.2062     YZ      19.0843     ZZ    -793.6317

 Total job time:  858.70s(wall), 8202.54s(cpu)
        *  Thank you very much for using Q-Chem.  Have a nice day.  *
