 Q-Chem 4.4, Q-Chem, Inc., Pleasanton, CA (2016)
 Q-Chem 4.4.2 for Intel X86 Linux

User input:
--------------------------------------------------------------
$comment
SP
$end

$rem
MEM_STATIC 5000
MEM_TOTAL 20000
JOBTYPE SP
EXCHANGE B3LYP
BASIS 6-31g(d,p)
$end

$molecule
0 1
O         -22.130000     -7.863000    -13.402000
C         -22.219000     -7.156000    -14.670000
H         -22.606000     -7.821000    -15.452000
H         -21.209000     -6.840000    -14.956000
H         -22.860000     -6.268000    -14.603000
O         -20.557000     -9.217000    -14.116000
C         -21.272000     -8.885000    -13.256000
C         -21.466000     -9.665000    -11.956000
H         -20.771000     -9.262000    -11.209000
H         -21.217000    -10.723000    -12.109000
C         -22.984000     -9.553000    -11.583000
H         -23.213000     -8.539000    -11.233000
H         -23.539000     -9.727000    -12.514000
C         -23.385000    -10.516000    -10.438000
H         -23.177000    -11.551000    -10.734000
H         -22.786000    -10.409000     -9.525000
C         -24.857000    -10.455000    -10.033000
C         -25.796000    -11.172000    -10.952000
C         -26.232000    -10.609000    -12.189000
H         -25.950000     -9.621000    -12.539000
C         -27.155000    -11.376000    -12.945000
H         -27.533000    -11.077000    -13.918000
C         -27.532000    -12.727000    -12.636000
H         -28.195000    -13.310000    -13.270000
C         -26.996000    -13.305000    -11.487000
H         -27.214000    -14.332000    -11.208000
C         -26.184000    -12.528000    -10.658000
H         -25.738000    -12.951000     -9.763000
C         -29.258000     -7.579000     -8.513000
C         -29.527000     -9.683000     -7.470000
C         -28.770000     -8.220000     -3.259000
C         -24.776000     -5.686000     -7.366000
C         -25.444000     -9.399000     -3.134000
C         -29.141000     -9.019000     -8.572000
C         -24.093000     -6.451000     -4.728000
C         -29.986000     -7.152000     -4.989000
C         -25.961000    -11.467000     -6.578000
C         -23.932000     -6.751000     -7.126000
C         -25.203000    -10.413000     -8.570000
C         -24.709000    -10.922000     -6.302000
C         -23.465000     -8.499000     -5.849000
C         -24.523000     -7.211000     -3.609000
C         -27.603000    -10.728000     -8.248000
C         -26.744000     -7.370000     -2.672000
C         -25.454000     -9.225000     -9.454000
C         -24.840000     -7.900000     -9.030000
C         -26.629000     -8.772000     -2.699000
C         -27.567000     -4.683000     -5.602000
C         -28.255000     -5.932000     -3.826000
C         -29.166000     -5.986000     -4.847000
C         -30.228000     -7.606000     -6.313000
C         -25.743000     -6.848000     -9.180000
C         -26.305000    -11.120000     -7.894000
C         -30.081000     -8.993000     -6.362000
C         -23.555000     -7.123000     -5.833000
C         -28.600000    -10.762000     -7.301000
C         -24.556000    -10.451000     -4.994000
C         -26.856000     -5.067000     -7.991000
C         -29.772000     -8.299000     -4.226000
C         -24.262000    -10.224000     -7.385000
C         -29.121000     -5.670000     -7.265000
C         -23.825000     -9.272000     -4.729000
C         -26.984000    -11.487000     -5.557000
C         -25.932000     -5.502000     -3.972000
C         -24.949000     -5.341000     -4.964000
C         -26.795000    -11.034000     -4.277000
C         -25.677000     -5.729000     -8.387000
C         -23.946000     -7.866000     -7.937000
C         -26.580000     -4.584000     -6.636000
C         -26.882000     -8.823000     -9.609000
C         -28.925000    -10.472000     -4.936000
C         -23.658000     -9.007000     -7.114000
C         -25.543000    -10.499000     -4.033000
C         -28.125000     -5.653000     -8.249000
C         -27.885000     -9.301000     -3.026000
C         -29.821000     -6.872000     -7.420000
C         -28.086000     -7.013000     -3.003000
C         -28.297000    -11.115000     -5.988000
C         -28.005000    -10.417000     -3.900000
C         -27.913000     -9.612000     -9.052000
C         -27.011000     -7.426000     -9.498000
C         -27.227000     -5.144000     -4.306000
C         -29.839000     -9.405000     -5.089000
C         -24.405000     -8.610000     -3.619000
C         -25.292000     -5.004000     -6.246000
C         -25.657000     -6.614000     -3.102000
C         -28.177000     -6.831000     -8.975000
C         -28.788000     -5.319000     -5.962000
O         -34.982000    -21.202000     -6.408000
C         -36.254000    -21.549000     -5.763000
H         -36.768000    -22.312000     -6.361000
H         -36.827000    -20.616000     -5.697000
H         -36.044000    -21.989000     -4.780000
O         -34.273000    -23.351000     -6.347000
C         -34.125000    -22.209000     -6.609000
C         -32.752000    -21.724000     -7.171000
H         -32.178000    -22.590000     -7.524000
H         -32.167000    -21.283000     -6.354000
C         -32.915000    -20.687000     -8.338000
H         -33.347000    -21.257000     -9.169000
H         -33.547000    -19.824000     -8.094000
C         -31.554000    -20.236000     -8.733000
H         -30.980000    -21.171000     -8.714000
H         -31.650000    -19.903000     -9.774000
C         -30.906000    -19.224000     -7.742000
C         -31.928000    -18.269000     -7.064000
C         -32.298000    -18.483000     -5.769000
H         -31.837000    -19.307000     -5.232000
C         -33.087000    -17.529000     -5.184000
H         -33.361000    -17.599000     -4.135000
C         -33.620000    -16.496000     -5.915000
H         -34.246000    -15.733000     -5.464000
C         -33.314000    -16.328000     -7.222000
H         -33.669000    -15.483000     -7.806000
C         -32.554000    -17.330000     -7.822000
H         -32.269000    -17.259000     -8.867000
C         -27.178000    -15.262000     -6.876000
C         -27.273000    -16.448000     -4.749000
C         -23.204000    -18.475000     -5.055000
C         -26.321000    -18.645000    -10.648000
C         -24.499000    -21.612000     -6.082000
C         -27.955000    -15.935000     -5.856000
C         -24.619000    -20.751000     -9.674000
C         -23.941000    -16.219000     -5.692000
C         -28.234000    -20.235000     -5.318000
C         -26.888000    -19.915000    -10.305000
C         -29.615000    -19.567000     -7.130000
C         -27.952000    -21.179000     -6.275000
C         -26.818000    -21.481000     -8.730000
C         -24.057000    -21.109000     -8.458000
C         -28.779000    -17.954000     -5.387000
C         -22.865000    -19.902000     -6.775000
C         -29.618000    -18.492000     -8.127000
C         -28.839000    -18.684000     -9.369000
C         -23.557000    -20.583000     -5.776000
C         -23.768000    -16.788000     -9.094000
C         -22.682000    -17.600000     -7.260000
C         -23.363000    -16.425000     -6.945000
C         -25.114000    -15.464000     -5.465000
C         -28.190000    -17.465000     -9.634000
C         -29.151000    -19.267000     -5.782000
C         -25.861000    -16.184000     -4.530000
C         -26.077000    -20.914000     -9.803000
C         -27.841000    -17.707000     -4.397000
C         -26.740000    -21.924000     -6.326000
C         -25.979000    -16.438000     -9.940000
C         -23.853000    -17.294000     -4.737000
C         -28.675000    -20.768000     -7.391000
C         -25.240000    -15.147000     -7.953000
C         -26.182000    -22.013000     -7.578000
C         -27.251000    -20.037000     -4.346000
C         -23.221000    -19.143000     -9.028000
C         -24.149000    -19.499000     -9.988000
C         -25.976000    -20.660000     -4.417000
C         -26.944000    -17.412000    -10.253000
C         -28.108000    -19.858000     -9.608000
C         -24.746000    -17.089000    -10.063000
C         -29.226000    -17.104000     -7.635000
C         -25.659000    -18.563000     -3.656000
C         -28.062000    -20.914000     -8.634000
C         -25.725000    -21.636000     -5.416000
C         -26.257000    -15.463000     -8.874000
C         -23.783000    -19.725000     -4.726000
C         -25.824000    -15.050000     -6.649000
C         -22.593000    -18.642000     -6.322000
C         -27.021000    -18.706000     -3.864000
C         -25.014000    -19.779000     -4.056000
C         -28.886000    -16.872000     -6.266000
C         -28.455000    -16.461000     -8.600000
C         -22.935000    -17.803000     -8.637000
C         -25.073000    -17.357000     -4.039000
C         -24.793000    -21.777000     -7.417000
C         -24.982000    -18.410000    -10.479000
C         -23.128000    -20.205000     -8.107000
C         -27.489000    -15.511000     -8.216000
C         -24.007000    -15.902000     -8.100000
$end

--------------------------------------------------------------

             Standard Nuclear Orientation (Angstroms)
    I     Atom           X                Y                Z
 ----------------------------------------------------------------
    1      O      -6.7236111254     6.1754208912    -3.2896293846
    2      C      -7.4170508031     6.6398578409    -4.4808614077
    3      H      -6.7003602476     6.8378075173    -5.2875141045
    4      H      -7.9261152482     7.5790560170    -4.2348691786
    5      H      -8.1634349183     5.9163384494    -4.8320656827
    6      O      -5.7088834738     8.0953267316    -2.9706774179
    7      C      -5.8848450256     6.9924963642    -2.6332582232
    8      C      -5.0646613569     6.2872960844    -1.5534307764
    9      H      -5.5843155831     6.4101541513    -0.5951466951
   10      H      -4.0768895369     6.7570321497    -1.4616219511
   11      C      -4.8761339729     4.8044380752    -2.0241605823
   12      H      -5.8219580605     4.2563911245    -1.9336159241
   13      H      -4.6106717080     4.8551161481    -3.0881265211
   14      C      -3.8384921497     4.0383207595    -1.1665133907
   15      H      -2.8672815979     4.5442937311    -1.2198652040
   16      H      -4.0469699202     4.0453252328    -0.0893379377
   17      C      -3.6083918454     2.5860278413    -1.5817592574
   18      C      -2.7358387992     2.4026821275    -2.7840098680
   19      C      -3.2205235189     2.5855626780    -4.1139983742
   20      H      -4.2490098872     2.8338409661    -4.3563652077
   21      C      -2.2998201558     2.3392996478    -5.1644334445
   22      H      -2.5331698930     2.4785631992    -6.2157029454
   23      C      -0.8974014198     2.0953245835    -4.9733605347
   24      H      -0.2058243086     1.9713116231    -5.8026710224
   25      C      -0.4185109463     2.0444722828    -3.6658212589
   26      H       0.6349127983     1.8933904203    -3.4477233790
   27      C      -1.3265903065     2.1581802004    -2.6109390925
   28      H      -0.9857809026     2.1377125572    -1.5802596923
   29      C      -5.5588659835    -2.3800019545    -2.8002729848
   30      C      -3.4287264096    -2.7865138830    -1.8599116460
   31      C      -4.9537358339    -4.5980401948     1.9921861821
   32      C      -8.2668512198     0.4451350574     0.3098393643
   33      C      -4.4382327080    -1.6793040022     3.9113468228
   34      C      -4.1695566722    -2.0039442261    -2.6618164121
   35      C      -7.6129088922    -0.2261243198     2.9805187312
   36      C      -5.7897205472    -4.8974369253    -0.2040995819
   37      C      -2.3557672732     0.0374404089     0.8912184580
   38      C      -7.3819309855     1.2089392005     1.0431063075
   39      C      -3.5630650842     1.5275565873    -0.5143169455
   40      C      -3.1287143690     0.8469516639     1.7206455585
   41      C      -5.7401533421     1.2348169221     2.5291138826
   42      C      -6.7691650268    -1.0378406306     3.7829362787
   43      C      -2.7858438582    -0.5928793455    -1.4430728988
   44      C      -6.1713210946    -3.3556997092     3.4570483773
   45      C      -4.6919206262     1.5738724485    -1.5039335412
   46      C      -6.1047896698     1.6387504106    -0.9453738617
   47      C      -4.8184752576    -3.0045110457     3.6183947873
   48      C      -8.6877107612    -2.9797726861     0.2934017600
   49      C      -7.3055393321    -4.2653475229     1.5679293115
   50      C      -7.0902062383    -4.4861092113     0.2336977215
   51      C      -5.3153395967    -4.3322306934    -1.4178378688
   52      C      -6.9643436496     0.7809730052    -1.6309377745
   53      C      -2.6473875786     0.3755186516    -0.4396691028
   54      C      -3.9836899873    -3.9454041669    -1.2601877617
   55      C      -7.0724715262     0.9147306881     2.3735341313
   56      C      -2.5470673584    -1.9139223195    -1.1433976679
   57      C      -3.6027865956     0.2127346366     2.8735281571
   58      C      -8.4805055221    -1.0750494578    -1.3465352548
   59      C      -4.6955627221    -4.9187223328     0.6595783588
   60      C      -3.9144349788     1.6647906801     0.9632259476
   61      C      -7.4414052506    -3.2435018519    -1.8354062401
   62      C      -4.8971717043     0.4833481032     3.3694742651
   63      C      -2.1247060332    -1.3462890146     1.2394620305
   64      C      -8.1783345065    -2.3207246630     2.5971112761
   65      C      -8.5396034208    -1.0097802765     2.2404831968
   66      C      -2.5884534832    -1.9327268251     2.3885307826
   67      C      -8.0642424654     0.2308447737    -1.0202434778
   68      C      -6.2962486031     1.8112366795     0.4433784430
   69      C      -8.9894918607    -1.6329539328    -0.0914792784
   70      C      -4.8123876752     0.3914109870    -2.4050914532
   71      C      -2.7369808190    -3.4672174844     0.6825697493
   72      C      -5.2214733625     1.8195509092     1.3957140224
   73      C      -3.3520200178    -1.1048313128     3.1915377364
   74      C      -7.6638077281    -1.9011037271    -2.1656567704
   75      C      -4.0611371466    -3.7935563420     2.7419516881
   76      C      -6.1289695089    -3.5415278807    -2.2194920510
   77      C      -6.2666273470    -4.3668533253     2.4538240340
   78      C      -2.2416767175    -2.2836911124     0.1644228842
   79      C      -2.9548329074    -3.2469138450     2.0341346845
   80      C      -3.8315854202    -0.6251883325    -2.3882462770
   81      C      -6.1564937303    -0.0143721514    -2.5014758780
   82      C      -8.2837461087    -3.2911863851     1.6153590466
   83      C      -3.6091648533    -4.3352087648    -0.0125418586
   84      C      -5.4196137584    -0.6935125522     3.9600648998
   85      C      -8.8211496440    -0.6868542531     0.9400246209
   86      C      -7.1288656843    -2.3527428177     3.5802994722
   87      C      -6.5078324587    -1.3640217455    -2.7067003190
   88      C      -7.8326081195    -3.7039743892    -0.5836776922
   89      O       8.9406074992    -5.9212785498    -2.7230797272
   90      C       9.5355466113    -7.2611994678    -2.7943355098
   91      H      10.3753986775    -7.2484305375    -3.5003485843
   92      H       8.7318589123    -7.9350707311    -3.1155170828
   93      H       9.9398295202    -7.5219185821    -1.8081459373
   94      O      10.9126756885    -4.9908294908    -2.1149558864
   95      C       9.7601886853    -4.9269004042    -2.3647533634
   96      C       9.0114586523    -3.5694678925    -2.1831540412
   97      H       9.7453663422    -2.7568067758    -2.1124263101
   98      H       8.4767253779    -3.5815787533    -1.2249741769
   99      C       8.0099312169    -3.2762279833    -3.3556642339
  100      H       8.6414608548    -3.1067159872    -4.2357329810
  101      H       7.2887121529    -4.0801060542    -3.5489311704
  102      C       7.2991201463    -2.0099595113    -3.0346365424
  103      H       8.1057187613    -1.3791761454    -2.6402090844
  104      H       6.9769970284    -1.6053170989    -4.0022558968
  105      C       6.1943674892    -2.1581474491    -1.9466609444
  106      C       5.4641007500    -3.5299818675    -1.9778670065
  107      C       5.7629582432    -4.4770286561    -1.0432507329
  108      H       6.4894602908    -4.2295870118    -0.2745938475
  109      C       4.9873895887    -5.6054225195    -1.0341649514
  110      H       5.1231156777    -6.3688273598    -0.2731337573
  111      C       4.0671568496    -5.8479568787    -2.0240577691
  112      H       3.4456646819    -6.7374357901    -2.0286131738
  113      C       3.8256362151    -4.9402711733    -2.9976508275
  114      H       3.0574132677    -5.0782074771    -3.7539001775
  115      C       4.6536988517    -3.8200652768    -3.0301318871
  116      H       4.5149194158    -3.0497173074    -3.7821925722
  117      C       1.5985396962    -0.1727631426     0.3515992785
  118      C       2.8090081019    -1.1560998014     2.2244487797
  119      C       4.0070482391     2.7541437671     4.2328862481
  120      C       4.7011201557     3.0897523573    -2.1257196564
  121      C       7.3211032352     2.7452868865     2.9721388354
  122      C       2.4226687040    -1.2380344695     0.8836391065
  123      C       6.4513470433     4.3676682411    -0.2324809403
  124      C       1.9276798629     2.0818705666     3.1091647969
  125      C       6.7023466630    -1.0124749920     1.5841849570
  126      C       6.0612529926     2.6552706615    -2.0103839638
  127      C       6.2895717097    -1.3383904785    -0.7310094049
  128      C       7.5610975903    -0.1160160358     0.9964629268
  129      C       7.6052138433     2.1626987277    -0.4900422978
  130      C       6.7102810480     4.2658518668     1.1259190770
  131      C       4.5689747514    -1.8243080362     1.0416000372
  132      C       5.3183787848     4.1786491073     3.0663328908
  133      C       5.2221242443    -1.0064254738    -1.6796917248
  134      C       5.2432361045     0.3248044930    -2.3228480550
  135      C       6.1336455589     3.1967664631     3.6247884038
  136      C       2.4067514662     4.0960832925     0.3449774852
  137      C       3.0181100804     4.1886119313     2.5404216535
  138      C       2.0012272027     3.2531594396     2.3547099177
  139      C       1.4167485405     0.8530243418     2.6333821368
  140      C       3.9183363102     0.7959977443    -2.3249587750
  141      C       5.9236879437    -1.7039913522     0.6309249074
  142      C       2.2800466307    -0.1348151911     3.1124682090
  143      C       6.8913222082     3.2436875818    -1.0763193916
  144      C       4.1586635662    -1.5979954689     2.3459697521
  145      C       8.0570454048     1.0520627783     1.6415967495
  146      C       2.4793500206     2.6276865410    -1.5432167394
  147      C       2.9781345130     1.8428560311     4.0656223651
  148      C       7.2826289357    -0.2100167780    -0.3639506386
  149      C       1.0966781888     1.9889256023     0.4166746016
  150      C       8.0196885826     2.1859978715     0.8672682195
  151      C       6.3311677535    -0.7307373706     2.9006678205
  152      C       4.6122943902     4.9238696388     0.8926454278
  153      C       5.1280106080     4.7090291419    -0.3712376141
  154      C       6.6949820445     0.4794696149     3.5501547056
  155      C       3.6172011192     2.1511670195    -2.2185640745
  156      C       6.2504952731     1.2623144252    -2.0466921310
  157      C       2.8780526952     3.8346670633    -0.9571679393
  158      C       3.7912699221    -1.1734259684    -1.1826618027
  159      C       4.5866717021    -0.0121975948     4.1749025388
  160      C       7.2906828253     0.9750187878    -1.0972717432
  161      C       7.5905538882     1.3773798069     2.9135336567
  162      C       1.5908779244     1.6724773631    -0.8631742696
  163      C       5.3496912366     2.3134814174     4.3283245781
  164      C       1.1319104662     0.8047928488     1.2213293777
  165      C       4.0357683090     3.9536153957     3.4799307583
  166      C       4.9874098208    -1.0181974959     3.3111142781
  167      C       5.6495935873     0.9444663006     4.2732501736
  168      C       3.5163461462    -1.6419650485     0.1396365933
  169      C       2.9984711409    -0.1366595822    -1.6681518158
  170      C       3.2476608051     4.7290824628     1.2533532523
  171      C       3.2851165121     0.4700036059     4.0408984736
  172      C       7.5218626265     3.2230685957     1.6964796704
  173      C       4.2140465600     4.0810185988    -1.3152521672
  174      C       5.6485721429     4.7045089038     1.8214851809
  175      C       1.8849260014     0.3078443939    -0.9295413383
  176      C       1.5970878363     3.2262799408     0.9915375642
 ----------------------------------------------------------------

    9   -5804.2342804754      7.57E-06 Convergence criterion met
 Total energy in the final basis set = -5804.2342804754

                    Orbital Energies (a.u.)
 --------------------------------------------------------------

 Alpha MOs
 -- Occupied --
-19.197 -19.186 -19.134 -19.129 -10.312 -10.309 -10.252 -10.248
-10.242 -10.242 -10.239 -10.235 -10.235 -10.234 -10.233 -10.231
-10.230 -10.229 -10.229 -10.228 -10.227 -10.225 -10.225 -10.225
-10.225 -10.224 -10.224 -10.224 -10.224 -10.223 -10.223 -10.221
-10.221 -10.221 -10.221 -10.221 -10.220 -10.220 -10.220 -10.220
-10.219 -10.219 -10.219 -10.219 -10.219 -10.218 -10.218 -10.218
-10.218 -10.218 -10.218 -10.218 -10.218 -10.217 -10.217 -10.217
-10.217 -10.216 -10.216 -10.216 -10.216 -10.216 -10.216 -10.216
-10.215 -10.215 -10.215 -10.215 -10.215 -10.215 -10.215 -10.215
-10.215 -10.215 -10.215 -10.215 -10.215 -10.214 -10.214 -10.214
-10.214 -10.214 -10.214 -10.213 -10.213 -10.213 -10.213 -10.213
-10.212 -10.212 -10.212 -10.212 -10.212 -10.211 -10.211 -10.211
-10.211 -10.211 -10.211 -10.211 -10.211 -10.211 -10.210 -10.210
-10.210 -10.210 -10.210 -10.209 -10.209 -10.209 -10.209 -10.209
-10.209 -10.208 -10.208 -10.208 -10.208 -10.208 -10.208 -10.207
-10.207 -10.207 -10.206 -10.206 -10.206 -10.205 -10.205 -10.205
-10.205 -10.205 -10.204 -10.204 -10.203 -10.202 -10.201 -10.201
-10.200 -10.199 -10.197 -10.197 -10.197 -10.196 -10.195 -10.195
-10.194 -10.192 -10.192 -10.191  -1.109  -1.106  -1.026  -1.021
 -0.986  -0.984  -0.972  -0.968  -0.964  -0.963  -0.963  -0.961
 -0.940  -0.938  -0.931  -0.927  -0.926  -0.926  -0.925  -0.923
 -0.923  -0.921  -0.903  -0.899  -0.894  -0.890  -0.889  -0.887
 -0.883  -0.874  -0.869  -0.845  -0.842  -0.841  -0.839  -0.839
 -0.838  -0.836  -0.827  -0.822  -0.812  -0.804  -0.801  -0.799
 -0.798  -0.795  -0.795  -0.794  -0.791  -0.791  -0.783  -0.783
 -0.774  -0.771  -0.770  -0.770  -0.768  -0.766  -0.766  -0.761
 -0.761  -0.746  -0.745  -0.738  -0.738  -0.733  -0.719  -0.717
 -0.716  -0.716  -0.715  -0.712  -0.712  -0.712  -0.710  -0.709
 -0.708  -0.707  -0.707  -0.704  -0.704  -0.700  -0.673  -0.673
 -0.660  -0.659  -0.658  -0.657  -0.651  -0.648  -0.637  -0.633
 -0.632  -0.626  -0.625  -0.622  -0.622  -0.621  -0.620  -0.617
 -0.616  -0.614  -0.613  -0.610  -0.610  -0.610  -0.609  -0.607
 -0.607  -0.605  -0.604  -0.603  -0.569  -0.568  -0.567  -0.565
 -0.563  -0.562  -0.560  -0.558  -0.557  -0.556  -0.556  -0.554
 -0.545  -0.538  -0.535  -0.532  -0.529  -0.529  -0.527  -0.524
 -0.523  -0.523  -0.520  -0.520  -0.517  -0.515  -0.514  -0.512
 -0.510  -0.506  -0.506  -0.501  -0.497  -0.494  -0.490  -0.487
 -0.487  -0.485  -0.484  -0.481  -0.480  -0.479  -0.478  -0.474
 -0.472  -0.472  -0.471  -0.471  -0.470  -0.468  -0.468  -0.466
 -0.466  -0.465  -0.464  -0.464  -0.463  -0.463  -0.462  -0.460
 -0.458  -0.457  -0.455  -0.452  -0.451  -0.450  -0.448  -0.446
 -0.443  -0.442  -0.442  -0.441  -0.440  -0.439  -0.437  -0.435
 -0.432  -0.431  -0.430  -0.428  -0.427  -0.427  -0.426  -0.425
 -0.423  -0.423  -0.423  -0.422  -0.421  -0.419  -0.419  -0.418
 -0.418  -0.416  -0.416  -0.415  -0.415  -0.415  -0.414  -0.413
 -0.412  -0.410  -0.409  -0.407  -0.402  -0.402  -0.401  -0.400
 -0.395  -0.394  -0.393  -0.390  -0.389  -0.388  -0.386  -0.386
 -0.383  -0.380  -0.380  -0.376  -0.373  -0.370  -0.368  -0.367
 -0.366  -0.364  -0.364  -0.363  -0.362  -0.361  -0.359  -0.359
 -0.358  -0.357  -0.357  -0.356  -0.355  -0.354  -0.354  -0.352
 -0.352  -0.350  -0.349  -0.348  -0.347  -0.346  -0.346  -0.343
 -0.343  -0.342  -0.341  -0.339  -0.337  -0.337  -0.335  -0.334
 -0.333  -0.332  -0.331  -0.330  -0.330  -0.329  -0.326  -0.325
 -0.312  -0.311  -0.307  -0.300  -0.291  -0.287  -0.275  -0.272
 -0.270  -0.268  -0.267  -0.266  -0.266  -0.265  -0.264  -0.263
 -0.263  -0.262  -0.260  -0.260  -0.259  -0.258  -0.256  -0.255
 -0.252  -0.248  -0.247  -0.240  -0.223  -0.223  -0.214  -0.212
 -0.210  -0.209  -0.207  -0.203  -0.202  -0.199

          Ground-State Mulliken Net Atomic Charges

     Atom                 Charge (a.u.)
  ----------------------------------------
      1 O                    -0.466583
      2 C                    -0.085636
      3 H                     0.127165
      4 H                     0.132884
      5 H                     0.126179
      6 O                    -0.441827
      7 C                     0.577075
      8 C                    -0.264765
      9 H                     0.132767
     10 H                     0.136029
     11 C                    -0.179417
     12 H                     0.122571
     13 H                     0.113571
     14 C                    -0.189024
     15 H                     0.110479
     16 H                     0.104601
     17 C                     0.021399
     18 C                     0.064356
     19 C                    -0.105120
     20 H                     0.098125
     21 C                    -0.101063
     22 H                     0.084265
     23 C                    -0.089910
     24 H                     0.091728
     25 C                    -0.079718
     26 H                     0.088999
     27 C                    -0.098466
     28 H                     0.085556
     29 C                    -0.012605
     30 C                     0.025563
     31 C                     0.003580
     32 C                     0.019068
     33 C                    -0.019067
     34 C                    -0.033401
     35 C                    -0.027852
     36 C                    -0.033077
     37 C                    -0.009420
     38 C                    -0.005284
     39 C                    -0.095414
     40 C                    -0.008034
     41 C                     0.009003
     42 C                     0.030384
     43 C                     0.031823
     44 C                    -0.007113
     45 C                    -0.064583
     46 C                     0.017320
     47 C                     0.019197
     48 C                    -0.038173
     49 C                     0.014715
     50 C                     0.011151
     51 C                    -0.009486
     52 C                     0.009712
     53 C                     0.032112
     54 C                     0.038844
     55 C                     0.003317
     56 C                    -0.036432
     57 C                     0.027655
     58 C                    -0.026691
     59 C                     0.000645
     60 C                     0.035781
     61 C                    -0.011712
     62 C                    -0.046102
     63 C                    -0.009691
     64 C                    -0.019518
     65 C                     0.005638
     66 C                    -0.014205
     67 C                     0.006292
     68 C                    -0.022375
     69 C                    -0.041602
     70 C                     0.031398
     71 C                     0.023566
     72 C                     0.003047
     73 C                     0.023470
     74 C                     0.000164
     75 C                    -0.015245
     76 C                    -0.016017
     77 C                    -0.002928
     78 C                    -0.003996
     79 C                    -0.014444
     80 C                     0.004138
     81 C                    -0.011642
     82 C                     0.008572
     83 C                    -0.022598
     84 C                    -0.004876
     85 C                     0.032409
     86 C                     0.001383
     87 C                     0.026474
     88 C                     0.048222
     89 O                    -0.455993
     90 C                    -0.093165
     91 H                     0.136392
     92 H                     0.129032
     93 H                     0.134532
     94 O                    -0.454523
     95 C                     0.587680
     96 C                    -0.262495
     97 H                     0.127888
     98 H                     0.122901
     99 C                    -0.190400
    100 H                     0.100870
    101 H                     0.131317
    102 C                    -0.186247
    103 H                     0.108233
    104 H                     0.103923
    105 C                     0.010961
    106 C                     0.076395
    107 C                    -0.082638
    108 H                     0.093870
    109 C                    -0.096079
    110 H                     0.087164
    111 C                    -0.072404
    112 H                     0.086279
    113 C                    -0.080955
    114 H                     0.095028
    115 C                    -0.106836
    116 H                     0.084899
    117 C                     0.000955
    118 C                    -0.005761
    119 C                    -0.015754
    120 C                    -0.015046
    121 C                    -0.019926
    122 C                    -0.033381
    123 C                    -0.049834
    124 C                     0.003778
    125 C                     0.003397
    126 C                     0.000254
    127 C                    -0.064959
    128 C                     0.045145
    129 C                     0.008412
    130 C                     0.038260
    131 C                     0.013948
    132 C                     0.021155
    133 C                    -0.092698
    134 C                     0.054244
    135 C                    -0.002317
    136 C                     0.016643
    137 C                    -0.000626
    138 C                     0.010091
    139 C                    -0.018114
    140 C                    -0.019156
    141 C                     0.002618
    142 C                    -0.005949
    143 C                     0.001182
    144 C                     0.019231
    145 C                    -0.011917
    146 C                     0.004120
    147 C                     0.013461
    148 C                    -0.000784
    149 C                    -0.040219
    150 C                    -0.006723
    151 C                    -0.028528
    152 C                    -0.003972
    153 C                     0.018327
    154 C                     0.024916
    155 C                    -0.002773
    156 C                     0.001076
    157 C                    -0.009411
    158 C                     0.043529
    159 C                    -0.002694
    160 C                    -0.016814
    161 C                    -0.009829
    162 C                    -0.016069
    163 C                     0.003494
    164 C                     0.023078
    165 C                    -0.010056
    166 C                    -0.019945
    167 C                     0.001066
    168 C                     0.022249
    169 C                    -0.004384
    170 C                    -0.019019
    171 C                    -0.002178
    172 C                     0.005425
    173 C                     0.002367
    174 C                     0.000826
    175 C                     0.026932
    176 C                     0.005745
  ----------------------------------------
  Sum of atomic charges =     0.000000

                    Cartesian Multipole Moments
 -----------------------------------------------------------------
    Charge (ESU x 10^10)
                 0.0000
    Dipole Moment (Debye)
         X       0.2585      Y      -2.7231      Z      -3.0655
       Tot       4.1085
    Quadrupole Moments (Debye-Ang)
        XX    -832.4941     XY     -19.5926     YY    -806.3739
        XZ      -2.3061     YZ       8.0061     ZZ    -789.6319

 Total job time:  861.92s(wall), 8221.68s(cpu)
        *  Thank you very much for using Q-Chem.  Have a nice day.  *
