 Q-Chem 4.4, Q-Chem, Inc., Pleasanton, CA (2016)
 Q-Chem 4.4.2 for Intel X86 Linux

User input:
--------------------------------------------------------------
$comment
SP
$end

$rem
MEM_STATIC 5000
MEM_TOTAL 20000
JOBTYPE SP
EXCHANGE B3LYP
BASIS 6-31g(d,p)
$end

$molecule
0 1
O           6.745000    -30.363000     13.204000
C           7.918000    -30.761000     13.780000
H           8.823000    -30.652000     13.170000
H           7.873000    -31.835000     14.004000
H           8.108000    -30.234000     14.723000
O           6.300000    -32.142000     11.794000
C           6.038000    -31.013000     12.251000
C           4.870000    -30.142000     11.778000
H           5.093000    -29.105000     12.059000
H           3.968000    -30.323000     12.376000
C           4.408000    -30.320000     10.304000
H           5.198000    -30.330000      9.543000
H           4.016000    -31.338000     10.184000
C           3.376000    -29.213000     10.072000
H           2.526000    -29.574000     10.665000
H           3.641000    -28.248000     10.522000
C           3.012000    -29.060000      8.618000
C           2.010000    -30.097000      8.191000
C           0.642000    -29.861000      8.424000
H           0.158000    -29.029000      8.927000
C          -0.310000    -30.795000      8.040000
H          -1.374000    -30.673000      8.218000
C           0.109000    -31.978000      7.442000
H          -0.590000    -32.739000      7.107000
C           1.445000    -32.241000      7.313000
H           1.741000    -33.241000      7.010000
C           2.429000    -31.324000      7.661000
H           3.493000    -31.539000      7.616000
C           4.686000    -27.566000      3.754000
C           2.421000    -26.828000      3.703000
C           3.435000    -22.414000      3.834000
C           7.252000    -25.796000      7.643000
C           2.919000    -22.174000      7.308000
C           3.327000    -27.785000      4.069000
C           6.330000    -23.226000      8.235000
C           4.485000    -24.168000      2.577000
C           1.288000    -25.822000      7.356000
C           6.394000    -25.627000      8.705000
C           2.727000    -27.627000      8.183000
C           2.095000    -25.297000      8.432000
C           4.608000    -24.509000      9.339000
C           5.338000    -22.293000      7.821000
C           1.890000    -27.495000      5.798000
C           4.623000    -21.599000      5.656000
C           3.979000    -28.385000      7.732000
C           5.290000    -27.781000      8.165000
C           3.291000    -21.847000      5.986000
C           7.460000    -24.217000      4.496000
C           5.854000    -22.660000      3.916000
C           5.774000    -23.791000      3.063000
C           4.200000    -25.552000      2.598000
C           6.160000    -27.893000      7.044000
C           1.754000    -27.129000      7.112000
C           2.834000    -25.722000      2.896000
C           5.918000    -24.362000      8.991000
C           1.471000    -26.646000      4.753000
C           2.341000    -23.967000      8.528000
C           7.552000    -26.530000      5.499000
C           3.316000    -23.494000      2.921000
C           2.914000    -26.290000      8.864000
C           6.447000    -26.061000      3.367000
C           3.632000    -23.604000      8.921000
C           0.908000    -24.962000      6.272000
C           6.853000    -22.536000      6.145000
C           7.253000    -23.357000      7.188000
C           1.253000    -23.611000      6.386000
C           7.167000    -26.915000      6.766000
C           5.348000    -26.574000      8.911000
C           7.856000    -25.107000      5.503000
C           4.148000    -28.586000      6.238000
C           1.432000    -24.247000      4.220000
C           4.223000    -25.876000      9.297000
C           1.929000    -23.110000      7.484000
C           6.812000    -26.968000      4.418000
C           2.521000    -22.283000      4.911000
C           5.136000    -26.457000      3.016000
C           4.696000    -21.963000      4.298000
C           1.080000    -25.347000      4.987000
C           1.513000    -23.183000      5.092000
C           3.067000    -28.239000      5.372000
C           5.461000    -28.367000      5.896000
C           6.946000    -22.959000      4.807000
C           2.290000    -24.432000      3.112000
C           3.965000    -22.435000      8.156000
C           7.726000    -24.672000      6.877000
C           5.693000    -21.827000      6.564000
C           5.750000    -27.851000      4.637000
C           6.728000    -24.729000      3.430000
O           3.737000    -18.183000     -1.169000
C           3.832000    -19.121000     -2.306000
H           3.482000    -20.107000     -1.974000
H           4.868000    -19.284000     -2.629000
H           3.191000    -18.872000     -3.160000
O           4.578000    -16.312000     -2.247000
C           4.114000    -16.879000     -1.273000
C           4.178000    -16.268000      0.083000
H           4.901000    -15.464000     -0.102000
H           4.643000    -16.910000      0.841000
C           2.847000    -15.638000      0.534000
H           3.049000    -15.073000      1.452000
H           2.536000    -14.848000     -0.161000
C           1.767000    -16.658000      0.818000
H           1.473000    -17.110000     -0.137000
H           2.151000    -17.483000      1.431000
C           0.557000    -16.101000      1.492000
C          -0.305000    -15.441000      0.505000
C          -1.101000    -16.231000     -0.369000
H          -1.098000    -17.299000     -0.175000
C          -1.920000    -15.619000     -1.298000
H          -2.446000    -16.206000     -2.044000
C          -1.840000    -14.190000     -1.436000
H          -2.302000    -13.733000     -2.307000
C          -1.041000    -13.432000     -0.572000
H          -0.885000    -12.379000     -0.787000
C          -0.333000    -14.051000      0.387000
H           0.274000    -13.393000      1.002000
C          -1.133000    -13.216000      5.831000
C          -3.007000    -14.723000      5.412000
C          -2.157000    -17.390000      9.053000
C           3.139000    -15.763000      6.323000
C          -0.463000    -19.861000      7.288000
C          -1.975000    -13.874000      4.894000
C           2.698000    -18.224000      7.466000
C          -2.112000    -14.983000      8.873000
C          -1.655000    -18.155000      3.730000
C           3.083000    -16.884000      5.488000
C           0.020000    -16.867000      2.685000
C          -0.412000    -18.790000      3.881000
C           2.053000    -18.850000      5.111000
C           1.704000    -19.135000      8.011000
C          -2.059000    -15.860000      3.658000
C          -0.248000    -18.464000      9.293000
C           0.723000    -15.563000      2.891000
C           1.994000    -15.525000      3.740000
C          -0.980000    -19.172000      8.381000
C           1.355000    -14.860000      9.176000
C          -0.261000    -16.174000      9.987000
C          -0.823000    -14.944000      9.542000
C          -2.380000    -14.163000      7.773000
C           2.019000    -14.446000      4.651000
C          -1.407000    -16.946000      3.108000
C          -3.131000    -14.858000      6.825000
C           2.829000    -18.126000      6.073000
C          -3.116000    -15.916000      4.591000
C          -0.183000    -19.629000      4.993000
C           2.061000    -13.947000      6.992000
C          -2.739000    -16.199000      8.618000
C           0.626000    -18.018000      3.358000
C          -0.051000    -13.318000      7.899000
C           1.044000    -19.624000      5.633000
C          -2.622000    -18.309000      4.732000
C           1.846000    -17.215000      9.343000
C           2.772000    -17.097000      8.298000
C          -2.343000    -19.069000      5.862000
C           2.594000    -14.566000      5.914000
C           2.517000    -16.789000      4.248000
C           2.237000    -14.712000      8.109000
C          -0.004000    -14.453000      3.483000
C          -3.501000    -17.253000      6.561000
C           1.895000    -17.978000      4.018000
C          -1.124000    -19.819000      6.028000
C           0.882000    -13.245000      6.848000
C          -2.233000    -18.539000      8.261000
C          -1.285000    -13.336000      7.222000
C          -0.961000    -17.353000      9.761000
C          -3.338000    -17.190000      5.183000
C          -2.838000    -18.434000      6.968000
C          -1.431000    -14.563000      3.730000
C           0.786000    -13.784000      4.505000
C           1.120000    -16.078000      9.767000
C          -3.392000    -16.125000      7.389000
C           0.882000    -19.772000      7.035000
C           2.932000    -15.835000      7.680000
C           1.157000    -18.410000      9.081000
C           0.226000    -13.204000      5.600000
C           0.154000    -14.102000      9.090000
$end

--------------------------------------------------------------

             Standard Nuclear Orientation (Angstroms)
    I     Atom           X                Y                Z
 ----------------------------------------------------------------
    1      O     -11.6024812242    -3.8462921914    -2.4480962652
    2      C     -12.5033745623    -3.8857564653    -3.4742262592
    3      H     -12.5421791882    -3.0029451090    -4.1239525941
    4      H     -13.5207067562    -3.9656423027    -3.0688493233
    5      H     -12.3386698456    -4.7511808240    -4.1276717700
    6      O     -12.6932482161    -2.4805952643    -0.9328189728
    7      C     -11.7050485774    -3.1478521385    -1.2938781616
    8      C     -10.4046434166    -3.2639489147    -0.4925904752
    9      H      -9.6134728907    -3.5767362295    -1.1856072820
   10      H     -10.4288704278    -4.1250593487     0.1870203490
   11      C     -10.0226063812    -2.0584024926     0.4121246887
   12      H     -10.0911798393    -1.0639082367    -0.0456960794
   13      H     -10.7833585645    -1.9589505789     1.1968242697
   14      C      -8.6172391361    -2.3765689942     0.9298214957
   15      H      -8.8203795726    -3.1898212424     1.6382173905
   16      H      -7.9499502040    -2.8193902163     0.1797649336
   17      C      -7.9730687908    -1.1968590560     1.6105196872
   18      C      -8.4680416853    -1.0400231842     3.0219396612
   19      C      -7.8637837111    -1.7947553989     4.0450039723
   20      H      -7.0834160754    -2.5474858565     3.9824562993
   21      C      -8.2933783038    -1.6724775709     5.3590102960
   22      H      -7.8783047224    -2.2483573946     6.1804360995
   23      C      -9.3450325519    -0.8100764571     5.6470062361
   24      H      -9.7145363707    -0.6615771282     6.6576307347
   25      C      -9.9907254390    -0.1592023897     4.6320433579
   26      H     -10.9141167563     0.3621278297     4.8665391519
   27      C      -9.5775695411    -0.2342399824     3.3076866976
   28      H     -10.1121245865     0.2318236312     2.4846547350
   29      C      -5.8843729251     3.6958486834     0.9847652968
   30      C      -4.4536211770     2.8013231167     2.6670980361
   31      C      -0.8252136464     2.4723901386    -0.0264525737
   32      C      -6.1597315897     0.8440267293    -3.0935758057
   33      C      -1.3577126642    -0.9426328080    -0.6947302632
   34      C      -5.7169674757     2.9295694850     2.1590133990
   35      C      -3.6838310134    -0.3843428897    -3.5015861185
   36      C      -2.4280749582     4.2508896924     0.1373764589
   37      C      -4.1357243084    -1.1095798273     2.1732217932
   38      C      -6.0044060878    -0.4733834438    -2.7290577347
   39      C      -6.4655507594    -1.0937092282     1.4088057857
   40      C      -4.2120321702    -1.8671663997     0.9464823360
   41      C      -4.5692808501    -1.8692195586    -1.8159678744
   42      C      -2.4010774936    -0.4973339439    -2.8951824336
   43      C      -5.4373657482     0.7678330778     2.7812903305
   44      C      -0.9624390975     1.1329234877    -1.9191361888
   45      C      -7.4465424270    -0.1126070052     0.7602976700
   46      C      -7.4475277213    -0.1023977850    -0.7466597949
   47      C      -0.8342023632     0.3667706236    -0.7610372600
   48      C      -3.9643622316     3.6024458096    -2.9859117034
   49      C      -1.8694205901     3.3304464540    -2.0493643904
   50      C      -2.6414530356     4.2343692873    -1.2747293701
   51      C      -3.5930896095     4.3092717205     0.9351573819
   52      C      -7.5395553528     1.2661052235    -1.1272060217
   53      C      -5.4090335263    -0.5383760200     2.3664854629
   54      C      -3.3744803974     3.5494942952     2.1007509116
   55      C      -4.7769641742    -1.0813120997    -2.9090746730
   56      C      -4.2529280471     1.4589531283     3.1096916216
   57      C      -3.1140402197    -2.0403685664     0.1699215295
   58      C      -6.3557042500     3.0225611613    -2.4294414478
   59      C      -1.5222591819     3.4101314012     0.7790900048
   60      C      -5.4967160232    -1.8271574730     0.5089658409
   61      C      -5.0006982880     4.5071703174    -1.0343412734
   62      C      -3.3161197180    -1.9688605711    -1.2110018872
   63      C      -2.9438812883    -0.3695757825     2.4748179288
   64      C      -2.6779326971     1.6385213281    -3.6195604104
   65      C      -3.8301965428     0.9384454544    -3.9421620239
   66      C      -1.8643626376    -0.5252380470     1.5986725401
   67      C      -6.9128822413     1.7665393108    -2.3123910433
   68      C      -6.5710292832    -0.9263206465    -1.5013985617
   69      C      -5.1682672130     2.9431110807    -3.2667239377
   70      C      -7.2886294039     1.3493159661     1.1329136965
   71      C      -1.9257363782     1.6154362117     2.3347703476
   72      C      -5.6691470579    -1.7924615909    -0.9198202641
   73      C      -1.9249348582    -1.3486229989     0.4887404579
   74      C      -6.2214128967     3.7981344371    -1.2943392822
   75      C      -0.6897720397     1.1253966158     0.3975167895
   76      C      -4.8330279700     4.3940188277     0.3648804405
   77      C      -0.9564755641     2.4558250087    -1.4375917963
   78      C      -3.0090085316     0.9259232020     2.8575382227
   79      C      -1.2197590619     0.7033307715     1.5806478809
   80      C      -6.3875071589     1.6961864864     2.1848573935
   81      C      -7.4336747468     2.1232678500     0.0064793531
   82      C      -2.7373234640     2.9583339307    -3.1374925407
   83      C      -2.0833669323     2.9772241352     1.9901847127
   84      C      -2.1645946963    -1.2974222202    -1.7456378991
   85      C      -5.0953140332     1.5748604877    -3.7320938424
   86      C      -1.7632601433     0.7275755158    -3.0217361499
   87      C      -6.7282186196     3.3187996223    -0.0823656461
   88      C      -3.9037209323     4.3770466626    -1.8323779365
   89      O       4.2330976014     6.6184501432    -0.5226861460
   90      C       3.6532885177     7.8227704402     0.1058614246
   91      H       2.7878769398     7.5184297667     0.7086545527
   92      H       3.2487512191     8.5268580100    -0.6322471502
   93      H       4.3170098395     8.3354654640     0.8121303674
   94      O       5.9355155213     7.6733220048    -1.6884582428
   95      C       5.3172255013     6.6811869433    -1.3437170776
   96      C       5.4902428380     5.3783333706    -2.0428526647
   97      H       6.0285426822     5.7107027894    -2.9390300172
   98      H       4.5541483763     4.9404744174    -2.4102212751
   99      C       6.3814037925     4.3848136516    -1.2743393459
  100      H       6.5831870527     3.5417747824    -1.9461443629
  101      H       7.3839603061     4.8024919955    -1.1185470542
  102      C       5.7392278008     3.8572643837    -0.0107105374
  103      H       5.6800187357     4.6850273653     0.7062746317
  104      H       4.7025625479     3.5467358717    -0.1916724026
  105      C       6.4651785237     2.7136576639     0.6168117478
  106      C       7.6094896882     3.2116507470     1.3884125825
  107      C       7.3885955692     3.8229784446     2.6529584433
  108      H       6.3687798025     3.7877248210     3.0230962340
  109      C       8.4598449435     4.2900811860     3.3895626838
  110      H       8.2996648531     4.8574114533     4.3007375882
  111      C       9.7643887709     4.2568616440     2.7857855192
  112      H      10.5618542507     4.8242004382     3.2581302038
  113      C       9.9579543600     3.6600859168     1.5344453999
  114      H      10.9171863840     3.7758241781     1.0386141997
  115      C       8.9091085979     3.1250258573     0.8881178513
  116      H       9.1415359551     2.6987563967    -0.0834323896
  117      C       8.4874863972    -2.2842886472    -0.3512014421
  118      C       7.8529121737    -2.3970738487     2.0031734332
  119      C       4.1913719450    -5.0708269415     1.2707544600
  120      C       4.6377960876    -0.8073100202    -3.1756793860
  121      C       1.8607466641    -2.4907002021     1.3135774562
  122      C       8.4180599331    -1.6497498489     0.9186164502
  123      C       2.2514909039    -1.6945981574    -2.1385109659
  124      C       6.4045115299    -5.2083749121     0.3162033961
  125      C       4.7428514350     0.1070884330     2.7048467676
  126      C       3.8621189565     0.0876874057    -2.4311616925
  127      C       5.6327345185     1.5196067092     1.0406670245
  128      C       3.7167455479     0.5155423111     1.8380439423
  129      C       2.5216419482     0.3115384224    -0.6363923166
  130      C       1.6104664003    -2.4443402335    -1.0698873627
  131      C       6.9743484778    -0.2819731092     2.1530523635
  132      C       2.5238680014    -4.4378422040    -0.0231226286
  133      C       6.5269592397     1.4189803289    -0.1540285348
  134      C       5.9162760356     1.1073444018    -1.5206429914
  135      C       2.3661636324    -3.7786689247     1.1640807743
  136      C       5.2895614937    -4.2120983606    -2.8288477084
  137      C       4.4186239874    -5.3842562178    -1.1367227669
  138      C       5.8364766987    -5.3481035349    -1.0136143894
  139      C       7.5273371220    -4.4066593706     0.5414563210
  140      C       6.6440191785     0.1365723455    -2.2436772457
  141      C       5.9208185978     0.6102136393     2.1858791480
  142      C       7.3972278621    -3.7232194836     1.7504689353
  143      C       2.6660464809    -0.3793034857    -1.8828596402
  144      C       7.0258263265    -1.5251091009     2.8185123075
  145      C       2.5864219504    -0.3091941752     1.6507359250
  146      C       6.4618709936    -2.0643650757    -3.1676591214
  147      C       5.5778592409    -5.0461275789     1.4239632058
  148      C       4.2114861141     1.2799184541     0.7807275828
  149      C       7.4894789909    -3.7674113686    -1.8552227885
  150      C       2.0157681812    -0.4408555025     0.3968724673
  151      C       4.6575248933    -1.1529017101     3.3114382450
  152      C       2.9497841850    -3.8699364171    -2.3562354466
  153      C       3.0274476218    -2.5809344749    -2.9001723764
  154      C       3.5774637806    -1.9860455319     3.0437063547
  155      C       6.0105983147    -0.7935127079    -3.0645997773
  156      C       4.4638249754     1.0033170009    -1.6147345303
  157      C       5.4147738689    -2.9232556540    -3.3402412348
  158      C       7.6158933140     0.4571015591    -0.1437906564
  159      C       5.4200354306    -3.3004447053     3.1123032040
  160      C       3.6533531341     1.1408769742    -0.5295075272
  161      C       2.4511472038    -1.5850345397     2.2395806476
  162      C       7.5256560469    -2.4643158838    -2.3853665218
  163      C       3.3855498020    -4.2190555367     2.0312655696
  164      C       8.0604745302    -3.6026440064    -0.5792036623
  165      C       3.6419349675    -5.2807415002     0.0109513461
  166      C       5.7883344921    -1.9823651814     3.3498830225
  167      C       4.0232491583    -3.2705926558     2.8930408851
  168      C       7.9225297518    -0.2865111464     1.0655282591
  169      C       7.6899518662    -0.2763362828    -1.3978756866
  170      C       4.1073582581    -4.6807130273    -2.3084384427
  171      C       6.1863878890    -4.1702074779     2.3210601131
  172      C       1.5637843285    -1.7693200120     0.1855796758
  173      C       4.2814538031    -2.1212882551    -3.3653195037
  174      C       2.1645042510    -3.7271335610    -1.2011022208
  175      C       8.1103183949    -1.5676782094    -1.4668177643
  176      C       6.3959776312    -4.6809529544    -2.0670211530
 ----------------------------------------------------------------

    9   -5804.2568092486      9.19E-06 Convergence criterion met
 Total energy in the final basis set = -5804.2568092486

                    Orbital Energies (a.u.)
 --------------------------------------------------------------

 Alpha MOs
 -- Occupied --
-19.198 -19.197 -19.137 -19.135 -10.326 -10.314 -10.252 -10.245
-10.240 -10.239 -10.238 -10.238 -10.235 -10.234 -10.233 -10.232
-10.227 -10.226 -10.226 -10.225 -10.225 -10.224 -10.224 -10.224
-10.224 -10.222 -10.222 -10.221 -10.221 -10.221 -10.220 -10.220
-10.220 -10.219 -10.219 -10.219 -10.218 -10.218 -10.218 -10.218
-10.218 -10.218 -10.218 -10.218 -10.218 -10.217 -10.217 -10.217
-10.217 -10.217 -10.217 -10.217 -10.216 -10.216 -10.216 -10.216
-10.216 -10.216 -10.216 -10.216 -10.216 -10.215 -10.215 -10.215
-10.215 -10.215 -10.215 -10.214 -10.214 -10.214 -10.214 -10.214
-10.214 -10.214 -10.214 -10.214 -10.214 -10.214 -10.214 -10.213
-10.213 -10.213 -10.213 -10.213 -10.213 -10.212 -10.212 -10.212
-10.212 -10.212 -10.212 -10.212 -10.212 -10.211 -10.211 -10.211
-10.211 -10.211 -10.211 -10.210 -10.210 -10.210 -10.210 -10.210
-10.210 -10.209 -10.209 -10.209 -10.209 -10.209 -10.209 -10.209
-10.209 -10.208 -10.208 -10.208 -10.208 -10.207 -10.207 -10.207
-10.207 -10.207 -10.206 -10.206 -10.206 -10.206 -10.205 -10.205
-10.204 -10.204 -10.203 -10.203 -10.202 -10.201 -10.200 -10.200
-10.200 -10.199 -10.198 -10.197 -10.195 -10.195 -10.195 -10.194
-10.193 -10.193 -10.192 -10.191  -1.106  -1.088  -1.010  -1.007
 -0.985  -0.983  -0.969  -0.967  -0.965  -0.962  -0.960  -0.959
 -0.940  -0.932  -0.929  -0.927  -0.926  -0.925  -0.924  -0.923
 -0.922  -0.917  -0.900  -0.896  -0.893  -0.888  -0.887  -0.883
 -0.878  -0.876  -0.859  -0.859  -0.843  -0.841  -0.840  -0.837
 -0.835  -0.834  -0.826  -0.824  -0.809  -0.807  -0.799  -0.798
 -0.796  -0.795  -0.794  -0.794  -0.793  -0.791  -0.783  -0.783
 -0.773  -0.770  -0.769  -0.768  -0.768  -0.766  -0.766  -0.766
 -0.760  -0.755  -0.754  -0.743  -0.737  -0.736  -0.719  -0.718
 -0.714  -0.714  -0.713  -0.712  -0.712  -0.710  -0.708  -0.708
 -0.707  -0.707  -0.706  -0.706  -0.703  -0.703  -0.674  -0.671
 -0.660  -0.659  -0.655  -0.655  -0.652  -0.650  -0.635  -0.632
 -0.630  -0.629  -0.627  -0.624  -0.622  -0.621  -0.618  -0.618
 -0.617  -0.615  -0.615  -0.612  -0.611  -0.610  -0.608  -0.608
 -0.607  -0.606  -0.601  -0.601  -0.579  -0.571  -0.568  -0.564
 -0.564  -0.563  -0.559  -0.558  -0.558  -0.555  -0.552  -0.550
 -0.541  -0.539  -0.537  -0.532  -0.530  -0.528  -0.526  -0.526
 -0.525  -0.523  -0.519  -0.517  -0.515  -0.514  -0.513  -0.511
 -0.510  -0.509  -0.502  -0.500  -0.492  -0.491  -0.488  -0.487
 -0.486  -0.485  -0.482  -0.481  -0.480  -0.479  -0.476  -0.475
 -0.475  -0.473  -0.472  -0.470  -0.469  -0.468  -0.467  -0.467
 -0.467  -0.465  -0.463  -0.463  -0.463  -0.462  -0.461  -0.460
 -0.458  -0.456  -0.454  -0.451  -0.450  -0.449  -0.445  -0.445
 -0.442  -0.441  -0.440  -0.440  -0.439  -0.438  -0.435  -0.432
 -0.431  -0.431  -0.430  -0.429  -0.427  -0.427  -0.426  -0.425
 -0.423  -0.423  -0.422  -0.421  -0.419  -0.419  -0.418  -0.417
 -0.416  -0.416  -0.415  -0.415  -0.414  -0.413  -0.412  -0.411
 -0.411  -0.410  -0.410  -0.407  -0.405  -0.402  -0.398  -0.397
 -0.395  -0.394  -0.393  -0.392  -0.390  -0.387  -0.386  -0.385
 -0.383  -0.378  -0.375  -0.373  -0.370  -0.368  -0.368  -0.367
 -0.366  -0.364  -0.363  -0.362  -0.362  -0.361  -0.359  -0.358
 -0.357  -0.356  -0.355  -0.353  -0.352  -0.351  -0.351  -0.350
 -0.350  -0.349  -0.347  -0.346  -0.345  -0.345  -0.344  -0.343
 -0.340  -0.340  -0.337  -0.337  -0.336  -0.336  -0.335  -0.334
 -0.334  -0.331  -0.330  -0.330  -0.328  -0.327  -0.325  -0.323
 -0.313  -0.312  -0.303  -0.297  -0.290  -0.284  -0.272  -0.270
 -0.270  -0.269  -0.268  -0.268  -0.267  -0.266  -0.264  -0.263
 -0.262  -0.261  -0.260  -0.259  -0.258  -0.257  -0.255  -0.255
 -0.250  -0.249  -0.245  -0.241  -0.224  -0.222  -0.212  -0.211
 -0.210  -0.208  -0.206  -0.204  -0.199  -0.197

          Ground-State Mulliken Net Atomic Charges

     Atom                 Charge (a.u.)
  ----------------------------------------
      1 O                    -0.435427
      2 C                    -0.086050
      3 H                     0.119018
      4 H                     0.121556
      5 H                     0.121600
      6 O                    -0.485780
      7 C                     0.597410
      8 C                    -0.266703
      9 H                     0.128815
     10 H                     0.135857
     11 C                    -0.182357
     12 H                     0.111707
     13 H                     0.127627
     14 C                    -0.182536
     15 H                     0.113566
     16 H                     0.109278
     17 C                     0.022608
     18 C                     0.068546
     19 C                    -0.098852
     20 H                     0.094077
     21 C                    -0.094742
     22 H                     0.091463
     23 C                    -0.070164
     24 H                     0.086884
     25 C                    -0.094219
     26 H                     0.087942
     27 C                    -0.092138
     28 H                     0.098465
     29 C                     0.010678
     30 C                    -0.006403
     31 C                    -0.006728
     32 C                     0.000448
     33 C                     0.002420
     34 C                    -0.010871
     35 C                     0.001236
     36 C                    -0.012823
     37 C                    -0.027503
     38 C                    -0.009038
     39 C                    -0.089684
     40 C                     0.034939
     41 C                     0.000948
     42 C                     0.003025
     43 C                     0.012424
     44 C                     0.015663
     45 C                    -0.098586
     46 C                     0.034558
     47 C                     0.005158
     48 C                     0.011239
     49 C                    -0.006910
     50 C                     0.000736
     51 C                    -0.007388
     52 C                    -0.021221
     53 C                     0.020891
     54 C                     0.008084
     55 C                     0.009022
     56 C                    -0.019378
     57 C                    -0.013283
     58 C                    -0.011341
     59 C                    -0.002547
     60 C                     0.037054
     61 C                    -0.008489
     62 C                    -0.013816
     63 C                    -0.031980
     64 C                     0.002080
     65 C                    -0.006920
     66 C                     0.017078
     67 C                     0.020011
     68 C                     0.011055
     69 C                    -0.014060
     70 C                     0.046714
     71 C                     0.029524
     72 C                    -0.042094
     73 C                     0.011958
     74 C                    -0.011631
     75 C                     0.010959
     76 C                     0.002786
     77 C                    -0.018423
     78 C                     0.034424
     79 C                    -0.018344
     80 C                    -0.004089
     81 C                     0.002403
     82 C                     0.001288
     83 C                    -0.028820
     84 C                    -0.009632
     85 C                    -0.014859
     86 C                    -0.016694
     87 C                     0.009790
     88 C                     0.021188
     89 O                    -0.465718
     90 C                    -0.094229
     91 H                     0.127268
     92 H                     0.134131
     93 H                     0.132789
     94 O                    -0.469421
     95 C                     0.601692
     96 C                    -0.251426
     97 H                     0.133108
     98 H                     0.126861
     99 C                    -0.200943
    100 H                     0.105430
    101 H                     0.117222
    102 C                    -0.172955
    103 H                     0.115768
    104 H                     0.108666
    105 C                     0.014783
    106 C                     0.095935
    107 C                    -0.093276
    108 H                     0.091411
    109 C                    -0.096524
    110 H                     0.094032
    111 C                    -0.095263
    112 H                     0.089677
    113 C                    -0.082390
    114 H                     0.093479
    115 C                    -0.099127
    116 H                     0.088951
    117 C                     0.020641
    118 C                    -0.008642
    119 C                     0.002781
    120 C                    -0.007617
    121 C                    -0.001726
    122 C                    -0.022380
    123 C                    -0.004506
    124 C                    -0.000312
    125 C                    -0.013469
    126 C                    -0.009354
    127 C                    -0.122028
    128 C                     0.017296
    129 C                    -0.035753
    130 C                    -0.022671
    131 C                     0.033575
    132 C                     0.005854
    133 C                    -0.053384
    134 C                     0.001676
    135 C                     0.018617
    136 C                    -0.004079
    137 C                    -0.004113
    138 C                     0.004809
    139 C                    -0.034273
    140 C                    -0.003734
    141 C                     0.042883
    142 C                     0.026812
    143 C                     0.012454
    144 C                    -0.010858
    145 C                    -0.012947
    146 C                    -0.000942
    147 C                     0.017413
    148 C                     0.042730
    149 C                     0.013746
    150 C                     0.020727
    151 C                     0.009842
    152 C                    -0.009377
    153 C                    -0.002601
    154 C                     0.005009
    155 C                     0.015084
    156 C                     0.020675
    157 C                     0.027043
    158 C                     0.008787
    159 C                    -0.002258
    160 C                    -0.012699
    161 C                    -0.040543
    162 C                    -0.020541
    163 C                    -0.021086
    164 C                    -0.022818
    165 C                    -0.001819
    166 C                    -0.018530
    167 C                     0.004052
    168 C                    -0.016986
    169 C                     0.008410
    170 C                     0.023072
    171 C                    -0.006454
    172 C                     0.022229
    173 C                    -0.017455
    174 C                    -0.001134
    175 C                     0.014581
    176 C                    -0.017321
  ----------------------------------------
  Sum of atomic charges =     0.000000

                    Cartesian Multipole Moments
 -----------------------------------------------------------------
    Charge (ESU x 10^10)
                 0.0000
    Dipole Moment (Debye)
         X      -0.9909      Y      -0.6635      Z       1.7633
       Tot       2.1287
    Quadrupole Moments (Debye-Ang)
        XX    -808.1811     XY      20.6776     YY    -804.4962
        XZ       8.2316     YZ      17.6765     ZZ    -792.0715

 Total job time:  865.40s(wall), 8256.25s(cpu)
        *  Thank you very much for using Q-Chem.  Have a nice day.  *
