 Q-Chem 4.4, Q-Chem, Inc., Pleasanton, CA (2016)
 Q-Chem 4.4.2 for Intel X86 Linux

User input:
--------------------------------------------------------------
$comment
SP
$end

$rem
MEM_STATIC 5000
MEM_TOTAL 20000
JOBTYPE SP
EXCHANGE B3LYP
BASIS 6-31g(d,p)
$end

$molecule
0 1
O          19.650000      9.632000      9.506000
C          18.366000      9.331000     10.134000
H          18.344000     10.024000     10.983000
H          18.285000      8.290000     10.470000
H          17.714000      9.500000      9.268000
O          19.723000      7.740000      8.283000
C          20.239000      8.789000      8.697000
C          21.685000      9.161000      8.346000
H          22.415000      8.562000      8.905000
H          21.793000     10.236000      8.534000
C          21.931000      8.922000      6.828000
H          21.578000      7.920000      6.558000
H          21.293000      9.644000      6.304000
C          23.445000      9.106000      6.565000
H          23.717000     10.018000      7.111000
H          23.922000      8.288000      7.119000
C          23.717000      9.209000      5.124000
C          23.644000      7.810000      4.614000
C          22.606000      7.380000      3.838000
H          21.805000      8.041000      3.521000
C          22.715000      6.139000      3.129000
H          21.978000      5.953000      2.353000
C          23.904000      5.333000      3.353000
H          23.979000      4.422000      2.767000
C          24.839000      5.755000      4.259000
H          25.633000      5.049000      4.484000
C          24.712000      6.967000      4.927000
H          25.538000      7.330000      5.533000
C          27.375000     10.582000      1.385000
C          25.305000     10.749000      0.074000
C          25.334000     15.401000     -0.073000
C          27.250000     13.304000      5.584000
C          23.032000     15.626000      2.615000
C          26.075000     10.169000      1.105000
C          25.494000     15.508000      5.103000
C          27.141000     13.748000     -0.396000
C          22.230000     11.658000      2.597000
C          25.888000     13.346000      6.002000
C          23.393000     10.478000      4.341000
C          22.168000     12.392000      3.831000
C          23.783000     13.985000      5.526000
C          24.715000     16.166000      4.155000
C          23.941000     10.149000      1.862000
C          25.220000     16.627000      1.770000
C          24.844000     10.058000      4.665000
C          25.648000     10.996000      5.495000
C          23.924000     16.055000      1.557000
C          28.568000     14.587000      2.689000
C          27.406000     15.715000      1.094000
C          27.906000     14.518000      0.481000
C          27.147000     12.369000     -0.266000
C          26.935000     10.993000      4.930000
C          23.016000     10.471000      2.891000
C          25.840000     11.875000     -0.591000
C          25.053000     14.431000      5.783000
C          24.023000     10.763000      0.549000
C          22.185000     13.793000      3.780000
C          28.590000     12.555000      4.020000
C          25.830000     14.223000     -0.697000
C          22.951000     11.792000      4.866000
C          28.673000     12.441000      1.589000
C          22.883000     14.614000      4.633000
C          22.317000     12.336000      1.346000
C          26.876000     16.201000      3.443000
C          26.806000     15.510000      4.631000
C          22.295000     13.759000      1.302000
C          27.744000     12.167000      5.011000
C          25.108000     12.203000      5.950000
C          28.584000     13.970000      3.944000
C          25.731000      9.672000      3.528000
C          23.660000     13.015000     -0.334000
C          23.820000     12.564000      5.595000
C          22.291000     14.451000      2.526000
C          28.616000     11.809000      2.827000
C          23.981000     15.308000      0.383000
C          27.846000     11.702000      0.747000
C          26.068000     16.130000      0.788000
C          23.174000     11.876000      0.355000
C          23.147000     14.154000      0.246000
C          25.250000      9.758000      2.193000
C          26.970000     10.214000      3.780000
C          27.746000     15.689000      2.422000
C          25.024000     13.043000     -0.761000
C          23.381000     15.769000      3.913000
C          27.705000     14.431000      4.907000
C          25.613000     16.631000      3.137000
C          27.830000     10.616000      2.733000
C          28.607000     13.873000      1.521000
O          15.746000     11.717000      6.560000
C          14.297000     11.585000      6.690000
H          14.006000     11.204000      7.677000
H          13.985000     10.897000      5.895000
H          13.891000     12.593000      6.542000
O          16.053000     12.356000      8.814000
C          16.411000     12.175000      7.650000
C          17.939000     12.499000      7.259000
H          17.942000     13.245000      6.454000
H          18.322000     11.531000      6.914000
C          18.725000     13.026000      8.535000
H          18.214000     13.950000      8.831000
H          18.652000     12.322000      9.373000
C          20.170000     13.203000      8.027000
H          20.563000     12.233000      7.698000
H          20.026000     13.719000      7.069000
C          21.137000     13.808000      9.043000
C          21.775000     12.738000      9.773000
C          21.110000     12.353000     10.923000
H          20.075000     12.650000     11.069000
C          21.742000     11.473000     11.885000
H          21.158000     11.076000     12.710000
C          23.027000     11.009000     11.603000
H          23.544000     10.352000     12.296000
C          23.727000     11.463000     10.510000
H          24.756000     11.125000     10.428000
C          23.106000     12.258000      9.542000
H          23.624000     12.593000      8.648000
C          21.529000     17.649000     12.881000
C          23.785000     17.333000     12.207000
C          24.271000     21.306000      9.965000
C          18.584000     18.604000      8.956000
C          23.741000     19.793000      6.748000
C          22.553000     16.769000     12.471000
C          20.106000     20.006000      7.034000
C          23.220000     20.751000     12.079000
C          23.982000     16.145000      8.390000
C          19.100000     17.898000      7.813000
C          21.939000     15.049000      8.755000
C          23.176000     16.473000      7.309000
C          20.867000     17.760000      6.376000
C          21.351000     20.486000      6.740000
C          23.422000     15.722000     10.682000
C          22.954000     21.642000      8.193000
C          20.726000     15.171000      9.694000
C          19.570000     16.013000      9.247000
C          24.000000     20.800000      7.696000
C          19.932000     21.241000     10.904000
C          22.005000     22.028000     10.402000
C          22.085000     21.501000     11.712000
C          22.998000     19.584000     12.842000
C          19.173000     16.790000     10.358000
C          23.315000     15.384000      9.320000
C          24.001000     18.713000     12.365000
C          19.884000     18.595000      6.836000
C          24.321000     16.654000     11.108000
C          23.328000     17.648000      6.503000
C          18.816000     19.076000     11.151000
C          24.297000     20.668000     11.225000
C          21.909000     15.840000      7.476000
C          20.612000     19.730000     12.697000
C          22.139000     18.303000      6.121000
C          25.001000     16.990000      8.835000
C          20.547000     21.609000      8.543000
C          19.575000     20.660000      8.119000
C          25.033000     18.305000      8.088000
C          18.620000     18.036000     10.185000
C          19.637000     16.620000      7.989000
C          18.908000     20.311000     10.462000
C          21.016000     15.578000     11.076000
C          25.374000     18.718000     10.267000
C          20.783000     16.586000      7.118000
C          24.291000     18.540000      6.911000
C          19.649000     18.776000     12.242000
C          24.792000     20.633000      8.857000
C          21.722000     19.007000     13.085000
C          23.106000     21.869000      9.561000
C          25.171000     17.356000     10.161000
C          25.306000     19.345000      9.025000
C          22.351000     15.800000     11.535000
C          19.989000     16.515000     11.457000
C          20.720000     21.887000      9.933000
C          24.830000     19.372000     11.387000
C          22.420000     19.716000      6.232000
C          18.784000     19.985000      9.083000
C          21.633000     21.451000      7.709000
C          20.227000     17.537000     12.385000
C          20.831000     20.958000     12.015000
$end

--------------------------------------------------------------

             Standard Nuclear Orientation (Angstroms)
    I     Atom           X                Y                Z
 ----------------------------------------------------------------
    1      O       0.1110038588    -6.7273443364     0.6471319603
    2      C      -0.5431022483    -7.9403685070     0.1630260192
    3      H      -1.5790247065    -7.8050422032     0.4948172973
    4      H      -0.1102356387    -8.8580687956     0.5796681659
    5      H      -0.2894885974    -7.8524652714    -0.9007287163
    6      O       2.2062396123    -7.5295838234     0.4300583719
    7      C       1.4085878624    -6.6544852178     0.7988497985
    8      C       1.8835589255    -5.4083449734     1.5565027405
    9      H       2.1462422006    -5.6311284324     2.5983986217
   10      H       1.0844437786    -4.6616248126     1.4761473833
   11      C       3.1456651416    -4.8234483884     0.8586883782
   12      H       3.8699016820    -5.6283175701     0.6878667347
   13      H       2.8091126078    -4.4742646796    -0.1250326847
   14      C       3.7080595832    -3.7059022939     1.7697450277
   15      H       2.8301868508    -3.1227816458     2.0749560620
   16      H       4.0338235149    -4.2287394931     2.6775380239
   17      C       4.7015629031    -2.8952258656     1.0508369098
   18      C       5.9428123605    -3.7209560109     1.0408613539
   19      C       6.4015301515    -4.3172200319    -0.0986855761
   20      H       5.9112530160    -4.1893092020    -1.0590387143
   21      C       7.7335309740    -4.8453037922    -0.1379838073
   22      H       8.1321156430    -5.0938858055    -1.1174113157
   23      C       8.5118448708    -4.8122662898     1.0894806530
   24      H       9.5321003522    -5.1764919123     1.0162655682
   25      C       7.9363932274    -4.3339229328     2.2354248222
   26      H       8.5159467816    -4.4607030438     3.1451178921
   27      C       6.6450967320    -3.8203216094     2.2434274184
   28      H       6.2740918449    -3.3264989840     3.1377291506
   29      C       7.5383262948     1.7088627716     1.0876510433
   30      C       7.6184688037     1.1484243737    -1.3021179791
   31      C       4.6605241202     4.5107820488    -2.5704507880
   32      C       2.8744643920     1.8703728043     2.8984013465
   33      C       1.9318184788     2.2480109803    -2.6663966813
   34      C       7.5641590346     0.7725473845     0.0573039340
   35      C       1.1579272761     2.5980508130     0.7312608238
   36      C       6.5723274021     4.5253810421    -1.0062314680
   37      C       4.2913338414    -1.0150060007    -2.2493122347
   38      C       2.1095681981     0.9386782963     2.1378678784
   39      C       4.2839012406    -1.8725818550    -0.0018662597
   40      C       2.9557350608    -1.0288391527    -1.7188967927
   41      C       1.3045514720     0.3555017752     0.1185176820
   42      C       1.1019139071     2.9904100103    -0.6034398029
   43      C       6.3535367332    -0.7889087831    -1.0488846937
   44      C       2.5730856033     4.5693232973    -1.8275548596
   45      C       4.8280835195    -1.4544774195     1.3822693291
   46      C       3.9198273330    -0.6573468540     2.2510693990
   47      C       2.6599521381     3.4960701130    -2.7724097730
   48      C       4.4192358911     4.7085875613     1.7484204731
   49      C       4.3609430896     5.4700912600    -0.3924595016
   50      C       5.7301185005     5.1622143564    -0.0938820306
   51      C       7.3958401565     3.5024179605    -0.5658336058
   52      C       4.7329115964     0.3173320976     2.8548060317
   53      C       5.1388244724    -1.5139905317    -1.1788099843
   54      C       7.5030303227     2.5229006361    -1.6084102597
   55      C       1.2624154601     1.3069061350     1.1038700558
   56      C       6.8604135978     0.2206215465    -1.9608130669
   57      C       2.0722156520    -0.0087081159    -2.0989193210
   58      C       4.8697939927     2.7506614314     3.1139209920
   59      C       6.0232437381     4.2184213697    -2.2865556026
   60      C       2.9162655780    -1.4128819237    -0.3422097149
   61      C       6.6097877701     3.6960864373     1.6967974218
   62      C       1.1901310229     0.6347823500    -1.2642333156
   63      C       4.7159425782     0.0177154696    -3.1355671560
   64      C       2.2813785238     4.5600917492     0.5468003705
   65      C       1.9134528196     3.5534230764     1.4099190526
   66      C       3.8001573615     1.0278584122    -3.5458081492
   67      C       4.1751430724     1.5853017889     3.2018869090
   68      C       2.6370755326    -0.3021636118     1.8222726135
   69      C       3.9861852950     3.7773404030     2.6977443964
   70      C       6.1449992884    -0.7533082315     1.4335394712
   71      C       5.8490417509     1.9551944741    -3.3577188426
   72      C       2.2072018539    -0.6545455159     0.5548635974
   73      C       2.5183861668     1.0221571678    -2.9678063323
   74      C       6.1736477456     2.7185618964     2.5853606729
   75      C       3.9620427351     3.4736786497    -3.2659608844
   76      C       7.3872466138     3.0309670226     0.7522404302
   77      C       3.8457449050     5.1070304372    -1.6804279288
   78      C       5.9732832633     0.5904220063    -2.9968890244
   79      C       4.5359733927     2.2277971988    -3.6714531909
   80      C       6.8263751939    -0.4358375227     0.2269238637
   81      C       6.0325737690     0.2498696643     2.3680894228
   82      C       3.5975502988     5.1156994439     0.6898980584
   83      C       6.5745232501     2.9411238480    -2.6193226996
   84      C       1.0802332091     2.0303135092    -1.6395255406
   85      C       2.7396798805     3.2037869682     2.5251416473
   86      C       1.7813870212     4.2513096516    -0.6894710858
   87      C       6.7603913811     1.4557936336     2.2521501980
   88      C       5.6895093456     4.6966119746     1.2367536516
   89      O      -0.5858344517    -6.3434988460    -4.6097146238
   90      C      -1.0711946961    -7.3329668337    -5.5685178020
   91      H      -1.5820647782    -8.1685249251    -5.0736790050
   92      H      -0.1866882853    -7.6810080067    -6.1155358558
   93      H      -1.7718584754    -6.7978252493    -6.2208196901
   94      O      -2.4222253937    -6.6197166079    -3.1487361652
   95      C      -1.3992673534    -6.0709743388    -3.5589309603
   96      C      -0.8382806533    -4.7948981441    -2.7529753364
   97      H      -0.7869475003    -3.9424200695    -3.4423199815
   98      H       0.1603127196    -5.1169199715    -2.4338339599
   99      C      -1.7819678971    -4.4779547101    -1.5149518125
  100      H      -2.7613872175    -4.2418618777    -1.9479771805
  101      H      -1.9066323563    -5.3548031986    -0.8678162002
  102      C      -1.0730594988    -3.3070154421    -0.8051855739
  103      H      -0.0805763757    -3.6310601993    -0.4681955952
  104      H      -0.8162616004    -2.6411068570    -1.6390780104
  105      C      -1.8325149314    -2.7249922110     0.3855479834
  106      C      -1.4052812140    -3.4028586239     1.5867192771
  107      C      -2.1484206221    -4.5246206125     1.9066315481
  108      H      -2.7888327648    -4.9763353784     1.1539190812
  109      C      -2.0046765183    -5.1650562070     3.1983156744
  110      H      -2.4939430762    -6.1174212219     3.3797243669
  111      C      -1.0789426254    -4.6310176212     4.0949006109
  112      H      -0.9395321464    -5.0727194032     5.0770672231
  113      C      -0.4079623874    -3.4630487092     3.8184966656
  114      H       0.2143711640    -3.0695298492     4.6170283542
  115      C      -0.4879526660    -2.8738407923     2.5531407528
  116      H       0.0665670578    -1.9759671650     2.2960107752
  117      C      -6.8179418303    -1.3266871457     2.0670504601
  118      C      -5.4008978817     0.0350838564     3.4016793169
  119      C      -6.3475237545     4.0264359921     1.3472945949
  120      C      -5.7897214898    -0.7888669249    -2.7954784438
  121      C      -3.3611006005     3.9426117368    -0.6510567854
  122      C      -5.6191098276    -1.1870661247     2.7980660548
  123      C      -4.9103709491     1.8609411996    -3.2214262455
  124      C      -7.7569245512     2.1720930703     2.0230339845
  125      C      -1.9814160964     0.8455654472     1.4859794681
  126      C      -4.3819540558    -0.5274261961    -2.9403252495
  127      C      -2.1883024279    -1.2653761947     0.4812837777
  128      C      -1.7393604228     1.0425598213     0.1338022358
  129      C      -2.7320517022     0.9821207980    -2.4871232015
  130      C      -4.6122332270     3.0433863078    -2.6051483336
  131      C      -3.4334129841    -0.7011371568     2.6018688411
  132      C      -5.8163911948     4.2093438620    -0.8141428701
  133      C      -3.3069296243    -2.2632919281     0.1337044563
  134      C      -3.9477617338    -2.1619988978    -1.2169187070
  135      C      -4.5766608634     4.4236096944    -0.1305875625
  136      C      -8.3888308174     1.0757443270    -1.2679207256
  137      C      -7.8759531101     3.0409633711    -0.2463667299
  138      C      -8.3839561049     2.1884530670     0.7612979656
  139      C      -7.5757241600     0.9115426683     2.6325592934
  140      C      -5.3409666085    -2.2911048084    -1.0220576258
  141      C      -2.3292107886    -0.4545100985     1.7648206910
  142      C      -6.3447327677     1.0722344294     3.3041375465
  143      C      -3.9211715627     0.8144823103    -3.1451545798
  144      C      -4.0338674074     0.3095525639     3.2919860586
  145      C      -1.9202994604     2.2852840126    -0.5563156156
  146      C      -7.5013878559    -1.2030154334    -1.3836313331
  147      C      -6.7667520631     3.0841671814     2.3125391824
  148      C      -1.8584765904    -0.2097112352    -0.5381319423
  149      C      -8.3726732163    -0.3166808586     0.7373874887
  150      C      -2.4926732032     2.2091134012    -1.8428832728
  151      C      -2.4971625237     1.8570456806     2.2991979874
  152      C      -6.8357089229     2.6433744785    -2.3716951995
  153      C      -6.2498203990     1.5773537204    -3.1102717906
  154      C      -2.8502740176     3.1050531944     1.5207074491
  155      C      -6.2308725782    -1.6633942242    -1.8600915079
  156      C      -3.4783272060    -1.1882681082    -2.1040385262
  157      C      -7.8207448624     0.0000982420    -2.0610813951
  158      C      -4.4088541900    -2.3626332145     1.1009513536
  159      C      -4.4758012794     2.7191438777     3.0185813158
  160      C      -2.4859206672    -0.1945544503    -1.7865870686
  161      C      -2.4608498087     3.3122302595     0.1803550890
  162      C      -7.7596013983    -1.3685254190    -0.0124631410
  163      C      -4.9834067603     4.3000262166     1.2193601770
  164      C      -7.7859469624    -0.3369728030     1.9866727003
  165      C      -6.8364047980     3.9080985455     0.0885644514
  166      C      -3.5744999770     1.6813691671     3.1533723106
  167      C      -4.0754962431     3.6219412306     2.0362220040
  168      C      -4.4176084270    -1.6128467422     2.3174765729
  169      C      -5.6267358548    -2.4520722889     0.3350375839
  170      C      -7.8971307687     2.3815413089    -1.4529242506
  171      C      -5.8431700295     2.4139097092     3.1418160651
  172      C      -3.4048626293     3.3263351769    -1.9299289786
  173      C      -6.7186932742     0.2521377604    -2.9243608273
  174      C      -5.8065526895     3.4996646383    -2.0437918457
  175      C      -6.8457424965    -1.9646658318     0.8236783038
  176      C      -8.6496357778     0.9526411617     0.1601679913
 ----------------------------------------------------------------

    9   -5804.2321631171      9.71E-06 Convergence criterion met
 Total energy in the final basis set = -5804.2321631171

                    Orbital Energies (a.u.)
 --------------------------------------------------------------

 Alpha MOs
 -- Occupied --
-19.207 -19.196 -19.146 -19.121 -10.326 -10.309 -10.254 -10.252
-10.245 -10.237 -10.236 -10.234 -10.232 -10.231 -10.230 -10.229
-10.228 -10.228 -10.226 -10.225 -10.225 -10.224 -10.224 -10.224
-10.223 -10.223 -10.223 -10.222 -10.222 -10.222 -10.222 -10.221
-10.221 -10.220 -10.220 -10.220 -10.219 -10.219 -10.219 -10.219
-10.219 -10.219 -10.219 -10.219 -10.218 -10.218 -10.218 -10.218
-10.218 -10.218 -10.218 -10.218 -10.217 -10.217 -10.217 -10.217
-10.217 -10.217 -10.217 -10.217 -10.217 -10.216 -10.216 -10.216
-10.216 -10.216 -10.216 -10.216 -10.216 -10.215 -10.215 -10.215
-10.215 -10.215 -10.215 -10.215 -10.215 -10.214 -10.214 -10.214
-10.214 -10.214 -10.214 -10.214 -10.213 -10.213 -10.213 -10.213
-10.213 -10.213 -10.213 -10.213 -10.213 -10.212 -10.212 -10.212
-10.212 -10.212 -10.212 -10.212 -10.212 -10.212 -10.212 -10.212
-10.212 -10.211 -10.211 -10.211 -10.211 -10.210 -10.210 -10.210
-10.210 -10.210 -10.210 -10.209 -10.209 -10.209 -10.209 -10.209
-10.209 -10.209 -10.208 -10.208 -10.208 -10.208 -10.207 -10.206
-10.206 -10.205 -10.205 -10.205 -10.204 -10.203 -10.203 -10.202
-10.199 -10.198 -10.198 -10.197 -10.196 -10.196 -10.194 -10.194
-10.193 -10.193 -10.193 -10.186  -1.103  -1.097  -1.018  -0.994
 -0.987  -0.982  -0.968  -0.966  -0.965  -0.963  -0.961  -0.959
 -0.939  -0.932  -0.930  -0.929  -0.927  -0.927  -0.923  -0.923
 -0.921  -0.918  -0.899  -0.899  -0.895  -0.891  -0.890  -0.883
 -0.877  -0.875  -0.853  -0.852  -0.845  -0.840  -0.839  -0.838
 -0.837  -0.833  -0.824  -0.818  -0.802  -0.800  -0.799  -0.797
 -0.797  -0.797  -0.795  -0.795  -0.792  -0.789  -0.786  -0.782
 -0.774  -0.771  -0.770  -0.768  -0.768  -0.765  -0.765  -0.763
 -0.751  -0.747  -0.745  -0.745  -0.738  -0.731  -0.718  -0.718
 -0.716  -0.715  -0.715  -0.714  -0.712  -0.711  -0.710  -0.709
 -0.707  -0.706  -0.705  -0.704  -0.701  -0.698  -0.672  -0.669
 -0.662  -0.661  -0.657  -0.656  -0.646  -0.644  -0.637  -0.632
 -0.631  -0.626  -0.625  -0.622  -0.622  -0.621  -0.618  -0.618
 -0.616  -0.615  -0.615  -0.612  -0.611  -0.608  -0.608  -0.607
 -0.607  -0.602  -0.601  -0.599  -0.566  -0.565  -0.563  -0.561
 -0.561  -0.560  -0.559  -0.559  -0.558  -0.558  -0.557  -0.553
 -0.539  -0.537  -0.536  -0.532  -0.531  -0.530  -0.528  -0.526
 -0.525  -0.524  -0.524  -0.516  -0.516  -0.515  -0.514  -0.512
 -0.509  -0.504  -0.499  -0.499  -0.493  -0.492  -0.490  -0.487
 -0.485  -0.484  -0.482  -0.482  -0.481  -0.479  -0.477  -0.475
 -0.475  -0.474  -0.472  -0.471  -0.470  -0.470  -0.469  -0.469
 -0.468  -0.467  -0.465  -0.465  -0.463  -0.461  -0.460  -0.458
 -0.458  -0.457  -0.453  -0.452  -0.451  -0.451  -0.447  -0.445
 -0.445  -0.442  -0.441  -0.439  -0.439  -0.436  -0.433  -0.431
 -0.430  -0.429  -0.429  -0.429  -0.428  -0.427  -0.425  -0.425
 -0.423  -0.422  -0.422  -0.421  -0.420  -0.420  -0.419  -0.418
 -0.418  -0.417  -0.417  -0.416  -0.415  -0.413  -0.413  -0.412
 -0.411  -0.409  -0.408  -0.404  -0.402  -0.400  -0.398  -0.396
 -0.394  -0.392  -0.392  -0.390  -0.389  -0.386  -0.384  -0.382
 -0.380  -0.379  -0.372  -0.372  -0.371  -0.370  -0.368  -0.366
 -0.366  -0.365  -0.364  -0.362  -0.362  -0.361  -0.360  -0.358
 -0.358  -0.358  -0.356  -0.355  -0.354  -0.354  -0.352  -0.351
 -0.349  -0.348  -0.348  -0.347  -0.346  -0.345  -0.345  -0.343
 -0.343  -0.342  -0.341  -0.340  -0.339  -0.337  -0.336  -0.333
 -0.333  -0.331  -0.331  -0.329  -0.325  -0.325  -0.323  -0.322
 -0.310  -0.306  -0.303  -0.294  -0.287  -0.283  -0.274  -0.273
 -0.271  -0.270  -0.269  -0.267  -0.267  -0.265  -0.264  -0.262
 -0.261  -0.260  -0.259  -0.258  -0.257  -0.257  -0.253  -0.250
 -0.249  -0.248  -0.242  -0.241  -0.227  -0.218  -0.215  -0.211
 -0.210  -0.207  -0.204  -0.203  -0.201  -0.199

          Ground-State Mulliken Net Atomic Charges

     Atom                 Charge (a.u.)
  ----------------------------------------
      1 O                    -0.448604
      2 C                    -0.085481
      3 H                     0.133454
      4 H                     0.140457
      5 H                     0.142412
      6 O                    -0.501463
      7 C                     0.582837
      8 C                    -0.269681
      9 H                     0.127458
     10 H                     0.134417
     11 C                    -0.185265
     12 H                     0.139678
     13 H                     0.093761
     14 C                    -0.195570
     15 H                     0.094885
     16 H                     0.114760
     17 C                     0.038289
     18 C                     0.104196
     19 C                    -0.114559
     20 H                     0.093210
     21 C                    -0.104148
     22 H                     0.095378
     23 C                    -0.081380
     24 H                     0.090221
     25 C                    -0.085469
     26 H                     0.089072
     27 C                    -0.101759
     28 H                     0.090679
     29 C                    -0.006052
     30 C                     0.010841
     31 C                     0.002647
     32 C                    -0.020230
     33 C                     0.016784
     34 C                    -0.015026
     35 C                     0.017933
     36 C                    -0.001460
     37 C                    -0.006983
     38 C                    -0.015496
     39 C                    -0.097752
     40 C                    -0.018586
     41 C                    -0.004895
     42 C                     0.030890
     43 C                     0.005334
     44 C                    -0.035725
     45 C                    -0.123151
     46 C                     0.023469
     47 C                     0.005894
     48 C                     0.029288
     49 C                    -0.024786
     50 C                    -0.009542
     51 C                     0.015484
     52 C                     0.003879
     53 C                     0.009582
     54 C                    -0.022354
     55 C                     0.013445
     56 C                     0.000768
     57 C                     0.016328
     58 C                    -0.007155
     59 C                    -0.008862
     60 C                     0.021705
     61 C                    -0.017332
     62 C                    -0.008602
     63 C                     0.009260
     64 C                     0.008894
     65 C                     0.001664
     66 C                    -0.026639
     67 C                     0.027386
     68 C                    -0.002016
     69 C                    -0.026842
     70 C                     0.047439
     71 C                    -0.008808
     72 C                     0.018725
     73 C                    -0.000788
     74 C                    -0.003918
     75 C                     0.000013
     76 C                     0.021782
     77 C                     0.033660
     78 C                    -0.005010
     79 C                     0.004276
     80 C                     0.021034
     81 C                     0.009574
     82 C                     0.011490
     83 C                     0.005341
     84 C                    -0.018679
     85 C                     0.005262
     86 C                    -0.025090
     87 C                    -0.013326
     88 C                    -0.002267
     89 O                    -0.455898
     90 C                    -0.099545
     91 H                     0.144108
     92 H                     0.132616
     93 H                     0.134087
     94 O                    -0.473934
     95 C                     0.588358
     96 C                    -0.280829
     97 H                     0.131188
     98 H                     0.130229
     99 C                    -0.166812
    100 H                     0.122712
    101 H                     0.119270
    102 C                    -0.200808
    103 H                     0.114847
    104 H                     0.105071
    105 C                     0.027834
    106 C                     0.086435
    107 C                    -0.097417
    108 H                     0.093972
    109 C                    -0.092467
    110 H                     0.089378
    111 C                    -0.080808
    112 H                     0.086888
    113 C                    -0.077458
    114 H                     0.091667
    115 C                    -0.131802
    116 H                     0.095221
    117 C                     0.019793
    118 C                    -0.013471
    119 C                    -0.000033
    120 C                     0.014322
    121 C                     0.018920
    122 C                    -0.007324
    123 C                     0.018120
    124 C                     0.007243
    125 C                     0.053066
    126 C                    -0.026321
    127 C                    -0.123181
    128 C                     0.006320
    129 C                     0.013262
    130 C                     0.011155
    131 C                     0.050938
    132 C                    -0.024878
    133 C                    -0.083131
    134 C                     0.010290
    135 C                    -0.006791
    136 C                    -0.006577
    137 C                     0.008915
    138 C                    -0.026866
    139 C                    -0.007562
    140 C                     0.022160
    141 C                     0.006680
    142 C                    -0.000486
    143 C                    -0.012931
    144 C                    -0.015213
    145 C                     0.000811
    146 C                    -0.017201
    147 C                     0.010180
    148 C                     0.035274
    149 C                    -0.018821
    150 C                    -0.014826
    151 C                    -0.056080
    152 C                    -0.006926
    153 C                    -0.013078
    154 C                    -0.016413
    155 C                     0.006586
    156 C                     0.016900
    157 C                    -0.019630
    158 C                     0.033241
    159 C                     0.007417
    160 C                    -0.007395
    161 C                    -0.009029
    162 C                     0.010062
    163 C                    -0.022183
    164 C                    -0.002551
    165 C                     0.041011
    166 C                     0.005234
    167 C                     0.026259
    168 C                     0.009650
    169 C                    -0.015020
    170 C                     0.001027
    171 C                    -0.014994
    172 C                    -0.016630
    173 C                    -0.001396
    174 C                    -0.005802
    175 C                    -0.004423
    176 C                     0.011746
  ----------------------------------------
  Sum of atomic charges =     0.000000

                    Cartesian Multipole Moments
 -----------------------------------------------------------------
    Charge (ESU x 10^10)
                 0.0000
    Dipole Moment (Debye)
         X       1.6852      Y      -2.9326      Z       0.2244
       Tot       3.3897
    Quadrupole Moments (Debye-Ang)
        XX    -820.6843     XY       4.9635     YY    -801.1366
        XZ       3.5561     YZ       6.5309     ZZ    -786.5768

 Total job time:  900.04s(wall), 8684.04s(cpu)
        *  Thank you very much for using Q-Chem.  Have a nice day.  *
