 Q-Chem 4.4, Q-Chem, Inc., Pleasanton, CA (2016)
 Q-Chem 4.4.2 for Intel X86 Linux

User input:
--------------------------------------------------------------
$comment
SP
$end

$rem
MEM_STATIC 5000
MEM_TOTAL 20000
JOBTYPE SP
EXCHANGE B3LYP
BASIS 6-31g(d,p)
$end

$molecule
0 1
O          -2.843000    -29.223000     -7.459000
C          -2.117000    -30.428000     -7.333000
H          -2.007000    -30.866000     -8.333000
H          -2.750000    -31.037000     -6.676000
H          -1.100000    -30.225000     -6.976000
O          -4.975000    -30.164000     -7.314000
C          -4.210000    -29.180000     -7.409000
C          -4.614000    -27.647000     -7.496000
H          -3.684000    -27.255000     -7.927000
H          -4.730000    -27.219000     -6.493000
C          -5.916000    -27.373000     -8.352000
H          -5.661000    -27.768000     -9.343000
H          -6.669000    -27.981000     -7.837000
C          -6.209000    -25.884000     -8.330000
H          -6.759000    -25.635000     -7.414000
H          -5.322000    -25.238000     -8.315000
C          -7.059000    -25.371000     -9.566000
C          -8.175000    -26.336000     -9.855000
C          -9.350000    -26.133000     -9.148000
H          -9.338000    -25.410000     -8.338000
C         -10.508000    -26.909000     -9.388000
H         -11.359000    -26.752000     -8.733000
C         -10.462000    -27.946000    -10.327000
H         -11.322000    -28.563000    -10.569000
C          -9.236000    -28.201000    -10.994000
H          -9.228000    -29.028000    -11.699000
C          -8.094000    -27.382000    -10.771000
H          -7.146000    -27.553000    -11.272000
C          -6.525000    -23.907000    -14.858000
C          -8.683000    -22.976000    -14.157000
C          -7.273000    -18.708000    -14.152000
C          -2.859000    -22.495000    -11.726000
C          -6.739000    -18.518000    -10.724000
C          -7.738000    -24.021000    -14.093000
C          -3.399000    -19.898000    -10.842000
C          -6.804000    -20.435000    -15.782000
C          -8.613000    -21.988000    -10.246000
C          -3.391000    -22.301000    -10.429000
C          -7.209000    -23.874000     -9.927000
C          -7.487000    -21.623000     -9.454000
C          -4.811000    -21.049000     -9.195000
C          -4.368000    -18.919000    -10.917000
C          -8.666000    -23.691000    -11.964000
C          -5.576000    -18.050000    -12.772000
C          -6.271000    -24.710000    -10.708000
C          -4.875000    -24.245000    -10.761000
C          -6.797000    -18.059000    -12.077000
C          -3.466000    -20.838000    -14.825000
C          -5.003000    -19.156000    -14.847000
C          -5.425000    -20.158000    -15.702000
C          -7.258000    -21.776000    -15.730000
C          -4.346000    -24.365000    -12.100000
C          -8.365000    -23.299000    -10.646000
C          -8.447000    -21.849000    -14.950000
C          -3.654000    -20.999000    -10.017000
C          -9.254000    -22.784000    -12.893000
C          -7.077000    -20.283000     -9.381000
C          -3.317000    -23.057000    -13.895000
C          -7.705000    -19.700000    -15.048000
C          -6.608000    -22.674000     -9.287000
C          -4.934000    -22.574000    -15.679000
C          -5.772000    -20.013000     -9.311000
C          -9.241000    -21.097000    -11.112000
C          -3.466000    -19.121000    -12.981000
C          -2.849000    -20.081000    -12.108000
C          -8.727000    -19.783000    -11.184000
C          -3.357000    -23.469000    -12.569000
C          -4.332000    -23.205000     -9.944000
C          -2.926000    -21.722000    -13.935000
C          -6.568000    -24.968000    -12.202000
C          -9.379000    -20.272000    -13.259000
C          -5.241000    -22.414000     -9.200000
C          -7.699000    -19.375000    -10.299000
C          -4.315000    -23.481000    -14.775000
C          -7.802000    -18.486000    -12.904000
C          -6.315000    -22.835000    -15.721000
C          -5.919000    -18.417000    -14.075000
C          -9.598000    -21.438000    -12.440000
C          -8.830000    -19.289000    -12.439000
C          -7.735000    -24.479000    -12.743000
C          -5.377000    -24.739000    -12.955000
C          -3.810000    -19.579000    -14.288000
C          -8.740000    -20.543000    -14.561000
C          -5.527000    -18.892000    -10.146000
C          -2.580000    -21.362000    -12.593000
C          -4.388000    -18.405000    -12.219000
C          -5.325000    -24.311000    -14.298000
C          -4.458000    -21.252000    -15.748000
O          -8.112000    -27.974000     -3.123000
C          -7.565000    -29.189000     -3.808000
H          -6.584000    -29.439000     -3.386000
H          -7.400000    -29.035000     -4.881000
H          -8.182000    -30.055000     -3.537000
O          -8.140000    -28.943000     -1.029000
C          -8.404000    -28.044000     -1.725000
C          -9.001000    -26.698000     -1.220000
H          -8.261000    -25.888000     -1.245000
H          -9.279000    -26.818000     -0.166000
C         -10.181000    -26.189000     -1.947000
H          -9.901000    -25.979000     -2.987000
H         -10.914000    -27.004000     -1.978000
C         -10.814000    -24.926000     -1.285000
H         -11.882000    -24.891000     -1.533000
H         -10.734000    -25.034000     -0.197000
C         -10.147000    -23.627000     -1.777000
C          -8.908000    -23.316000     -1.009000
C          -8.980000    -23.288000      0.404000
H          -9.924000    -23.413000      0.927000
C          -7.901000    -22.965000      1.204000
H          -7.985000    -22.798000      2.274000
C          -6.670000    -22.666000      0.638000
H          -5.802000    -22.438000      1.251000
C          -6.557000    -22.675000     -0.756000
H          -5.566000    -22.407000     -1.109000
C          -7.629000    -23.078000     -1.591000
H          -7.425000    -23.144000     -2.656000
C         -10.953000    -18.260000     -2.638000
C          -9.283000    -18.873000     -4.245000
C         -11.919000    -18.462000     -7.911000
C         -15.066000    -21.343000     -3.100000
C         -12.526000    -21.851000     -8.068000
C          -9.869000    -19.055000     -3.005000
C         -15.313000    -22.035000     -5.766000
C         -11.863000    -17.024000     -5.937000
C          -9.647000    -22.635000     -5.382000
C         -14.566000    -22.586000     -3.523000
C         -10.282000    -23.180000     -3.165000
C         -10.733000    -23.486000     -5.563000
C         -13.481000    -23.635000     -5.169000
C         -14.744000    -21.816000     -7.042000
C          -9.023000    -21.063000     -3.731000
C         -13.827000    -19.807000     -8.120000
C         -11.046000    -22.469000     -2.043000
C         -12.564000    -22.395000     -2.077000
C         -12.650000    -20.543000     -8.485000
C         -14.895000    -18.210000     -4.514000
C         -13.993000    -17.910000     -6.614000
C         -13.222000    -17.111000     -5.734000
C         -10.995000    -17.148000     -4.773000
C         -13.001000    -21.078000     -1.743000
C          -9.348000    -22.383000     -4.019000
C          -9.840000    -17.919000     -5.168000
C         -14.685000    -22.923000     -4.907000
C          -8.814000    -20.095000     -4.714000
C         -11.563000    -23.354000     -6.651000
C         -14.391000    -19.240000     -2.446000
C         -11.181000    -17.697000     -6.983000
C         -11.219000    -23.798000     -4.246000
C         -12.904000    -17.456000     -3.384000
C         -12.963000    -23.359000     -6.452000
C          -9.320000    -21.714000     -6.437000
C         -15.452000    -19.785000     -6.289000
C         -15.821000    -20.754000     -5.328000
C         -10.119000    -21.581000     -7.509000
C         -14.235000    -20.621000     -2.201000
C         -13.324000    -23.083000     -3.088000
C         -15.219000    -19.180000     -3.542000
C         -10.760000    -21.018000     -1.928000
C          -9.554000    -19.516000     -6.951000
C         -12.618000    -23.758000     -4.106000
C         -11.271000    -22.376000     -7.619000
C         -13.207000    -18.433000     -2.393000
C         -11.534000    -19.724000     -8.409000
C         -11.511000    -17.297000     -3.488000
C         -13.319000    -18.557000     -7.692000
C          -8.891000    -20.454000     -6.084000
C         -10.322000    -20.232000     -7.849000
C          -9.764000    -20.404000     -2.682000
C         -11.890000    -20.239000     -1.572000
C         -15.026000    -18.538000     -5.905000
C          -9.974000    -18.278000     -6.494000
C         -13.551000    -22.531000     -7.368000
C         -15.618000    -20.447000     -3.963000
C         -14.855000    -20.437000     -7.375000
C         -11.984000    -18.878000     -1.938000
C         -13.758000    -17.374000     -4.437000
$end

--------------------------------------------------------------

             Standard Nuclear Orientation (Angstroms)
    I     Atom           X                Y                Z
 ----------------------------------------------------------------
    1      O       3.3205619869     8.5733367562    -0.7559086490
    2      C       3.6893794655     9.9353704669    -0.6941442717
    3      H       4.6096454309    10.0129348969    -0.1016594093
    4      H       2.8315214165    10.4074016439    -0.1996898898
    5      H       3.9391508593    10.3086296338    -1.6947635026
    6      O       2.0847535249     8.5276716895     1.2246524196
    7      C       2.5241231206     7.9841183232     0.1883078359
    8      C       2.2797799012     6.4927064612    -0.2983758900
    9      H       3.1262309968     6.4039555500    -0.9911737095
   10      H       1.3543308476     6.4220930519    -0.8825049815
   11      C       2.2593285305     5.4295259234     0.8730526761
   12      H       3.2492309999     5.5342887684     1.3337574052
   13      H       1.4536316252     5.8027112261     1.5160792904
   14      C       1.9880033982     4.0583431160     0.2817030493
   15      H       0.9072417909     3.9284699242     0.1451589093
   16      H       2.4237345699     3.8880315338    -0.7109914208
   17      C       2.5179598402     2.8534997987     1.1653680030
   18      C       2.2040642074     3.1049571172     2.6139675849
   19      C       0.9562935146     2.6827529260     3.0458181601
   20      H       0.2438062041     2.3513493292     2.2964807939
   21      C       0.5668333058     2.7737732786     4.4025701791
   22      H      -0.4565278039     2.5078734089     4.6473237256
   23      C       1.4380136937     3.3507323066     5.3338966588
   24      H       1.2043829450     3.4311259625     6.3911603597
   25      C       2.6837415510     3.8515910546     4.8753199258
   26      H       3.3262066075     4.3145697181     5.6195694863
   27      C       3.0759040716     3.7118718165     3.5146799690
   28      H       4.0252574735     4.0820547559     3.1396616898
   29      C       7.1283934714     0.0525896040     2.3197162232
   30      C       5.2998747372    -1.3957180109     3.0773772896
   31      C       5.8084181253    -4.4077939091    -0.2200052187
   32      C       6.4503125457     1.4475160718    -2.4591027112
   33      C       3.2358870342    -3.1872368194    -2.2111767775
   34      C       5.8309570900    -0.0983591145     2.9225954155
   35      C       5.2569569754    -0.6703421228    -3.8404224246
   36      C       7.5303011448    -3.3057412060     1.0761385645
   37      C       2.0206343808    -0.8787615960     0.7847142638
   38      C       5.0655711028     1.5002940136    -2.7464607199
   39      C       2.6437628260     1.4057627726     0.6342737440
   40      C       1.9581508721    -0.4497859285    -0.5719141628
   41      C       3.1794757266     0.2688411982    -2.9276462470
   42      C       4.7258980975    -1.9257285463    -3.6282706022
   43      C       3.5271041497    -0.0442888895     2.4843454407
   44      C       5.5523965195    -3.7893650408    -2.4038485446
   45      C       3.8617758221     2.2383225843     0.7437703256
   46      C       4.6453533317     2.4099441443    -0.4908965633
   47      C       4.3023774555    -4.0559043245    -1.8204480390
   48      C       8.5948463531    -1.2508805931    -1.5439365034
   49      C       7.6637902533    -3.3183479195    -1.3187912317
   50      C       8.2053597354    -2.9376241796    -0.1043510603
   51      C       7.3198653831    -2.3458266364     2.0966197300
   52      C       6.0588574598     2.2792799237    -0.2223915519
   53      C       2.5710027704     0.1957363618     1.4795335025
   54      C       6.0206157030    -2.5163002131     2.6537005397
   55      C       4.4975113286     0.4311926472    -3.4308928652
   56      C       3.9212784484    -1.3686597744     2.8337769528
   57      C       2.0403459685    -1.3849614387    -1.6148521913
   58      C       8.0391716630     0.9979536677    -0.8768292360
   59      C       6.3780113286    -4.0535305895     1.0143225672
   60      C       2.3675162437     0.8599270264    -0.7209207675
   61      C       8.6053006043    -0.6864593507     0.8181294080
   62      C       2.6834471908    -1.0451629990    -2.7336832055
   63      C       2.3413235190    -2.1850176740     1.1439837107
   64      C       6.9534265118    -2.0766855877    -3.2679469486
   65      C       6.6251093109    -0.7144244752    -3.5855480771
   66      C       2.6030917452    -3.1038956077     0.1032547650
   67      C       6.9383463217     1.7769866750    -1.2098624801
   68      C       4.1996621214     2.0347528436    -1.7964726174
   69      C       8.2053205321     0.0208955798    -1.8537929232
   70      C       4.9583799815     1.8274210131     1.7514549073
   71      C       4.0024303577    -3.6641647145     1.7457528550
   72      C       3.0311909800     1.2397524596    -1.8867365697
   73      C       2.4065909830    -2.7206321075    -1.2461782789
   74      C       8.2490016570     0.6423864607     0.4572334817
   75      C       4.4644055735    -4.3939496822    -0.5029674035
   76      C       7.8965110869    -1.0560716680     1.9748705869
   77      C       6.4713563945    -4.0629254818    -1.3885533003
   78      C       3.2717960493    -2.4948011269     2.1665144353
   79      C       3.5610560453    -3.9877422761     0.4649030285
   80      C       4.7366411333     0.7455243721     2.5724436657
   81      C       6.2266293819     1.8762120008     1.0979306935
   82      C       7.8807768804    -2.2752248208    -2.2016672166
   83      C       5.4549557817    -3.6090538134     1.9989300285
   84      C       3.4444851328    -2.1711219769    -3.1422522094
   85      C       7.2559659393     0.3147912139    -2.8846329755
   86      C       5.7674365902    -2.8077347714    -3.3167219106
   87      C       7.3472276327     1.0829355151     1.4212091763
   88      C       8.8431690740    -1.6269144751    -0.2006854673
   89      O      -3.2663086010     6.7881161284     0.4888327573
   90      C      -2.3200111647     7.8099430252     1.0411460335
   91      H      -2.1162504039     8.5724191025     0.2795314434
   92      H      -1.3451871932     7.3862134453     1.3102955599
   93      H      -2.8317847572     8.3750850520     1.8303153941
   94      O      -4.9657397601     8.3016718174     0.1071733388
   95      C      -4.5868295865     7.1978382956     0.1242507054
   96      C      -5.4188202345     5.9838053824    -0.3827657118
   97      H      -5.0407716772     5.6003117754    -1.3389753864
   98      H      -6.4420929644     6.3253208584    -0.5799460855
   99      C      -5.4940550382     4.8167651185     0.5185481884
  100      H      -4.4868883456     4.4048680355     0.6601675599
  101      H      -5.8213103318     5.1884739378     1.4969200638
  102      C      -6.4714773611     3.7108135933     0.0129605832
  103      H      -6.8547504055     3.1522910761     0.8758089888
  104      H      -7.3268241881     4.2029219603    -0.4645529358
  105      C      -5.7748495498     2.7264562809    -0.9462601287
  106      C      -5.7518435266     3.2399935633    -2.3453370324
  107      C      -6.9698484446     3.6637935978    -2.9279128217
  108      H      -7.9170741683     3.5524888720    -2.4076583777
  109      C      -7.0622651167     4.1113220203    -4.2316564582
  110      H      -8.0098112652     4.2969291407    -4.7292017258
  111      C      -5.9320446599     4.1809035739    -5.0334532694
  112      H      -5.9789789080     4.5574568994    -6.0518744835
  113      C      -4.7084740571     3.7645811432    -4.4990034460
  114      H      -3.8857692679     3.8322497369    -5.2040508142
  115      C      -4.5781282614     3.3756517991    -3.1423303318
  116      H      -3.5749455958     3.1565275567    -2.7876387673
  117      C      -5.8321890375    -2.4293454754    -2.8462776109
  118      C      -3.5373177635    -1.7589297768    -3.0229881846
  119      C      -1.9602062577    -4.4432632678     0.2730770465
  120      C      -7.5204651310    -1.6983720376     1.9755999970
  121      C      -1.9545326579    -1.8895570079     2.5875902024
  122      C      -4.8811261171    -1.4306367203    -3.0458525189
  123      C      -5.3936233564    -2.1182125898     3.6924887461
  124      C      -3.6618709683    -4.9663671300    -1.3997515646
  125      C      -2.5588606909     0.8796894637    -0.2556394063
  126      C      -6.8164801018    -0.5839817691     2.4619305512
  127      C      -4.7208404054     1.8239915786    -0.4780719351
  128      C      -2.9532133397     1.0839464295     1.0631187520
  129      C      -4.7841332829     0.1973166469     2.9579962653
  130      C      -4.0314709593    -2.4969782613     3.7237203502
  131      C      -3.6872854886     0.3711401134    -2.2691924933
  132      C      -2.7530702623    -4.1742563288     2.4621800448
  133      C      -6.1193740499     1.2846640815    -0.7963964486
  134      C      -6.9308569439     0.5779600035     0.2773916398
  135      C      -1.7561394329    -3.1858918356     2.1629902224
  136      C      -6.4420174206    -4.7486267113     0.8020485658
  137      C      -4.2154564243    -5.3353565081     0.9105763303
  138      C      -4.5733035122    -5.3908539661    -0.4591344034
  139      C      -4.1459462362    -4.1066032958    -2.4722128853
  140      C      -7.5306259272    -0.6026856348    -0.2549306719
  141      C      -3.5449054697     1.2522240102    -1.2041159246
  142      C      -3.1339804268    -3.1080116755    -2.7236705880
  143      C      -5.7086682447    -0.8168532772     3.3346903978
  144      C      -2.8133780347    -0.6907254023    -2.5052462765
  145      C      -2.5120111813     0.2589517316     2.0704878025
  146      C      -7.8233197694    -2.9706200326     0.0793895373
  147      C      -2.3740862291    -4.4676072154    -1.0756867362
  148      C      -4.2981067961     1.5896411258     1.0034239848
  149      C      -6.3340070146    -4.1731269340    -1.5360341441
  150      C      -3.4477267302    -0.2531723765     2.9988149589
  151      C      -1.5571725567    -0.1176558884    -0.5204376889
  152      C      -5.1732830507    -4.2515157148     2.8231108499
  153      C      -6.1168437949    -3.2629352467     3.1851119274
  154      C      -1.1122990721    -0.9251659562     0.4569512169
  155      C      -7.8563743718    -1.6574629987     0.5951879453
  156      C      -6.4647110290     0.5001125363     1.6374330943
  157      C      -7.3699167593    -3.7367275489     1.1271991497
  158      C      -6.1472240448     0.2183247084    -1.8272052180
  159      C      -1.3933922704    -2.2436385314    -1.2973095055
  160      C      -5.1869144600     1.0200253847     1.9329183873
  161      C      -1.6055430186    -0.7716856571     1.7624714990
  162      C      -7.2657422876    -3.1401471866    -1.2306798868
  163      C      -1.2558697163    -3.3861190859     0.8856366069
  164      C      -5.4907468219    -3.7617727283    -2.5830517967
  165      C      -2.9070285217    -4.8726837720     1.2406056668
  166      C      -1.6927590980    -0.8827943973    -1.6572883176
  167      C      -1.0240217695    -2.2630114644     0.0338832388
  168      C      -5.0091684060    -0.1393862240    -2.5444222366
  169      C      -7.1134506156    -0.7897742731    -1.5809946224
  170      C      -5.3355338299    -4.9964601826     1.6817636527
  171      C      -2.0813646458    -3.3089736442    -1.8537698438
  172      C      -3.0595080615    -1.5064871585     3.3846547216
  173      C      -7.1607657061    -2.9761533935     2.2759000643
  174      C      -3.9002519503    -3.8194240031     3.2150261084
  175      C      -6.9442877899    -2.1010949008    -2.0779203209
  176      C      -5.9320737954    -4.9541076282    -0.4999994717
 ----------------------------------------------------------------

    9   -5804.2987762353      8.71E-06 Convergence criterion met
 Total energy in the final basis set = -5804.2987762353

                    Orbital Energies (a.u.)
 --------------------------------------------------------------

 Alpha MOs
 -- Occupied --
-19.200 -19.179 -19.147 -19.146 -10.331 -10.318 -10.250 -10.250
-10.244 -10.244 -10.242 -10.242 -10.239 -10.239 -10.236 -10.235
-10.232 -10.232 -10.229 -10.227 -10.225 -10.224 -10.224 -10.222
-10.222 -10.222 -10.222 -10.222 -10.221 -10.221 -10.221 -10.221
-10.221 -10.221 -10.220 -10.220 -10.220 -10.220 -10.220 -10.220
-10.220 -10.220 -10.220 -10.219 -10.219 -10.219 -10.219 -10.219
-10.219 -10.219 -10.219 -10.219 -10.219 -10.218 -10.218 -10.218
-10.218 -10.218 -10.218 -10.218 -10.217 -10.217 -10.217 -10.217
-10.217 -10.216 -10.216 -10.216 -10.216 -10.216 -10.215 -10.215
-10.215 -10.215 -10.215 -10.215 -10.215 -10.215 -10.215 -10.215
-10.214 -10.214 -10.214 -10.214 -10.214 -10.214 -10.214 -10.213
-10.213 -10.213 -10.213 -10.213 -10.213 -10.213 -10.213 -10.213
-10.212 -10.212 -10.212 -10.212 -10.212 -10.212 -10.212 -10.212
-10.212 -10.211 -10.211 -10.211 -10.211 -10.211 -10.211 -10.211
-10.210 -10.210 -10.210 -10.210 -10.210 -10.209 -10.209 -10.209
-10.208 -10.208 -10.208 -10.208 -10.208 -10.208 -10.207 -10.207
-10.207 -10.207 -10.206 -10.206 -10.206 -10.205 -10.205 -10.204
-10.203 -10.203 -10.202 -10.202 -10.201 -10.200 -10.199 -10.199
-10.198 -10.197 -10.195 -10.192  -1.098  -1.090  -1.009  -1.006
 -0.984  -0.983  -0.966  -0.965  -0.965  -0.964  -0.963  -0.959
 -0.938  -0.934  -0.930  -0.925  -0.925  -0.924  -0.922  -0.922
 -0.921  -0.921  -0.897  -0.893  -0.893  -0.892  -0.885  -0.884
 -0.877  -0.873  -0.858  -0.853  -0.845  -0.842  -0.840  -0.838
 -0.837  -0.835  -0.824  -0.822  -0.811  -0.806  -0.800  -0.797
 -0.796  -0.796  -0.793  -0.793  -0.792  -0.792  -0.788  -0.783
 -0.773  -0.772  -0.771  -0.770  -0.768  -0.766  -0.765  -0.765
 -0.754  -0.751  -0.746  -0.739  -0.735  -0.728  -0.719  -0.716
 -0.715  -0.714  -0.714  -0.712  -0.712  -0.710  -0.710  -0.709
 -0.708  -0.707  -0.707  -0.704  -0.702  -0.699  -0.677  -0.671
 -0.661  -0.660  -0.659  -0.657  -0.648  -0.645  -0.633  -0.631
 -0.630  -0.627  -0.626  -0.623  -0.622  -0.621  -0.621  -0.618
 -0.618  -0.617  -0.614  -0.613  -0.613  -0.610  -0.610  -0.610
 -0.607  -0.607  -0.603  -0.603  -0.567  -0.566  -0.565  -0.564
 -0.562  -0.561  -0.559  -0.558  -0.556  -0.555  -0.555  -0.552
 -0.538  -0.535  -0.535  -0.531  -0.529  -0.529  -0.528  -0.526
 -0.526  -0.523  -0.522  -0.518  -0.516  -0.516  -0.514  -0.512
 -0.509  -0.507  -0.502  -0.501  -0.493  -0.493  -0.490  -0.488
 -0.486  -0.485  -0.484  -0.483  -0.482  -0.479  -0.479  -0.478
 -0.475  -0.472  -0.472  -0.469  -0.469  -0.468  -0.466  -0.466
 -0.465  -0.464  -0.464  -0.463  -0.462  -0.462  -0.460  -0.459
 -0.457  -0.456  -0.455  -0.453  -0.449  -0.449  -0.445  -0.442
 -0.442  -0.441  -0.439  -0.438  -0.437  -0.437  -0.436  -0.434
 -0.434  -0.433  -0.429  -0.429  -0.428  -0.427  -0.426  -0.425
 -0.425  -0.424  -0.423  -0.421  -0.421  -0.420  -0.419  -0.417
 -0.417  -0.416  -0.416  -0.415  -0.415  -0.414  -0.414  -0.413
 -0.413  -0.411  -0.410  -0.406  -0.406  -0.401  -0.400  -0.398
 -0.397  -0.395  -0.395  -0.392  -0.390  -0.389  -0.388  -0.386
 -0.386  -0.382  -0.378  -0.376  -0.370  -0.369  -0.369  -0.368
 -0.367  -0.366  -0.364  -0.361  -0.361  -0.361  -0.358  -0.358
 -0.357  -0.355  -0.355  -0.354  -0.354  -0.353  -0.353  -0.352
 -0.351  -0.351  -0.350  -0.347  -0.347  -0.346  -0.346  -0.344
 -0.343  -0.343  -0.342  -0.341  -0.339  -0.337  -0.336  -0.335
 -0.334  -0.332  -0.332  -0.331  -0.328  -0.327  -0.326  -0.325
 -0.324  -0.308  -0.303  -0.294  -0.288  -0.285  -0.276  -0.274
 -0.274  -0.271  -0.270  -0.270  -0.268  -0.266  -0.265  -0.264
 -0.263  -0.261  -0.260  -0.259  -0.258  -0.258  -0.256  -0.256
 -0.252  -0.249  -0.247  -0.244  -0.223  -0.221  -0.215  -0.212
 -0.211  -0.209  -0.207  -0.204  -0.203  -0.200

          Ground-State Mulliken Net Atomic Charges

     Atom                 Charge (a.u.)
  ----------------------------------------
      1 O                    -0.453315
      2 C                    -0.083216
      3 H                     0.125042
      4 H                     0.135069
      5 H                     0.128084
      6 O                    -0.487463
      7 C                     0.586153
      8 C                    -0.279799
      9 H                     0.135741
     10 H                     0.132614
     11 C                    -0.174528
     12 H                     0.113778
     13 H                     0.138216
     14 C                    -0.174418
     15 H                     0.112303
     16 H                     0.107616
     17 C                    -0.009757
     18 C                     0.098850
     19 C                    -0.109301
     20 H                     0.089468
     21 C                    -0.091738
     22 H                     0.093802
     23 C                    -0.080566
     24 H                     0.094097
     25 C                    -0.100798
     26 H                     0.092624
     27 C                    -0.102217
     28 H                     0.092739
     29 C                    -0.010863
     30 C                    -0.001000
     31 C                     0.017400
     32 C                    -0.019046
     33 C                    -0.013168
     34 C                     0.006153
     35 C                     0.022714
     36 C                     0.007225
     37 C                     0.023559
     38 C                     0.003011
     39 C                    -0.092087
     40 C                     0.004082
     41 C                    -0.012261
     42 C                     0.014070
     43 C                     0.011101
     44 C                     0.008011
     45 C                    -0.082897
     46 C                     0.038611
     47 C                    -0.022611
     48 C                     0.006967
     49 C                     0.015783
     50 C                    -0.011153
     51 C                    -0.018269
     52 C                    -0.006957
     53 C                     0.031165
     54 C                     0.031047
     55 C                     0.005192
     56 C                    -0.014534
     57 C                    -0.010902
     58 C                     0.001971
     59 C                    -0.007476
     60 C                     0.064512
     61 C                     0.010697
     62 C                    -0.003024
     63 C                    -0.012384
     64 C                    -0.024654
     65 C                    -0.025990
     66 C                     0.026717
     67 C                     0.017511
     68 C                    -0.018829
     69 C                     0.010827
     70 C                     0.000605
     71 C                    -0.035596
     72 C                    -0.039697
     73 C                     0.005306
     74 C                    -0.009266
     75 C                     0.018691
     76 C                     0.003432
     77 C                    -0.017131
     78 C                    -0.013252
     79 C                     0.006357
     80 C                     0.007692
     81 C                     0.002465
     82 C                     0.011518
     83 C                    -0.014374
     84 C                    -0.007096
     85 C                    -0.014979
     86 C                     0.014955
     87 C                     0.006724
     88 C                    -0.031757
     89 O                    -0.511277
     90 C                    -0.093487
     91 H                     0.125982
     92 H                     0.136890
     93 H                     0.131797
     94 O                    -0.419369
     95 C                     0.589556
     96 C                    -0.249037
     97 H                     0.139702
     98 H                     0.119915
     99 C                    -0.184709
    100 H                     0.122117
    101 H                     0.100731
    102 C                    -0.199806
    103 H                     0.108517
    104 H                     0.110350
    105 C                     0.038640
    106 C                     0.083270
    107 C                    -0.111488
    108 H                     0.093183
    109 C                    -0.086594
    110 H                     0.092705
    111 C                    -0.077637
    112 H                     0.092167
    113 C                    -0.090763
    114 H                     0.091015
    115 C                    -0.123278
    116 H                     0.102870
    117 C                     0.004836
    118 C                    -0.004088
    119 C                     0.002582
    120 C                     0.000774
    121 C                     0.016999
    122 C                     0.012486
    123 C                     0.008641
    124 C                     0.021093
    125 C                     0.005834
    126 C                    -0.022536
    127 C                    -0.078045
    128 C                     0.004418
    129 C                    -0.015311
    130 C                    -0.024666
    131 C                    -0.002448
    132 C                    -0.024641
    133 C                    -0.077002
    134 C                    -0.008573
    135 C                    -0.005543
    136 C                     0.001424
    137 C                    -0.007028
    138 C                    -0.015339
    139 C                    -0.017330
    140 C                     0.019909
    141 C                     0.010940
    142 C                    -0.009829
    143 C                     0.005251
    144 C                     0.011318
    145 C                    -0.020280
    146 C                    -0.023846
    147 C                    -0.012429
    148 C                     0.009038
    149 C                    -0.004305
    150 C                    -0.002048
    151 C                     0.012877
    152 C                     0.013404
    153 C                    -0.031615
    154 C                    -0.002724
    155 C                    -0.010145
    156 C                    -0.011294
    157 C                    -0.004937
    158 C                     0.044491
    159 C                     0.015420
    160 C                     0.040053
    161 C                    -0.017935
    162 C                     0.022179
    163 C                    -0.000552
    164 C                    -0.011046
    165 C                     0.009753
    166 C                    -0.032899
    167 C                     0.014413
    168 C                     0.002985
    169 C                    -0.002830
    170 C                     0.004703
    171 C                     0.006517
    172 C                     0.006647
    173 C                     0.039657
    174 C                     0.015118
    175 C                    -0.014048
    176 C                     0.005686
  ----------------------------------------
  Sum of atomic charges =     0.000000

                    Cartesian Multipole Moments
 -----------------------------------------------------------------
    Charge (ESU x 10^10)
                 0.0000
    Dipole Moment (Debye)
         X      -0.3842      Y       3.0461      Z      -1.5752
       Tot       3.4508
    Quadrupole Moments (Debye-Ang)
        XX    -803.5287     XY      18.8515     YY    -812.9420
        XZ       7.3757     YZ     -13.6086     ZZ    -798.0497

 Total job time:  861.19s(wall), 8239.51s(cpu)
        *  Thank you very much for using Q-Chem.  Have a nice day.  *
