 Q-Chem 4.4, Q-Chem, Inc., Pleasanton, CA (2016)
 Q-Chem 4.4.2 for Intel X86 Linux

User input:
--------------------------------------------------------------
$comment
SP
$end

$rem
MEM_STATIC 5000
MEM_TOTAL 20000
JOBTYPE SP
EXCHANGE B3LYP
BASIS 6-31g(d,p)
$end

$molecule
0 1
O         -10.234000    -16.310000    -12.254000
C          -9.683000    -15.782000    -13.523000
H          -9.380000    -16.616000    -14.169000
H          -8.766000    -15.193000    -13.399000
H         -10.444000    -15.232000    -14.090000
O         -12.106000    -16.892000    -13.388000
C         -11.510000    -16.807000    -12.354000
C         -12.088000    -17.360000    -11.063000
H         -12.152000    -16.568000    -10.307000
H         -11.361000    -18.097000    -10.703000
C         -13.554000    -18.004000    -11.249000
H         -14.083000    -18.009000    -10.288000
H         -14.139000    -17.259000    -11.802000
C         -13.581000    -19.398000    -11.903000
H         -13.056000    -19.229000    -12.851000
H         -13.020000    -20.139000    -11.320000
C         -14.970000    -19.981000    -12.204000
C         -16.024000    -18.887000    -12.453000
C         -16.209000    -18.389000    -13.764000
H         -15.652000    -18.843000    -14.579000
C         -17.167000    -17.437000    -14.051000
H         -17.412000    -17.171000    -15.075000
C         -17.983000    -16.956000    -13.019000
H         -18.759000    -16.226000    -13.226000
C         -17.772000    -17.384000    -11.662000
H         -18.412000    -16.948000    -10.901000
C         -16.813000    -18.375000    -11.419000
H         -16.701000    -18.795000    -10.424000
C         -18.743000    -23.927000    -11.372000
C         -18.666000    -23.622000    -13.792000
C         -16.604000    -27.684000    -14.846000
C         -13.995000    -24.796000     -9.696000
C         -13.452000    -26.156000    -15.162000
C         -18.621000    -23.108000    -12.511000
C         -12.633000    -26.218000    -11.690000
C         -18.329000    -27.076000    -13.177000
C         -15.090000    -22.469000    -15.161000
C         -13.062000    -24.119000    -10.554000
C         -14.901000    -21.249000    -13.029000
C         -13.756000    -22.676000    -14.697000
C         -12.267000    -23.961000    -12.665000
C         -12.748000    -26.827000    -12.981000
C         -17.063000    -22.028000    -13.866000
C         -14.492000    -28.060000    -13.979000
C         -15.470000    -21.309000    -11.677000
C         -14.675000    -22.231000    -10.728000
C         -14.413000    -27.165000    -15.109000
C         -16.186000    -27.440000    -10.423000
C         -16.301000    -28.370000    -12.495000
C         -17.550000    -27.715000    -12.205000
C         -18.986000    -25.871000    -12.823000
C         -15.615000    -22.946000     -9.965000
C         -15.757000    -21.701000    -14.176000
C         -18.834000    -24.988000    -13.975000
C         -12.379000    -24.812000    -11.536000
C         -17.722000    -22.988000    -14.607000
C         -13.084000    -23.894000    -14.948000
C         -16.189000    -25.249000     -9.372000
C         -17.848000    -27.036000    -14.504000
C         -13.616000    -22.077000    -13.436000
C         -18.161000    -25.998000    -10.580000
C         -12.330000    -24.559000    -13.956000
C         -15.717000    -23.505000    -15.856000
C         -14.169000    -27.883000    -11.614000
C         -13.488000    -26.891000    -10.856000
C         -15.022000    -24.655000    -16.186000
C         -15.265000    -24.211000     -9.459000
C         -13.507000    -22.905000    -11.102000
C         -15.547000    -26.457000     -9.652000
C         -16.816000    -21.808000    -11.446000
C         -17.205000    -25.108000    -15.791000
C         -13.005000    -22.774000    -12.401000
C         -13.728000    -24.919000    -15.709000
C         -17.506000    -25.027000     -9.835000
C         -15.670000    -26.917000    -15.608000
C         -18.932000    -25.303000    -11.538000
C         -15.830000    -28.353000    -13.838000
C         -17.023000    -23.725000    -15.617000
C         -15.947000    -25.693000    -16.159000
C         -17.608000    -22.103000    -12.562000
C         -16.930000    -22.706000    -10.353000
C         -15.470000    -28.186000    -11.402000
C         -18.161000    -25.735000    -14.960000
C         -12.635000    -25.937000    -14.066000
C         -14.168000    -26.171000     -9.866000
C         -13.659000    -27.886000    -12.948000
C         -17.853000    -23.741000    -10.350000
C         -17.502000    -27.198000    -10.908000
O          -8.112000    -27.974000     -3.123000
C          -7.565000    -29.189000     -3.808000
H          -6.584000    -29.439000     -3.386000
H          -7.400000    -29.035000     -4.881000
H          -8.182000    -30.055000     -3.537000
O          -8.140000    -28.943000     -1.029000
C          -8.404000    -28.044000     -1.725000
C          -9.001000    -26.698000     -1.220000
H          -8.261000    -25.888000     -1.245000
H          -9.279000    -26.818000     -0.166000
C         -10.181000    -26.189000     -1.947000
H          -9.901000    -25.979000     -2.987000
H         -10.914000    -27.004000     -1.978000
C         -10.814000    -24.926000     -1.285000
H         -11.882000    -24.891000     -1.533000
H         -10.734000    -25.034000     -0.197000
C         -10.147000    -23.627000     -1.777000
C          -8.908000    -23.316000     -1.009000
C          -8.980000    -23.288000      0.404000
H          -9.924000    -23.413000      0.927000
C          -7.901000    -22.965000      1.204000
H          -7.985000    -22.798000      2.274000
C          -6.670000    -22.666000      0.638000
H          -5.802000    -22.438000      1.251000
C          -6.557000    -22.675000     -0.756000
H          -5.566000    -22.407000     -1.109000
C          -7.629000    -23.078000     -1.591000
H          -7.425000    -23.144000     -2.656000
C         -10.953000    -18.260000     -2.638000
C          -9.283000    -18.873000     -4.245000
C         -11.919000    -18.462000     -7.911000
C         -15.066000    -21.343000     -3.100000
C         -12.526000    -21.851000     -8.068000
C          -9.869000    -19.055000     -3.005000
C         -15.313000    -22.035000     -5.766000
C         -11.863000    -17.024000     -5.937000
C          -9.647000    -22.635000     -5.382000
C         -14.566000    -22.586000     -3.523000
C         -10.282000    -23.180000     -3.165000
C         -10.733000    -23.486000     -5.563000
C         -13.481000    -23.635000     -5.169000
C         -14.744000    -21.816000     -7.042000
C          -9.023000    -21.063000     -3.731000
C         -13.827000    -19.807000     -8.120000
C         -11.046000    -22.469000     -2.043000
C         -12.564000    -22.395000     -2.077000
C         -12.650000    -20.543000     -8.485000
C         -14.895000    -18.210000     -4.514000
C         -13.993000    -17.910000     -6.614000
C         -13.222000    -17.111000     -5.734000
C         -10.995000    -17.148000     -4.773000
C         -13.001000    -21.078000     -1.743000
C          -9.348000    -22.383000     -4.019000
C          -9.840000    -17.919000     -5.168000
C         -14.685000    -22.923000     -4.907000
C          -8.814000    -20.095000     -4.714000
C         -11.563000    -23.354000     -6.651000
C         -14.391000    -19.240000     -2.446000
C         -11.181000    -17.697000     -6.983000
C         -11.219000    -23.798000     -4.246000
C         -12.904000    -17.456000     -3.384000
C         -12.963000    -23.359000     -6.452000
C          -9.320000    -21.714000     -6.437000
C         -15.452000    -19.785000     -6.289000
C         -15.821000    -20.754000     -5.328000
C         -10.119000    -21.581000     -7.509000
C         -14.235000    -20.621000     -2.201000
C         -13.324000    -23.083000     -3.088000
C         -15.219000    -19.180000     -3.542000
C         -10.760000    -21.018000     -1.928000
C          -9.554000    -19.516000     -6.951000
C         -12.618000    -23.758000     -4.106000
C         -11.271000    -22.376000     -7.619000
C         -13.207000    -18.433000     -2.393000
C         -11.534000    -19.724000     -8.409000
C         -11.511000    -17.297000     -3.488000
C         -13.319000    -18.557000     -7.692000
C          -8.891000    -20.454000     -6.084000
C         -10.322000    -20.232000     -7.849000
C          -9.764000    -20.404000     -2.682000
C         -11.890000    -20.239000     -1.572000
C         -15.026000    -18.538000     -5.905000
C          -9.974000    -18.278000     -6.494000
C         -13.551000    -22.531000     -7.368000
C         -15.618000    -20.447000     -3.963000
C         -14.855000    -20.437000     -7.375000
C         -11.984000    -18.878000     -1.938000
C         -13.758000    -17.374000     -4.437000
$end

--------------------------------------------------------------

             Standard Nuclear Orientation (Angstroms)
    I     Atom           X                Y                Z
 ----------------------------------------------------------------
    1      O      -0.8813318661    -6.3019462695     4.6089769867
    2      C      -1.6524962519    -6.9582821116     5.6893818888
    3      H      -2.2242314296    -6.2040472269     6.2451962691
    4      H      -1.0283896263    -7.4374773835     6.4536127514
    5      H      -2.3983321002    -7.6519160566     5.2823059283
    6      O      -2.8199667184    -6.0639470250     3.4626283186
    7      C      -1.6308835887    -5.9422890896     3.5162721189
    8      C      -0.8569559737    -5.2605410704     2.4014494043
    9      H      -0.0881259209    -5.9356911980     2.0065207333
   10      H      -0.3397930422    -4.4161101846     2.8713185153
   11      C      -1.7928976125    -4.7858469626     1.1778617480
   12      H      -1.1916096439    -4.6878567745     0.2655911182
   13      H      -2.4134560912    -5.6536185641     0.9230311725
   14      C      -2.6169245321    -3.5109566181     1.4373135646
   15      H      -3.1804834888    -3.7689538449     2.3421498665
   16      H      -1.9802650619    -2.6448962638     1.6570752121
   17      C      -3.6082602411    -3.1062512118     0.3358245513
   18      C      -4.1147514203    -4.3156211091    -0.4708006013
   19      C      -5.2604655232    -5.0150457028    -0.0246006100
   20      H      -5.8001008788    -4.6369617780     0.8393647994
   21      C      -5.7812134957    -6.0814336031    -0.7303451781
   22      H      -6.7426463071    -6.5156777561    -0.4725934276
   23      C      -5.1640425856    -6.4777055090    -1.9237896234
   24      H      -5.5706217704    -7.2972424747    -2.5077224348
   25      C      -3.9542927444    -5.8381449069    -2.3672099185
   26      H      -3.5025292438    -6.2139098604    -3.2801871577
   27      C      -3.4783048163    -4.7396979887    -1.6408072340
   28      H      -2.6288068456    -4.1700181427    -2.0052068373
   29      C      -5.2626410155     0.5619433571    -3.4465083078
   30      C      -7.2938618466    -0.0862388354    -2.2593453953
   31      C      -7.9819830697     3.9468902113     0.0040510073
   32      C      -1.7988766936     2.0925136832    -0.0161537782
   33      C      -6.5717177252     2.6801208877     2.9665147014
   34      C      -6.0639318724    -0.4007462130    -2.8029807215
   35      C      -3.1729458935     3.3240583977     2.0929681836
   36      C      -7.1962200384     3.4367653828    -2.2879348386
   37      C      -6.6781146164    -1.0996417908     1.5597141484
   38      C      -2.0120397913     1.3841489667     1.2158214335
   39      C      -4.5169549204    -1.9718703898     0.7608705845
   40      C      -5.7045859019    -0.7072217093     2.5271588868
   41      C      -3.4735122133     0.9909198893     2.8959343024
   42      C      -4.4595763653     3.7243582245     2.5778692845
   43      C      -6.3604937136    -1.5224789495    -0.7821997482
   44      C      -6.3330818192     4.6351321649     1.4741042986
   45      C      -3.6009196193    -1.7660070900    -0.3677412304
   46      C      -2.5691960937    -0.6468680927    -0.1112563935
   47      C      -7.1328797547     3.5950122522     2.0763001386
   48      C      -3.8794322289     4.3925588322    -1.6595730725
   49      C      -5.9048359170     4.9945964919    -0.8189783089
   50      C      -6.1030061888     4.2790559788    -2.0526137159
   51      C      -6.9763846055     2.2422950406    -3.0186214911
   52      C      -2.4488806075     0.0843729930    -1.3061641968
   53      C      -5.9854708498    -1.7720571434     0.5238376084
   54      C      -7.7645086702     1.2173657605    -2.3416595798
   55      C      -2.6819495961     1.9845692791     2.2654777114
   56      C      -7.4717954129    -0.7449496036    -1.0379704447
   57      C      -5.8297113648     0.5165059078     3.2235376184
   58      C      -2.5846070247     2.3880467741    -2.1183214782
   59      C      -8.1335763878     3.2463183209    -1.2491937781
   60      C      -4.4346346094    -1.0998095507     2.0781371708
   61      C      -4.6618858737     2.7706730567    -3.3214668192
   62      C      -4.7347528117     1.3850812801     3.4271244292
   63      C      -7.7477355265    -0.2376145767     1.3101741897
   64      C      -4.0864727240     4.8365837418     0.6734496691
   65      C      -2.9448528890     4.0320111960     0.9413230921
   66      C      -7.9199452405     0.9096273063     2.0642331239
   67      C      -2.0649505271     1.4362628567    -1.2449066288
   68      C      -2.4844264546     0.0677601140     1.0889505196
   69      C      -2.7469596499     3.5949632868    -1.4350776297
   70      C      -4.0927048823    -1.3621893857    -1.6750883598
   71      C      -8.6385531489     1.2165603176    -0.0608828260
   72      C      -3.3721579206    -0.2063272290     2.1345962401
   73      C      -6.9629009722     1.3564882966     2.9894587849
   74      C      -3.5470019192     1.9825329044    -3.0709476213
   75      C      -8.0952070341     3.1640301828     1.1938406987
   76      C      -5.7296144138     1.8759932787    -3.5554195056
   77      C      -6.8646664574     4.8235575829     0.2179643246
   78      C      -8.1665386319    -0.1038448704     0.0382203287
   79      C      -8.4925756543     1.8525268689     1.2175733198
   80      C      -5.4782045766    -1.3067068661    -1.8675910540
   81      C      -3.3416287386    -0.3276988997    -2.2913375469
   82      C      -4.5409011868     5.0486084094    -0.5826929632
   83      C      -8.4508352742     1.8696366915    -1.3001887807
   84      C      -5.2054750422     2.6988304823     3.1894426765
   85      C      -2.2619487005     3.4064375943    -0.1090099685
   86      C      -5.0242327866     4.6900882676     1.7406001463
   87      C      -3.9338489760     0.6089085173    -3.1251269310
   88      C      -4.8571994447     3.9642094695    -2.6009194993
   89      O       6.0680859085     6.7178715065     2.1357445522
   90      C       5.5070731211     7.8637422254     2.9211768840
   91      H       6.2769162066     8.2604769074     3.5941465831
   92      H       4.6688168108     7.5696803141     3.5639240743
   93      H       5.3167625589     8.7007950362     2.2376489169
   94      O       7.7220811367     7.9767840109     1.1337365227
   95      C       7.1478607297     6.9653497591     1.2316378936
   96      C       7.5512015140     5.6595364835     0.4864413418
   97      H       8.0028271386     4.9248138835     1.1650737874
   98      H       8.3275931899     5.9071137145    -0.2473988863
   99      C       6.4689016491     4.9449901273    -0.2192926784
  100      H       5.7211210311     4.6109894205     0.5110275769
  101      H       5.9705607097     5.6770626410    -0.8659774105
  102      C       6.9791545812     3.7406965007    -1.0698341567
  103      H       6.2853925380     3.5733950500    -1.9029352623
  104      H       7.9491663285     4.0137753533    -1.5014742271
  105      C       7.0729480854     2.4492347667    -0.2345597299
  106      C       8.3585881074     2.3673646143     0.5151688958
  107      C       9.5677475110     2.5403779747    -0.1993497629
  108      H       9.5774640143     2.6548917849    -1.2796655394
  109      C      10.8111478555     2.4369239038     0.3937967944
  110      H      11.7384981104     2.4216563885    -0.1715645128
  111      C      10.9233735947     2.1706314792     1.7508567519
  112      H      11.8914089801     2.1142905638     2.2416827841
  113      C       9.7526381084     1.9853902548     2.4932515997
  114      H       9.9375269690     1.7591738229     3.5387927204
  115      C       8.4680284412     2.1631522137     1.9214153567
  116      H       7.6166293844     2.0905006808     2.5922643717
  117      C       6.8764442523    -3.0366252685    -0.4843034352
  118      C       6.1192383401    -2.5174562519     1.7302440894
  119      C       1.7893756907    -3.6977510943     1.0851343915
  120      C       4.0838452648    -0.4389148994    -3.9611401777
  121      C       0.7957558189    -0.4372002072     0.5752849408
  122      C       6.9086034258    -2.2093658762     0.6365791124
  123      C       1.5196790182    -0.1703080677    -2.9609747764
  124      C       3.7895467306    -4.8198962774     0.2438484713
  125      C       4.3135428892     0.9888400195     1.8827544050
  126      C       3.7261295537     0.7686926303    -3.3384833506
  127      C       5.8736720315     1.7932795983     0.2908332312
  128      C       3.5181786030     1.7025024214     0.9914409762
  129      C       2.5955383048     1.6587902804    -1.6307270445
  130      C       0.6974701409    -0.5216580141    -1.8653362515
  131      C       6.3106834435    -0.2613363195     1.6960735865
  132      C       0.5131854621    -2.5758227841    -0.5291101275
  133      C       6.6326157223     1.1883304951    -0.8949753776
  134      C       5.9295013563     0.9733269811    -2.2255240153
  135      C       0.5992561916    -1.7979882903     0.6741418535
  136      C       3.4612631874    -3.7169304135    -3.1177352653
  137      C       2.0821580984    -4.2387612333    -1.3459097239
  138      C       3.3381118808    -4.8272046088    -1.0568483283
  139      C       5.1794742275    -4.4487349794     0.4763067349
  140      C       6.2504872069    -0.3145290451    -2.7503182031
  141      C       5.6850650612     0.9673833763     1.5233931045
  142      C       5.2233319936    -3.6428074545     1.6734066976
  143      C       2.4029817266     0.8870620173    -2.8107954544
  144      C       5.7108508766    -1.3400775420     2.3468517873
  145      C       2.2133264674     1.3380323250     0.7577949766
  146      C       5.3224621365    -2.3536824655    -3.6364196628
  147      C       3.0665953308    -4.2486479389     1.3223593008
  148      C       4.3978220643     2.1589705234    -0.0506210434
  149      C       5.4797089343    -4.1141979385    -1.8617287843
  150      C       1.7539388107     1.2456585400    -0.5763924408
  151      C       3.6959444169    -0.0434965803     2.6708205645
  152      C       1.3853426740    -2.4759208841    -2.8145053686
  153      C       1.8934338312    -1.4138723216    -3.5971542214
  154      C       2.4192802140    -0.4038063541     2.4573272860
  155      C       5.3703278029    -0.9433033298    -3.6285729056
  156      C       4.5829035482     1.4342212381    -2.4430460303
  157      C       3.9991493387    -2.6482195687    -3.8655290995
  158      C       7.1116610915    -0.1983121271    -0.6755220279
  159      C       3.5176234735    -2.3051483995     2.7281676644
  160      C       3.8949657715     2.0137115765    -1.3561616928
  161      C       1.6658529619     0.2591365573     1.4754499657
  162      C       6.0425161233    -3.0339098578    -2.5997292794
  163      C       1.3107714133    -2.4928080840     1.6400427510
  164      C       6.0455328896    -4.1602330186    -0.5755444962
  165      C       1.3320433206    -3.6985374589    -0.2594222212
  166      C       4.4151628232    -1.1941907515     2.9050806943
  167      C       2.2615191555    -1.8008328391     2.4511265882
  168      C       7.0071923650    -0.8236836481     0.5636408935
  169      C       7.0463362580    -1.0155779860    -1.8323652248
  170      C       2.1281096260    -3.6095365977    -2.5973564127
  171      C       3.9403990195    -3.4956206859     2.1607792851
  172      C       0.8285167914     0.2426515006    -0.6655830514
  173      C       3.2327626473    -1.4978864979    -4.0419271305
  174      C       0.5925665316    -1.9388999361    -1.7927306921
  175      C       6.9171382734    -2.4183897460    -1.7297004946
  176      C       4.1860633992    -4.4264527991    -2.1334402702
 ----------------------------------------------------------------

    9   -5804.3052941772      7.77E-06 Convergence criterion met
 Total energy in the final basis set = -5804.3052941772

                    Orbital Energies (a.u.)
 --------------------------------------------------------------

 Alpha MOs
 -- Occupied --
-19.192 -19.180 -19.147 -19.135 -10.318 -10.314 -10.250 -10.245
-10.244 -10.244 -10.243 -10.236 -10.235 -10.234 -10.232 -10.232
-10.232 -10.229 -10.228 -10.225 -10.225 -10.223 -10.223 -10.223
-10.222 -10.222 -10.222 -10.222 -10.222 -10.221 -10.221 -10.221
-10.221 -10.221 -10.221 -10.221 -10.220 -10.220 -10.220 -10.220
-10.220 -10.220 -10.220 -10.219 -10.219 -10.219 -10.219 -10.219
-10.219 -10.218 -10.218 -10.217 -10.217 -10.217 -10.217 -10.217
-10.217 -10.217 -10.217 -10.216 -10.216 -10.216 -10.216 -10.216
-10.216 -10.216 -10.216 -10.216 -10.216 -10.216 -10.215 -10.215
-10.215 -10.215 -10.215 -10.215 -10.215 -10.214 -10.214 -10.214
-10.213 -10.213 -10.213 -10.213 -10.213 -10.213 -10.212 -10.212
-10.212 -10.212 -10.212 -10.212 -10.212 -10.212 -10.212 -10.211
-10.211 -10.211 -10.211 -10.211 -10.211 -10.211 -10.211 -10.211
-10.211 -10.211 -10.211 -10.210 -10.210 -10.210 -10.210 -10.210
-10.210 -10.210 -10.210 -10.209 -10.209 -10.209 -10.209 -10.208
-10.208 -10.208 -10.208 -10.208 -10.208 -10.207 -10.207 -10.207
-10.206 -10.206 -10.205 -10.204 -10.203 -10.203 -10.202 -10.202
-10.200 -10.199 -10.198 -10.198 -10.197 -10.195 -10.195 -10.193
-10.192 -10.192 -10.191 -10.189  -1.093  -1.091  -1.012  -1.007
 -0.985  -0.980  -0.967  -0.966  -0.964  -0.963  -0.960  -0.956
 -0.939  -0.932  -0.931  -0.926  -0.923  -0.923  -0.922  -0.922
 -0.919  -0.916  -0.898  -0.894  -0.891  -0.888  -0.885  -0.881
 -0.878  -0.870  -0.858  -0.849  -0.846  -0.843  -0.840  -0.838
 -0.838  -0.833  -0.825  -0.818  -0.811  -0.801  -0.797  -0.796
 -0.795  -0.794  -0.793  -0.792  -0.789  -0.788  -0.787  -0.779
 -0.774  -0.773  -0.771  -0.769  -0.767  -0.766  -0.764  -0.756
 -0.754  -0.747  -0.740  -0.735  -0.731  -0.729  -0.720  -0.718
 -0.716  -0.715  -0.713  -0.711  -0.710  -0.710  -0.708  -0.708
 -0.707  -0.704  -0.704  -0.703  -0.701  -0.697  -0.678  -0.669
 -0.662  -0.660  -0.657  -0.656  -0.649  -0.644  -0.634  -0.630
 -0.629  -0.628  -0.623  -0.622  -0.621  -0.619  -0.619  -0.619
 -0.618  -0.616  -0.614  -0.612  -0.611  -0.609  -0.608  -0.608
 -0.606  -0.604  -0.603  -0.599  -0.567  -0.565  -0.562  -0.562
 -0.560  -0.560  -0.557  -0.556  -0.556  -0.554  -0.551  -0.548
 -0.539  -0.536  -0.533  -0.532  -0.530  -0.528  -0.527  -0.524
 -0.523  -0.522  -0.519  -0.517  -0.517  -0.515  -0.511  -0.510
 -0.509  -0.502  -0.502  -0.500  -0.494  -0.491  -0.487  -0.485
 -0.483  -0.483  -0.482  -0.482  -0.479  -0.479  -0.476  -0.473
 -0.471  -0.470  -0.468  -0.467  -0.467  -0.467  -0.466  -0.465
 -0.464  -0.463  -0.463  -0.461  -0.460  -0.459  -0.458  -0.457
 -0.456  -0.454  -0.452  -0.450  -0.449  -0.446  -0.444  -0.443
 -0.441  -0.441  -0.440  -0.438  -0.437  -0.437  -0.435  -0.434
 -0.431  -0.430  -0.429  -0.429  -0.427  -0.426  -0.426  -0.425
 -0.424  -0.423  -0.421  -0.421  -0.420  -0.419  -0.418  -0.418
 -0.417  -0.416  -0.415  -0.415  -0.415  -0.414  -0.413  -0.411
 -0.410  -0.408  -0.407  -0.407  -0.407  -0.401  -0.398  -0.398
 -0.396  -0.396  -0.393  -0.391  -0.390  -0.386  -0.386  -0.382
 -0.381  -0.378  -0.372  -0.371  -0.370  -0.369  -0.368  -0.367
 -0.365  -0.362  -0.362  -0.361  -0.359  -0.359  -0.358  -0.357
 -0.357  -0.355  -0.355  -0.354  -0.353  -0.352  -0.352  -0.351
 -0.348  -0.348  -0.347  -0.347  -0.346  -0.344  -0.343  -0.342
 -0.341  -0.339  -0.339  -0.337  -0.337  -0.336  -0.335  -0.335
 -0.333  -0.332  -0.330  -0.329  -0.328  -0.327  -0.325  -0.322
 -0.320  -0.303  -0.299  -0.295  -0.286  -0.285  -0.275  -0.275
 -0.272  -0.271  -0.268  -0.268  -0.267  -0.266  -0.263  -0.263
 -0.262  -0.261  -0.259  -0.258  -0.257  -0.257  -0.256  -0.254
 -0.252  -0.246  -0.245  -0.243  -0.223  -0.221  -0.215  -0.213
 -0.212  -0.209  -0.205  -0.204  -0.203  -0.196

          Ground-State Mulliken Net Atomic Charges

     Atom                 Charge (a.u.)
  ----------------------------------------
      1 O                    -0.481108
      2 C                    -0.094220
      3 H                     0.126047
      4 H                     0.124585
      5 H                     0.139918
      6 O                    -0.458978
      7 C                     0.611887
      8 C                    -0.287854
      9 H                     0.133282
     10 H                     0.135516
     11 C                    -0.192946
     12 H                     0.094609
     13 H                     0.131423
     14 C                    -0.170629
     15 H                     0.131929
     16 H                     0.104103
     17 C                     0.004151
     18 C                     0.080210
     19 C                    -0.099728
     20 H                     0.092806
     21 C                    -0.080822
     22 H                     0.092452
     23 C                    -0.092226
     24 H                     0.086871
     25 C                    -0.090856
     26 H                     0.093201
     27 C                    -0.111346
     28 H                     0.090822
     29 C                     0.004143
     30 C                    -0.001735
     31 C                    -0.014292
     32 C                    -0.019016
     33 C                     0.010150
     34 C                    -0.002274
     35 C                     0.002672
     36 C                    -0.000225
     37 C                    -0.006264
     38 C                    -0.020532
     39 C                    -0.075571
     40 C                     0.012265
     41 C                    -0.045376
     42 C                    -0.013697
     43 C                     0.027734
     44 C                     0.022476
     45 C                    -0.068932
     46 C                     0.019988
     47 C                    -0.001582
     48 C                    -0.014387
     49 C                     0.000626
     50 C                     0.003125
     51 C                    -0.007650
     52 C                     0.002291
     53 C                     0.017463
     54 C                     0.006403
     55 C                     0.007135
     56 C                    -0.011809
     57 C                    -0.008767
     58 C                    -0.018652
     59 C                    -0.012374
     60 C                     0.004274
     61 C                    -0.004140
     62 C                    -0.013891
     63 C                     0.021119
     64 C                    -0.003629
     65 C                     0.014487
     66 C                     0.006026
     67 C                     0.025849
     68 C                     0.038203
     69 C                     0.001430
     70 C                     0.016075
     71 C                    -0.031426
     72 C                     0.024382
     73 C                    -0.021092
     74 C                    -0.010715
     75 C                     0.025586
     76 C                    -0.013278
     77 C                    -0.018227
     78 C                     0.006169
     79 C                    -0.007783
     80 C                    -0.014796
     81 C                     0.000179
     82 C                     0.001794
     83 C                     0.001711
     84 C                     0.013853
     85 C                    -0.018169
     86 C                     0.005388
     87 C                     0.016679
     88 C                     0.009521
     89 O                    -0.508386
     90 C                    -0.088899
     91 H                     0.126370
     92 H                     0.130279
     93 H                     0.130754
     94 O                    -0.419852
     95 C                     0.589789
     96 C                    -0.248822
     97 H                     0.140727
     98 H                     0.120023
     99 C                    -0.185597
    100 H                     0.124012
    101 H                     0.100748
    102 C                    -0.200580
    103 H                     0.108790
    104 H                     0.110431
    105 C                     0.039547
    106 C                     0.082256
    107 C                    -0.111393
    108 H                     0.093030
    109 C                    -0.087165
    110 H                     0.092606
    111 C                    -0.077046
    112 H                     0.092229
    113 C                    -0.091057
    114 H                     0.091437
    115 C                    -0.123775
    116 H                     0.104610
    117 C                     0.004982
    118 C                    -0.004288
    119 C                     0.011569
    120 C                     0.001458
    121 C                     0.020992
    122 C                     0.011634
    123 C                     0.004784
    124 C                     0.020782
    125 C                     0.009183
    126 C                    -0.022668
    127 C                    -0.077189
    128 C                     0.008655
    129 C                    -0.013309
    130 C                    -0.018383
    131 C                    -0.002356
    132 C                    -0.019554
    133 C                    -0.077925
    134 C                    -0.007346
    135 C                    -0.003274
    136 C                     0.001084
    137 C                    -0.010437
    138 C                    -0.015530
    139 C                    -0.017129
    140 C                     0.018136
    141 C                     0.011088
    142 C                    -0.009346
    143 C                     0.006256
    144 C                     0.011837
    145 C                    -0.015097
    146 C                    -0.023064
    147 C                    -0.018635
    148 C                     0.010452
    149 C                    -0.002771
    150 C                    -0.001164
    151 C                     0.020236
    152 C                     0.010357
    153 C                    -0.031327
    154 C                    -0.008489
    155 C                    -0.009208
    156 C                    -0.012077
    157 C                    -0.004382
    158 C                     0.044528
    159 C                     0.011339
    160 C                     0.040231
    161 C                    -0.012380
    162 C                     0.021143
    163 C                    -0.017157
    164 C                    -0.011559
    165 C                     0.004081
    166 C                    -0.036705
    167 C                     0.010772
    168 C                     0.002601
    169 C                    -0.001941
    170 C                     0.003483
    171 C                     0.010479
    172 C                     0.019784
    173 C                     0.038520
    174 C                     0.006904
    175 C                    -0.013961
    176 C                     0.004227
  ----------------------------------------
  Sum of atomic charges =     0.000000

                    Cartesian Multipole Moments
 -----------------------------------------------------------------
    Charge (ESU x 10^10)
                 0.0000
    Dipole Moment (Debye)
         X       3.3193      Y      -1.7092      Z       1.4954
       Tot       4.0219
    Quadrupole Moments (Debye-Ang)
        XX    -800.4356     XY       2.9262     YY    -805.8053
        XZ       3.6591     YZ       0.2171     ZZ    -791.8651

 Total job time:  862.07s(wall), 8270.59s(cpu)
        *  Thank you very much for using Q-Chem.  Have a nice day.  *
