 Q-Chem 4.4, Q-Chem, Inc., Pleasanton, CA (2016)
 Q-Chem 4.4.2 for Intel X86 Linux

User input:
--------------------------------------------------------------
$comment
SP
$end

$rem
MEM_STATIC 5000
MEM_TOTAL 20000
JOBTYPE SP
EXCHANGE B3LYP
BASIS 6-31g(d,p)
$end

$molecule
0 1
O          22.599000      6.203000     -0.874000
C          23.924000      6.853000     -0.846000
H          24.232000      7.430000     -1.726000
H          24.664000      6.074000     -0.622000
H          23.988000      7.560000     -0.010000
O          21.425000      8.203000     -0.523000
C          21.473000      7.001000     -0.776000
C          20.165000      6.118000     -1.086000
H          20.251000      5.815000     -2.137000
H          19.308000      6.802000     -1.058000
C          19.923000      4.977000     -0.022000
H          20.352000      5.273000      0.944000
H          18.857000      4.790000      0.155000
C          20.709000      3.697000     -0.462000
H          20.536000      3.447000     -1.516000
H          21.776000      3.806000     -0.233000
C          20.273000      2.446000      0.335000
C          20.927000      2.425000      1.724000
C          22.092000      1.651000      2.034000
H          22.523000      0.981000      1.297000
C          22.565000      1.626000      3.366000
H          23.511000      1.144000      3.590000
C          21.930000      2.482000      4.337000
H          22.423000      2.505000      5.304000
C          20.769000      3.084000      4.042000
H          20.293000      3.628000      4.852000
C          20.248000      3.091000      2.760000
H          19.319000      3.638000      2.625000
C          19.765000     -3.029000      0.175000
C          17.970000     -2.304000      1.692000
C          14.652000     -3.262000     -1.171000
C          19.442000     -0.513000     -4.229000
C          14.183000      0.074000     -2.148000
C          19.284000     -2.162000      1.204000
C          16.718000     -0.084000     -4.682000
C          16.595000     -4.452000     -0.673000
C          16.586000      1.323000      0.782000
C          18.890000      0.816000     -3.982000
C          18.835000      1.885000      0.133000
C          16.508000      1.988000     -0.427000
C          17.006000      1.796000     -3.137000
C          15.380000     -0.217000     -4.174000
C          18.360000     -0.089000      1.695000
C          14.416000     -2.177000     -3.175000
C          20.004000      1.162000     -0.385000
C          20.155000      0.870000     -1.888000
C          13.960000     -1.295000     -2.142000
C          18.073000     -3.597000     -3.721000
C          15.967000     -4.023000     -2.996000
C          16.832000     -4.588000     -2.088000
C          17.701000     -4.161000      0.178000
C          20.617000     -0.394000     -2.045000
C          17.912000      1.130000      1.101000
C          17.189000     -3.372000      1.255000
C          17.508000      0.963000     -4.150000
C          17.397000     -1.079000      1.950000
C          15.467000      1.699000     -1.368000
C          20.029000     -2.477000     -3.211000
C          15.498000     -3.778000     -0.198000
C          17.827000      2.290000     -0.919000
C          19.214000     -4.141000     -1.679000
C          15.699000      1.643000     -2.696000
C          15.650000      0.333000      1.125000
C          16.334000     -2.249000     -4.686000
C          17.318000     -1.346000     -4.995000
C          14.597000      0.036000      0.253000
C          20.268000     -1.054000     -3.196000
C          19.189000      1.401000     -2.750000
C          19.022000     -2.705000     -4.144000
C          20.294000     -0.205000      0.209000
C          15.218000     -1.863000      1.281000
C          18.083000      2.125000     -2.244000
C          14.486000      0.724000     -0.977000
C          20.165000     -3.166000     -2.025000
C          14.049000     -1.992000     -0.920000
C          18.996000     -4.032000     -0.332000
C          14.831000     -3.351000     -2.523000
C          16.058000     -0.846000      1.729000
C          14.305000     -1.328000      0.340000
C          19.537000     -0.743000      1.208000
C          20.694000     -1.046000     -0.829000
C          16.682000     -3.401000     -4.049000
C          15.806000     -3.134000      0.991000
C          14.849000      0.655000     -3.226000
C          18.698000     -1.559000     -4.861000
C          15.137000     -1.590000     -4.228000
C          20.458000     -2.444000     -0.859000
C          18.172000     -4.383000     -2.549000
O          16.382000      0.203000     -7.871000
C          15.808000      1.414000     -7.462000
H          16.523000      2.194000     -7.174000
H          15.080000      1.224000     -6.663000
H          15.230000      1.801000     -8.310000
O          17.043000      0.909000     -9.935000
C          17.015000      0.046000     -9.041000
C          17.694000     -1.320000     -9.090000
H          17.834000     -1.724000    -10.100000
H          16.968000     -1.927000     -8.535000
C          19.052000     -1.242000     -8.320000
H          18.877000     -0.603000     -7.445000
H          19.235000     -2.257000     -7.948000
C          20.245000     -0.739000     -9.131000
H          20.426000     -1.498000     -9.901000
H          19.842000      0.122000     -9.678000
C          21.416000     -0.348000     -8.206000
C          22.261000     -1.506000     -7.683000
C          21.913000     -2.195000     -6.533000
H          21.031000     -1.884000     -5.982000
C          22.725000     -3.269000     -6.036000
H          22.343000     -3.920000     -5.255000
C          23.836000     -3.659000     -6.721000
H          24.298000     -4.610000     -6.472000
C          24.153000     -3.071000     -7.997000
H          24.922000     -3.524000     -8.614000
C          23.366000     -1.964000     -8.430000
H          23.568000     -1.338000     -9.294000
C          23.300000      2.994000     -4.308000
C          25.225000      2.769000     -5.764000
C          25.310000      6.944000     -7.472000
C          19.344000      4.663000     -7.005000
C          23.660000      5.988000    -10.482000
C          24.022000      2.261000     -5.227000
C          20.334000      6.178000     -9.073000
C          24.854000      6.133000     -5.190000
C          24.188000      2.058000     -9.509000
C          19.428000      4.075000     -8.269000
C          22.223000      0.963000     -8.644000
C          23.016000      2.545000    -10.185000
C          20.734000      4.023000    -10.149000
C          21.492000      6.704000     -9.723000
C          24.222000      1.406000     -7.257000
C          23.487000      7.692000     -8.693000
C          21.345000      0.986000     -7.398000
C          20.195000      1.992000     -7.346000
C          24.305000      6.832000     -9.523000
C          21.484000      6.912000     -5.297000
C          23.345000      7.681000     -6.276000
C          23.725000      6.897000     -5.154000
C          24.864000      4.855000     -4.677000
C          20.164000      2.625000     -6.067000
C          23.701000      1.145000     -8.510000
C          25.586000      4.088000     -5.507000
C          20.001000      4.852000     -9.320000
C          25.364000      2.219000     -7.070000
C          23.056000      3.837000    -10.762000
C          20.330000      4.728000     -4.942000
C          25.665000      6.152000     -6.326000
C          21.856000      1.975000     -9.706000
C          22.541000      5.092000     -3.986000
C          21.883000      4.598000    -10.799000
C          25.292000      2.939000     -9.322000
C          21.287000      7.605000     -7.661000
C          20.216000      6.758000     -7.853000
C          25.273000      4.231000     -9.836000
C          19.709000      3.887000     -5.874000
C          19.949000      2.823000     -8.414000
C          20.306000      6.068000     -5.462000
C          21.992000      1.207000     -6.079000
C          26.371000      4.277000     -7.849000
C          20.754000      2.786000     -9.594000
C          24.199000      4.696000    -10.612000
C          21.412000      4.273000     -4.165000
C          25.361000      6.338000     -8.723000
C          23.685000      4.302000     -4.082000
C          24.144000      7.764000     -7.434000
C          25.897000      2.963000     -8.098000
C          25.978000      5.067000     -8.931000
C          23.423000      1.394000     -6.095000
C          21.234000      2.089000     -5.271000
C          21.936000      7.672000     -6.349000
C          26.175000      4.817000     -6.527000
C          22.280000      5.905000    -10.508000
C          19.735000      5.994000     -6.723000
C          22.102000      7.571000     -8.770000
C          21.928000      2.975000     -4.381000
C          22.556000      6.381000     -4.592000
$end

--------------------------------------------------------------

             Standard Nuclear Orientation (Angstroms)
    I     Atom           X                Y                Z
 ----------------------------------------------------------------
    1      O      -1.5165808724    -5.9726672843    -0.0661535022
    2      C      -2.5535511762    -6.7597530361     0.6296177306
    3      H      -3.6030274849    -6.5560200392     0.3861319127
    4      H      -2.3820592340    -6.6433144783     1.7074162164
    5      H      -2.4217812165    -7.8302792802     0.4309943727
    6      O      -1.7382417223    -7.1506502708    -2.0822635069
    7      C      -1.2823606509    -6.2316737221    -1.4049367382
    8      C      -0.3133379454    -5.0974536389    -2.0059299155
    9      H      -0.8828428653    -4.1609368405    -1.9568745121
   10      H      -0.2067522480    -5.3079505739    -3.0771066187
   11      C       1.1246942222    -5.1042342978    -1.3543483721
   12      H       1.3682025203    -6.1150434907    -1.0025224430
   13      H       1.9085816294    -4.8261325786    -2.0690748698
   14      C       1.1073914390    -4.2016344814    -0.0757514125
   15      H       0.6453185660    -3.2248750129    -0.2648931603
   16      H       0.6302300332    -4.7297835913     0.7586265057
   17      C       2.5334464507    -3.8908688942     0.4342464830
   18      C       3.1041133596    -5.0771797769     1.2244893373
   19      C       3.1028093729    -5.1434286510     2.6555764717
   20      H       2.7522469334    -4.3041809579     3.2476907222
   21      C       3.7347606225    -6.2358102182     3.2926935173
   22      H       3.6367580579    -6.3602014280     4.3661637424
   23      C       4.2467674614    -7.3065318908     2.4740323562
   24      H       4.6037431153    -8.1661060160     3.0329310104
   25      C       4.3482902587    -7.1456044474     1.1469507914
   26      H       4.8383099901    -7.9479122263     0.6040006180
   27      C       3.7842538722    -6.0656231495     0.4908125812
   28      H       3.8963847025    -6.0516153550    -0.5897916287
   29      C       5.6453055424    -0.2348731108     3.1192635826
   30      C       7.2022330058    -1.3075398520     1.5462721853
   31      C       7.6136897330     2.2989788210    -1.0895167712
   32      C       1.5858489014     1.5261525423     0.6193832996
   33      C       5.4300366741     1.0737834331    -3.5459250393
   34      C       6.1072916989    -1.3972088501     2.4282965643
   35      C       2.5094675729     2.3386823701    -1.8898296903
   36      C       7.5448026454     2.1398211183     1.2362683425
   37      C       5.3929923417    -2.5119833654    -1.7965782514
   38      C       1.3260779519     0.6707879124    -0.5350968447
   39      C       3.4690025993    -3.0002873941    -0.4346426263
   40      C       4.2867239373    -2.0155072398    -2.4596556784
   41      C       2.3540888662    -0.0422483901    -2.4478576221
   42      C       3.6254140125     2.4146478113    -2.7925421560
   43      C       5.8047135210    -2.7918251307     0.5964456216
   44      C       5.8460934299     3.1618826697    -2.2642240780
   45      C       2.8970939728    -2.4911406745     0.8188740831
   46      C       1.9917130256    -1.2472698633     0.8309051018
   47      C       6.2893105252     1.9804476971    -2.9429869319
   48      C       4.3061348659     3.4428302691     1.3741493316
   49      C       6.1304644373     3.7517024290     0.0631357527
   50      C       6.5671920781     3.1986421561     1.2443670181
   51      C       7.3553753380     1.0311369778     2.1120849739
   52      C       2.3232399875    -0.4737134349     1.8927381045
   53      C       4.9992250494    -2.9896761774    -0.5661137469
   54      C       7.9072014817    -0.1095338585     1.4495504840
   55      C       1.8730813384     1.0814732027    -1.7565230142
   56      C       7.0167904451    -2.1006598265     0.4362767967
   57      C       4.3816565644    -0.8597658830    -3.3010430521
   58      C       2.9952341277     1.8370619340     2.3956596391
   59      C       8.0766415010     1.6729581584     0.0604722682
   60      C       3.1004160212    -2.2029489039    -1.6655724645
   61      C       5.3255818218     1.9682192753     2.9722204568
   62      C       3.4205107751     0.0868537904    -3.3266158023
   63      C       6.6481937002    -1.8928489288    -1.9190000598
   64      C       3.8762355108     3.7910145377    -0.9638849409
   65      C       2.6645036710     3.1877758972    -0.7471937069
   66      C       6.7989066154    -0.7795331381    -2.7527959385
   67      C       2.1121070455     0.8770630689     1.7785990782
   68      C       1.6571165441    -0.6792199165    -0.4034066305
   69      C       3.0444681098     2.9397402632     1.5481937004
   70      C       3.8663465327    -2.1581194501     1.9392630063
   71      C       8.1617477763    -0.5256392756    -0.9845120595
   72      C       2.1871004106    -1.1974307731    -1.6092352292
   73      C       5.6841123510    -0.2728735893    -3.4592623918
   74      C       4.0685041334     1.3564926860     3.1146573391
   75      C       7.4154343555     1.4912782793    -2.2504752718
   76      C       6.2631705427     0.9709027034     2.9822726073
   77      C       6.6828389237     3.2982331835    -1.1431217116
   78      C       7.4599925621    -1.7162211179    -0.8094477968
   79      C       7.7451577680     0.0834338241    -2.1931301647
   80      C       5.2116746547    -2.3504797340     1.8227135955
   81      C       3.4276199572    -0.9831285123     2.5488860768
   82      C       4.7270177335     3.9430757901     0.0882671323
   83      C       8.3430448181     0.3154360239     0.1578577244
   84      C       4.0584061754     1.3223973320    -3.5412448190
   85      C       2.1318612383     2.8435892158     0.5040267242
   86      C       4.4582842162     3.3733433413    -2.2143344906
   87      C       4.2858966474    -0.0284561239     3.1513491494
   88      C       5.4421507740     3.0429044717     2.1162465039
   89      O       0.4501899865     4.5948102502    -2.9068099312
   90      C       0.3714795380     3.6997488181    -3.9819600129
   91      H      -0.2407427442     2.8080742596    -3.8012133423
   92      H       1.3834346380     3.4302757338    -4.3103136827
   93      H      -0.0830860089     4.2406409264    -4.8208657827
   94      O      -1.6303104786     5.4913889647    -3.1580417436
   95      C      -0.5668910598     5.3782468970    -2.5246958569
   96      C      -0.2254578475     6.0763673203    -1.2111322931
   97      H      -0.7425811921     7.0306873007    -1.0537384511
   98      H       0.8503708989     6.2444690102    -1.3448646015
   99      C      -0.4873867851     5.0903959822    -0.0269018459
  100      H      -0.1662844691     4.0989120910    -0.3710297235
  101      H       0.2043811692     5.3972330744     0.7664493350
  102      C      -1.9231963264     5.0469731427     0.4932369992
  103      H      -2.1143162304     6.0341979931     0.9298172059
  104      H      -2.5293074804     5.0245501426    -0.4205821722
  105      C      -2.1526875853     3.8040437872     1.3776618855
  106      C      -1.6378048217     3.9074225257     2.8103958371
  107      C      -0.3303423699     3.5858733175     3.1351619743
  108      H       0.3319934155     3.2296758368     2.3524227699
  109      C       0.1399253941     3.6652341614     4.4888159502
  110      H       1.2039326204     3.6004309730     4.6970830122
  111      C      -0.6893974205     4.1061744423     5.4754472582
  112      H      -0.2609958166     4.3871928176     6.4332294561
  113      C      -2.0083397881     4.5914697699     5.1603465188
  114      H      -2.5772268962     5.1152618516     5.9214433020
  115      C      -2.4678564842     4.4377645374     3.8196280146
  116      H      -3.4768014240     4.6283583192     3.4662442024
  117      C      -2.4070396193    -1.6500463801     1.6955132482
  118      C      -4.2623625151    -0.9682339828     3.0987576342
  119      C      -7.6700930171    -2.3291909359     0.4738227784
  120      C      -2.9608983198     0.3782546219    -2.9184375085
  121      C      -8.2439259520     0.9271530973    -0.8541362948
  122      C      -2.9975755595    -0.7177177457     2.5232599610
  123      C      -5.6544906524     0.6853578395    -3.3681006706
  124      C      -5.4998060431    -3.3768496441     0.9890379583
  125      C      -5.7746910900     2.5079285004     1.9874198495
  126      C      -3.5151683510     1.6487164196    -2.7475353342
  127      C      -3.5739945643     3.0907188310     1.1963666070
  128      C      -5.8543872920     3.0231104431     0.6472836321
  129      C      -5.4110284590     2.7040973452    -2.0163544043
  130      C      -6.9788383149     0.5189894159    -2.8596079799
  131      C      -3.9704697375     1.2493623136     2.7989372336
  132      C      -7.8997012525    -1.3974394280    -1.6363414772
  133      C      -2.3046973670     2.4017701736     0.7083467588
  134      C      -2.1996730088     2.0539810232    -0.7766625311
  135      C      -8.4148653989    -0.4779248743    -0.6430022161
  136      C      -4.1944506625    -2.8588072841    -2.1736933681
  137      C      -6.2388508431    -3.1269707245    -1.3009738995
  138      C      -5.2862063266    -3.5683860823    -0.3441244301
  139      C      -4.4822768513    -2.9628950251     1.8195973585
  140      C      -1.6880355481     0.7300443548    -0.9280223890
  141      C      -4.3713551828     2.4744396397     2.3008936564
  142      C      -4.9963639903    -2.0748258764     2.6830327068
  143      C      -4.9250976642     1.7812811917    -2.9241278393
  144      C      -4.8938086470     0.2944170956     3.2843513752
  145      C      -6.9478919309     2.6337746084    -0.1629374567
  146      C      -2.1728788333    -1.4474393509    -1.7878373110
  147      C      -6.6841500868    -2.7764188990     1.4196074724
  148      C      -4.6170349388     3.3429429706     0.1309433293
  149      C      -2.9213553647    -2.9812533912    -0.0494040014
  150      C      -6.7569491256     2.5097710403    -1.5430037450
  151      C      -6.7143846193     1.5211724076     2.4036343187
  152      C      -6.0071233210    -1.4987851930    -3.1596506413
  153      C      -5.1065626684    -0.5385060638    -3.5697341755
  154      C      -7.7353079250     1.1017252407     1.5577024787
  155      C      -1.9986904792    -0.0706293433    -1.9765132773
  156      C      -3.2136728673     2.3898469896    -1.6430916048
  157      C      -3.2208874902    -1.8909122784    -2.6662367747
  158      C      -1.9062546903     1.1185376496     1.3421990465
  159      C      -7.0463619293    -0.6870301985     2.7749109216
  160      C      -4.3934409563     3.0590081025    -1.1934643578
  161      C      -7.9206909623     1.6771709919     0.2902750382
  162      C      -1.9964827973    -2.0320197828    -0.5195202540
  163      C      -8.1886118529    -1.0480621808     0.6309384358
  164      C      -3.1681577366    -2.7336135842     1.2996012303
  165      C      -7.4656167541    -2.5468305722    -0.9205309954
  166      C      -6.2496542620     0.4415346197     3.0987493753
  167      C      -7.9691758492    -0.2751586646     1.8115577627
  168      C      -2.7792928290     0.6222016369     2.3787514913
  169      C      -1.4492514999     0.1850871010     0.3803413869
  170      C      -5.5314573654    -2.6818084257    -2.4376867021
  171      C      -6.3687295768    -1.9396106957     2.5522980447
  172      C      -7.4814463928     1.3757959153    -1.9168260631
  173      C      -3.7009951483    -0.7623677257    -3.3123960656
  174      C      -7.1474373517    -0.8863746106    -2.6907165414
  175      C      -1.7139668830    -1.2088103990     0.5941345707
  176      C      -4.0188832843    -3.3405783631    -0.8832505282
 ----------------------------------------------------------------

    9   -5804.2652133162      8.50E-06 Convergence criterion met
 Total energy in the final basis set = -5804.2652133162

                    Orbital Energies (a.u.)
 --------------------------------------------------------------

 Alpha MOs
 -- Occupied --
-19.200 -19.197 -19.142 -19.130 -10.324 -10.318 -10.248 -10.246
-10.244 -10.242 -10.241 -10.239 -10.239 -10.236 -10.235 -10.232
-10.231 -10.228 -10.227 -10.226 -10.225 -10.225 -10.225 -10.224
-10.224 -10.224 -10.224 -10.224 -10.224 -10.223 -10.223 -10.223
-10.222 -10.222 -10.222 -10.222 -10.221 -10.221 -10.221 -10.221
-10.221 -10.221 -10.221 -10.221 -10.220 -10.220 -10.220 -10.220
-10.220 -10.220 -10.220 -10.220 -10.220 -10.220 -10.219 -10.219
-10.219 -10.219 -10.219 -10.219 -10.219 -10.219 -10.219 -10.218
-10.218 -10.218 -10.218 -10.218 -10.218 -10.218 -10.218 -10.218
-10.217 -10.217 -10.217 -10.217 -10.217 -10.216 -10.216 -10.216
-10.216 -10.216 -10.216 -10.216 -10.216 -10.215 -10.215 -10.215
-10.215 -10.215 -10.215 -10.215 -10.215 -10.215 -10.214 -10.214
-10.214 -10.214 -10.214 -10.214 -10.214 -10.214 -10.214 -10.213
-10.213 -10.213 -10.212 -10.212 -10.212 -10.211 -10.211 -10.211
-10.211 -10.211 -10.211 -10.211 -10.210 -10.210 -10.210 -10.209
-10.209 -10.209 -10.209 -10.209 -10.209 -10.208 -10.208 -10.207
-10.207 -10.206 -10.206 -10.206 -10.206 -10.206 -10.205 -10.204
-10.204 -10.204 -10.202 -10.201 -10.200 -10.199 -10.197 -10.197
-10.197 -10.196 -10.196 -10.192  -1.105  -1.081  -1.007  -1.000
 -0.988  -0.983  -0.970  -0.968  -0.968  -0.966  -0.961  -0.960
 -0.939  -0.934  -0.931  -0.928  -0.928  -0.927  -0.926  -0.925
 -0.925  -0.918  -0.898  -0.898  -0.897  -0.892  -0.889  -0.883
 -0.879  -0.867  -0.858  -0.849  -0.848  -0.845  -0.844  -0.843
 -0.840  -0.839  -0.826  -0.819  -0.806  -0.803  -0.802  -0.799
 -0.799  -0.797  -0.797  -0.795  -0.794  -0.792  -0.788  -0.785
 -0.777  -0.775  -0.773  -0.771  -0.768  -0.767  -0.765  -0.763
 -0.753  -0.751  -0.741  -0.741  -0.734  -0.732  -0.723  -0.720
 -0.717  -0.717  -0.715  -0.714  -0.714  -0.713  -0.713  -0.712
 -0.710  -0.708  -0.706  -0.704  -0.703  -0.702  -0.677  -0.670
 -0.666  -0.663  -0.660  -0.657  -0.649  -0.646  -0.634  -0.633
 -0.630  -0.629  -0.627  -0.625  -0.624  -0.622  -0.621  -0.619
 -0.617  -0.616  -0.615  -0.615  -0.613  -0.612  -0.611  -0.609
 -0.609  -0.608  -0.605  -0.603  -0.571  -0.567  -0.566  -0.564
 -0.564  -0.563  -0.561  -0.561  -0.559  -0.558  -0.557  -0.554
 -0.540  -0.536  -0.535  -0.533  -0.532  -0.531  -0.529  -0.527
 -0.526  -0.523  -0.523  -0.519  -0.519  -0.519  -0.516  -0.516
 -0.509  -0.507  -0.503  -0.496  -0.492  -0.491  -0.489  -0.488
 -0.487  -0.486  -0.484  -0.483  -0.481  -0.480  -0.476  -0.476
 -0.475  -0.473  -0.472  -0.471  -0.470  -0.469  -0.469  -0.468
 -0.467  -0.465  -0.464  -0.464  -0.463  -0.461  -0.459  -0.457
 -0.456  -0.454  -0.453  -0.451  -0.450  -0.449  -0.449  -0.444
 -0.444  -0.442  -0.442  -0.441  -0.438  -0.438  -0.436  -0.434
 -0.433  -0.432  -0.431  -0.430  -0.430  -0.428  -0.427  -0.427
 -0.426  -0.426  -0.424  -0.423  -0.422  -0.421  -0.420  -0.419
 -0.419  -0.418  -0.418  -0.418  -0.417  -0.416  -0.415  -0.414
 -0.413  -0.411  -0.409  -0.407  -0.404  -0.402  -0.402  -0.400
 -0.396  -0.395  -0.394  -0.393  -0.392  -0.391  -0.389  -0.388
 -0.380  -0.377  -0.376  -0.374  -0.374  -0.371  -0.369  -0.367
 -0.367  -0.366  -0.365  -0.363  -0.363  -0.361  -0.360  -0.360
 -0.359  -0.358  -0.358  -0.356  -0.355  -0.355  -0.355  -0.352
 -0.351  -0.350  -0.349  -0.349  -0.348  -0.347  -0.347  -0.346
 -0.345  -0.343  -0.342  -0.341  -0.340  -0.339  -0.337  -0.336
 -0.335  -0.334  -0.333  -0.332  -0.329  -0.328  -0.326  -0.324
 -0.307  -0.304  -0.303  -0.297  -0.294  -0.285  -0.276  -0.274
 -0.271  -0.271  -0.270  -0.269  -0.268  -0.266  -0.266  -0.265
 -0.265  -0.263  -0.260  -0.260  -0.260  -0.259  -0.256  -0.253
 -0.252  -0.250  -0.248  -0.244  -0.228  -0.223  -0.218  -0.214
 -0.214  -0.212  -0.211  -0.206  -0.204  -0.200

          Ground-State Mulliken Net Atomic Charges

     Atom                 Charge (a.u.)
  ----------------------------------------
      1 O                    -0.458930
      2 C                    -0.099468
      3 H                     0.134506
      4 H                     0.126885
      5 H                     0.135573
      6 O                    -0.457901
      7 C                     0.577093
      8 C                    -0.251182
      9 H                     0.132323
     10 H                     0.123987
     11 C                    -0.194570
     12 H                     0.119957
     13 H                     0.110299
     14 C                    -0.173694
     15 H                     0.108169
     16 H                     0.131739
     17 C                     0.003644
     18 C                     0.066458
     19 C                    -0.108628
     20 H                     0.095231
     21 C                    -0.101332
     22 H                     0.093253
     23 C                    -0.077636
     24 H                     0.089646
     25 C                    -0.079476
     26 H                     0.088456
     27 C                    -0.096771
     28 H                     0.094573
     29 C                    -0.013628
     30 C                     0.009456
     31 C                     0.014849
     32 C                    -0.011096
     33 C                     0.012821
     34 C                     0.000215
     35 C                    -0.000851
     36 C                    -0.011978
     37 C                     0.033461
     38 C                    -0.043306
     39 C                    -0.066938
     40 C                    -0.000234
     41 C                    -0.003635
     42 C                     0.022177
     43 C                    -0.023153
     44 C                    -0.009356
     45 C                    -0.120441
     46 C                     0.022375
     47 C                     0.008608
     48 C                     0.006266
     49 C                    -0.009207
     50 C                    -0.009110
     51 C                    -0.004783
     52 C                     0.009951
     53 C                     0.026321
     54 C                    -0.026863
     55 C                    -0.018566
     56 C                     0.021864
     57 C                    -0.010394
     58 C                    -0.018500
     59 C                     0.032619
     60 C                     0.012359
     61 C                    -0.013000
     62 C                     0.009180
     63 C                    -0.006574
     64 C                    -0.010938
     65 C                     0.032212
     66 C                     0.003711
     67 C                     0.023009
     68 C                     0.023566
     69 C                     0.006781
     70 C                     0.040901
     71 C                    -0.022378
     72 C                     0.014818
     73 C                     0.001839
     74 C                    -0.009432
     75 C                    -0.023746
     76 C                     0.022869
     77 C                     0.012674
     78 C                     0.018928
     79 C                    -0.015431
     80 C                    -0.004276
     81 C                     0.013616
     82 C                     0.002390
     83 C                    -0.004280
     84 C                    -0.029361
     85 C                    -0.026695
     86 C                    -0.021478
     87 C                     0.002289
     88 C                     0.009181
     89 O                    -0.437711
     90 C                    -0.090035
     91 H                     0.126851
     92 H                     0.122727
     93 H                     0.126895
     94 O                    -0.492553
     95 C                     0.580269
     96 C                    -0.239578
     97 H                     0.123272
     98 H                     0.124701
     99 C                    -0.203637
    100 H                     0.119331
    101 H                     0.109727
    102 C                    -0.183031
    103 H                     0.113169
    104 H                     0.126354
    105 C                     0.001279
    106 C                     0.109379
    107 C                    -0.110314
    108 H                     0.088700
    109 C                    -0.093416
    110 H                     0.094766
    111 C                    -0.088012
    112 H                     0.089934
    113 C                    -0.100747
    114 H                     0.097308
    115 C                    -0.107848
    116 H                     0.092160
    117 C                     0.006281
    118 C                    -0.015687
    119 C                    -0.011229
    120 C                    -0.016935
    121 C                    -0.018335
    122 C                    -0.008265
    123 C                     0.021488
    124 C                     0.003965
    125 C                    -0.026260
    126 C                    -0.011789
    127 C                    -0.104753
    128 C                     0.020599
    129 C                     0.000402
    130 C                    -0.031084
    131 C                     0.021337
    132 C                    -0.010245
    133 C                    -0.068729
    134 C                     0.003512
    135 C                    -0.017464
    136 C                    -0.004707
    137 C                     0.007329
    138 C                    -0.005895
    139 C                     0.007407
    140 C                     0.019800
    141 C                    -0.014016
    142 C                     0.025051
    143 C                    -0.010147
    144 C                     0.005607
    145 C                    -0.012790
    146 C                     0.001139
    147 C                    -0.021675
    148 C                     0.038576
    149 C                     0.018743
    150 C                    -0.034092
    151 C                     0.016425
    152 C                    -0.009474
    153 C                     0.005357
    154 C                     0.010143
    155 C                    -0.000702
    156 C                     0.037324
    157 C                    -0.023619
    158 C                     0.003812
    159 C                    -0.022362
    160 C                     0.031063
    161 C                    -0.006141
    162 C                    -0.017275
    163 C                     0.043179
    164 C                    -0.019165
    165 C                    -0.026636
    166 C                     0.004457
    167 C                    -0.013772
    168 C                     0.039032
    169 C                     0.009373
    170 C                    -0.000569
    171 C                    -0.005508
    172 C                     0.048124
    173 C                     0.008733
    174 C                     0.024678
    175 C                    -0.017602
    176 C                     0.010161
  ----------------------------------------
  Sum of atomic charges =     0.000000

                    Cartesian Multipole Moments
 -----------------------------------------------------------------
    Charge (ESU x 10^10)
                 0.0000
    Dipole Moment (Debye)
         X       3.3224      Y      -0.2297      Z       3.5093
       Tot       4.8380
    Quadrupole Moments (Debye-Ang)
        XX    -824.0351     XY      -3.3959     YY    -801.8046
        XZ      -9.6437     YZ      -5.2021     ZZ    -803.3418

 Total job time:  918.00s(wall), 8854.93s(cpu)
        *  Thank you very much for using Q-Chem.  Have a nice day.  *
