 Q-Chem 4.4, Q-Chem, Inc., Pleasanton, CA (2016)
 Q-Chem 4.4.2 for Intel X86 Linux

User input:
--------------------------------------------------------------
$comment
SP
$end

$rem
MEM_STATIC 5000
MEM_TOTAL 20000
JOBTYPE SP
EXCHANGE B3LYP
BASIS 6-31g(d,p)
$end

$molecule
0 1
O          14.935000     16.356000     -1.314000
C          15.946000     16.691000     -0.286000
H          16.842000     17.030000     -0.821000
H          16.273000     15.791000      0.249000
H          15.578000     17.375000      0.489000
O          13.258000     16.045000      0.272000
C          13.716000     15.905000     -0.818000
C          13.029000     15.122000     -1.852000
H          12.628000     15.732000     -2.671000
H          12.074000     14.746000     -1.463000
C          13.886000     13.966000     -2.362000
H          13.391000     13.437000     -3.187000
H          14.849000     14.295000     -2.773000
C          14.028000     12.921000     -1.244000
H          14.310000     13.435000     -0.317000
H          13.030000     12.481000     -1.127000
C          15.103000     11.876000     -1.647000
C          16.598000     12.275000     -1.364000
C          17.359000     13.044000     -2.324000
H          17.035000     13.342000     -3.316000
C          18.665000     13.490000     -2.029000
H          19.202000     13.920000     -2.870000
C          19.163000     13.215000     -0.760000
H          20.129000     13.640000     -0.503000
C          18.502000     12.387000      0.125000
H          18.932000     12.191000      1.103000
C          17.233000     11.939000     -0.147000
H          16.726000     11.337000      0.602000
C          16.722000      8.649000     -5.750000
C          17.423000      7.372000     -3.796000
C          14.231000      4.201000     -4.185000
C          11.882000      9.907000     -5.546000
C          12.099000      5.618000     -1.781000
C          17.264000      8.647000     -4.393000
C          10.532000      7.789000     -4.128000
C          15.602000      5.338000     -5.900000
C          14.970000      8.248000     -0.697000
C          11.520000     10.037000     -4.158000
C          14.732000     10.409000     -1.635000
C          13.617000      8.554000     -0.644000
C          11.368000      8.955000     -2.194000
C          10.678000      6.545000     -3.477000
C          16.700000      8.888000     -2.197000
C          12.081000      4.718000     -4.074000
C          14.855000     11.082000     -2.912000
C          13.606000     11.158000     -3.755000
C          12.546000      4.775000     -2.773000
C          12.885000      7.054000     -7.278000
C          13.166000      5.121000     -6.224000
C          14.412000      5.567000     -6.691000
C          16.537000      6.303000     -5.832000
C          14.042000     10.894000     -5.075000
C          15.641000      9.283000     -1.367000
C          17.133000      6.196000     -4.519000
C          10.880000      9.001000     -3.514000
C          17.024000      7.544000     -2.417000
C          12.611000      7.527000     -0.695000
C          13.550000      9.391000     -7.039000
C          15.489000      4.609000     -4.684000
C          13.412000      9.770000     -1.205000
C          15.257000      7.741000     -7.236000
C          11.473000      7.731000     -1.499000
C          15.361000      6.881000     -0.850000
C          11.178000      6.361000     -5.678000
C          10.812000      7.702000     -5.544000
C          14.349000      5.815000     -0.938000
C          13.148000     10.284000     -5.993000
C          12.392000     10.604000     -3.294000
C          12.561000      8.369000     -7.021000
C          15.919000     10.559000     -3.837000
C          16.048000      5.346000     -2.419000
C          12.303000      9.899000     -2.063000
C          13.023000      6.211000     -0.887000
C          14.894000      9.075000     -7.052000
C          13.884000      4.325000     -2.810000
C          16.419000      7.521000     -6.488000
C          13.096000      4.471000     -4.951000
C          16.417000      6.497000     -1.717000
C          14.807000      4.888000     -1.930000
C          16.818000      9.566000     -3.451000
C          15.403000     10.603000     -5.119000
C          12.176000      6.037000     -6.617000
C          16.415000      5.105000     -3.788000
C          11.133000      6.513000     -2.151000
C          11.525000      8.723000     -6.215000
C          11.081000      5.658000     -4.464000
C          15.828000      9.671000     -6.081000
C          14.260000      6.802000     -7.341000
O          16.382000      0.203000     -7.871000
C          15.808000      1.414000     -7.462000
H          16.523000      2.194000     -7.174000
H          15.080000      1.224000     -6.663000
H          15.230000      1.801000     -8.310000
O          17.043000      0.909000     -9.935000
C          17.015000      0.046000     -9.041000
C          17.694000     -1.320000     -9.090000
H          17.834000     -1.724000    -10.100000
H          16.968000     -1.927000     -8.535000
C          19.052000     -1.242000     -8.320000
H          18.877000     -0.603000     -7.445000
H          19.235000     -2.257000     -7.948000
C          20.245000     -0.739000     -9.131000
H          20.426000     -1.498000     -9.901000
H          19.842000      0.122000     -9.678000
C          21.416000     -0.348000     -8.206000
C          22.261000     -1.506000     -7.683000
C          21.913000     -2.195000     -6.533000
H          21.031000     -1.884000     -5.982000
C          22.725000     -3.269000     -6.036000
H          22.343000     -3.920000     -5.255000
C          23.836000     -3.659000     -6.721000
H          24.298000     -4.610000     -6.472000
C          24.153000     -3.071000     -7.997000
H          24.922000     -3.524000     -8.614000
C          23.366000     -1.964000     -8.430000
H          23.568000     -1.338000     -9.294000
C          23.300000      2.994000     -4.308000
C          25.225000      2.769000     -5.764000
C          25.310000      6.944000     -7.472000
C          19.344000      4.663000     -7.005000
C          23.660000      5.988000    -10.482000
C          24.022000      2.261000     -5.227000
C          20.334000      6.178000     -9.073000
C          24.854000      6.133000     -5.190000
C          24.188000      2.058000     -9.509000
C          19.428000      4.075000     -8.269000
C          22.223000      0.963000     -8.644000
C          23.016000      2.545000    -10.185000
C          20.734000      4.023000    -10.149000
C          21.492000      6.704000     -9.723000
C          24.222000      1.406000     -7.257000
C          23.487000      7.692000     -8.693000
C          21.345000      0.986000     -7.398000
C          20.195000      1.992000     -7.346000
C          24.305000      6.832000     -9.523000
C          21.484000      6.912000     -5.297000
C          23.345000      7.681000     -6.276000
C          23.725000      6.897000     -5.154000
C          24.864000      4.855000     -4.677000
C          20.164000      2.625000     -6.067000
C          23.701000      1.145000     -8.510000
C          25.586000      4.088000     -5.507000
C          20.001000      4.852000     -9.320000
C          25.364000      2.219000     -7.070000
C          23.056000      3.837000    -10.762000
C          20.330000      4.728000     -4.942000
C          25.665000      6.152000     -6.326000
C          21.856000      1.975000     -9.706000
C          22.541000      5.092000     -3.986000
C          21.883000      4.598000    -10.799000
C          25.292000      2.939000     -9.322000
C          21.287000      7.605000     -7.661000
C          20.216000      6.758000     -7.853000
C          25.273000      4.231000     -9.836000
C          19.709000      3.887000     -5.874000
C          19.949000      2.823000     -8.414000
C          20.306000      6.068000     -5.462000
C          21.992000      1.207000     -6.079000
C          26.371000      4.277000     -7.849000
C          20.754000      2.786000     -9.594000
C          24.199000      4.696000    -10.612000
C          21.412000      4.273000     -4.165000
C          25.361000      6.338000     -8.723000
C          23.685000      4.302000     -4.082000
C          24.144000      7.764000     -7.434000
C          25.897000      2.963000     -8.098000
C          25.978000      5.067000     -8.931000
C          23.423000      1.394000     -6.095000
C          21.234000      2.089000     -5.271000
C          21.936000      7.672000     -6.349000
C          26.175000      4.817000     -6.527000
C          22.280000      5.905000    -10.508000
C          19.735000      5.994000     -6.723000
C          22.102000      7.571000     -8.770000
C          21.928000      2.975000     -4.381000
C          22.556000      6.381000     -4.592000
$end

--------------------------------------------------------------

             Standard Nuclear Orientation (Angstroms)
    I     Atom           X                Y                Z
 ----------------------------------------------------------------
    1      O     -10.2315229109    -5.2382205444     0.6198012269
    2      C     -10.1603408132    -6.3186870372    -0.3894833053
    3      H      -9.5538169056    -7.1217112780     0.0478298756
    4      H      -9.5901477575    -5.9954861454    -1.2690144661
    5      H     -11.1400126234    -6.6295908223    -0.7735236426
    6      O     -11.7981571705    -4.0335648706    -0.6126385502
    7      C     -10.9717063950    -4.1233272676     0.2396441657
    8      C     -10.5426498224    -2.9618621893     1.0277579451
    9      H     -10.8707621714    -2.9955852377     2.0741168904
   10      H     -11.1085990849    -2.0727718018     0.7212588177
   11      C      -9.0428687098    -2.7049204706     0.9031683493
   12      H      -8.7240859723    -1.8822560970     1.5566910304
   13      H      -8.4336158662    -3.5643437386     1.2109566189
   14      C      -8.7374086218    -2.2239965386    -0.5242486558
   15      H      -9.2312358075    -2.8979913352    -1.2348221740
   16      H      -9.1855323871    -1.2254935605    -0.5982073841
   17      C      -7.2012124957    -2.2123157061    -0.7479091580
   18      C      -6.5487127765    -3.5861254614    -1.1494136697
   19      C      -6.1335166639    -4.5371257925    -0.1417964019
   20      H      -6.1473732148    -4.3874504673     0.9330288364
   21      C      -5.6429107402    -5.8108153495    -0.5004016724
   22      H      -5.2154572171    -6.3830900049     0.3183383378
   23      C      -5.6346763266    -6.1351565128    -1.8527052642
   24      H      -5.3462108061    -7.1480608319    -2.1184918025
   25      C      -5.9159507054    -5.2047683461    -2.8330075558
   26      H      -5.8882397647    -5.4985753420    -3.8783350417
   27      C      -6.3893256109    -3.9588868349    -2.5032433081
   28      H      -6.6532909838    -3.2770972215    -3.3069467391
   29      C      -2.4826463773    -0.6055874658     1.4932640054
   30      C      -1.9838300796    -0.4670923587    -0.8883840388
   31      C      -2.0198998294     4.0450304583    -1.0751262603
   32      C      -6.6216308559     1.9337808816     2.7057803486
   33      C      -5.2911392817     4.2720093706    -2.3321075724
   34      C      -2.6490257036    -1.1614317863     0.1521555045
   35      C      -6.7772332400     4.1791405225     0.9020908018
   36      C      -1.1231603399     2.5019392718     0.6361197414
   37      C      -5.4097761053     0.2742198565    -2.9136583483
   38      C      -7.4942609977     1.9244487620     1.5599542068
   39      C      -6.5449931678    -0.9343585705    -1.2233833981
   40      C      -6.5368301393     1.0162305380    -2.5877391050
   41      C      -7.6980684372     2.5322775170    -0.5941420613
   42      C      -6.1613831614     4.8543795933    -0.1737502078
   43      C      -4.0456927773    -1.2068613480    -1.6494688293
   44      C      -3.8405234813     5.1994331351    -0.5703550470
   45      C      -6.3771395759    -1.3255933248     0.1613720094
   46      C      -6.9378471110    -0.3843017482     1.1986777637
   47      C      -4.0736525144     4.6645118958    -1.8239838285
   48      C      -3.4865594365     3.4176531549     3.0447379749
   49      C      -2.5096840585     4.4230488397     1.3239067766
   50      C      -1.7595373514     3.2887635081     1.6706021823
   51      C      -1.1169731958     1.1610472365     0.7458661260
   52      C      -5.9585942873    -0.3433413631     2.2192551269
   53      C      -5.3351233326    -0.8339516246    -2.0553175465
   54      C      -1.1641818003     0.6451743940    -0.6040525967
   55      C      -7.5370647267     3.0146046142     0.7189072053
   56      C      -2.9040756904    -0.4780993034    -2.0034862148
   57      C      -6.5592296203     2.4483174319    -2.7218710979
   58      C      -4.5835409763     1.2964887460     3.5528797386
   59      C      -1.2253983168     2.9326089784    -0.7155225929
   60      C      -7.2106636542     0.3908434859    -1.5926303525
   61      C      -2.3244981733     1.2522841722     2.7979429400
   62      C      -7.1397404517     3.2171863712    -1.6947762976
   63      C      -4.2348946383     0.9628278788    -3.3500658759
   64      C      -4.8415111913     4.9064080861     1.6656757947
   65      C      -5.9758191355     4.2204706326     2.1050256526
   66      C      -4.2225332626     2.4308871079    -3.4636145276
   67      C      -5.8229228797     0.8305440665     3.0051598713
   68      C      -7.5968194510     0.8028263407     0.8117470779
   69      C      -4.6247205795     2.7042764140     3.3544682417
   70      C      -4.9673197873    -1.6013308139     0.6059245943
   71      C      -2.1974065391     1.7375067214    -2.6162607682
   72      C      -7.7036409151     1.1979269612    -0.5494258261
   73      C      -5.3864785268     3.0916460204    -3.1081963494
   74      C      -3.4721184638     0.5627130339     3.1886350362
   75      C      -2.8735243398     4.0308548927    -2.2142198686
   76      C      -1.6957335974     0.4845701063     1.8113233471
   77      C      -2.6543833679     4.7612296994    -0.0590700185
   78      C      -2.9397595196     0.5891299279    -2.9059309124
   79      C      -2.9453735248     2.8737583623    -2.9883408630
   80      C      -3.8933925834    -1.6009307979    -0.2828533312
   81      C      -4.8389959195    -1.1025648159     1.8890775330
   82      C      -3.5945827961     4.5414824641     2.2085384547
   83      C      -1.2598623623     1.8177545461    -1.5292914939
   84      C      -6.3557943249     4.3850250184    -1.4807450748
   85      C      -5.8636358350     3.0923011004     2.9510158497
   86      C      -4.9482953583     5.3079634189     0.3222605735
   87      C      -3.5928843142    -0.6366103486     2.3416096332
   88      C      -2.3742473933     2.6238911116     2.7434047087
   89      O       3.3739119305     5.7550454868     0.4013710482
   90      C       2.0712986466     5.2719001083     0.5831598707
   91      H       1.9569178081     4.1874011163     0.4676264983
   92      H       1.3818720090     5.8189014903    -0.0725575985
   93      H       1.7734369327     5.5219897155     1.6086795378
   94      O       4.1954570434     5.0589318125     2.4103365481
   95      C       4.3609125715     5.5629636524     1.2863412756
   96      C       5.6891695636     6.0331761944     0.6997992667
   97      H       6.4329754297     6.3418918412     1.4443551632
   98      H       5.3564774625     6.8985723718     0.1133221382
   99      C       6.2566723064     4.9171023285    -0.2358650763
  100      H       5.3962408897     4.4876248697    -0.7648054222
  101      H       6.8650910459     5.4429057522    -0.9811538774
  102      C       7.0710054026     3.8246709271     0.4551010890
  103      H       7.9687473758     4.3196623818     0.8434112863
  104      H       6.4783384711     3.5839691428     1.3460262033
  105      C       7.2562556361     2.6048969625    -0.4709555110
  106      C       8.3422493285     2.7405155089    -1.5343196584
  107      C       8.0820545748     3.3187243011    -2.7657002993
  108      H       7.0745723815     3.6595796015    -2.9825949608
  109      C       9.1037238522     3.4228979159    -3.7682813412
  110      H       8.9422385132     4.0458053946    -4.6432640600
  111      C      10.3681307548     2.9911828376    -3.5026814994
  112      H      11.1740797891     3.2901840807    -4.1666772905
  113      C      10.7197683656     2.5209453567    -2.1875249679
  114      H      11.7650398747     2.3670592850    -1.9405724437
  115      C       9.6692953550     2.3680343414    -1.2359832319
  116      H       9.7571663361     1.9007930405    -0.2596942084
  117      C       4.9183222197    -1.5427033274    -3.1624798329
  118      C       6.9348882474    -2.5687248928    -2.2924641988
  119      C       5.0694469026    -5.3037419322     0.7726498910
  120      C       2.2649600073     0.4528620904     0.6698423917
  121      C       5.7325181182    -3.0876641177     3.4829767500
  122      C       6.2248252055    -1.4309220227    -2.7338904162
  123      C       2.8078094134    -1.0366667118     2.9145177513
  124      C       4.3660890757    -4.7081561792    -1.5129017663
  125      C       8.1501299712    -0.8642178810     1.0577236168
  126      C       3.1853097696     0.9610472413     1.5891900775
  127      C       7.1599867094     1.1795276877     0.2507568446
  128      C       7.3202289480    -0.2834766585     2.0783768018
  129      C       4.8422947192     0.3085816366     3.0284362384
  130      C       3.5207296439    -2.1406296742     3.4741162883
  131      C       7.6914413617    -0.7228646699    -1.2373554732
  132      C       3.8512516722    -4.3723016739     2.5110668219
  133      C       6.0605080556     1.6287237456    -0.7049097246
  134      C       4.6360499720     1.7418974037    -0.1614477745
  135      C       5.2666461233    -4.2520289807     2.7935858957
  136      C       1.6425526237    -2.8412762050    -0.4773833662
  137      C       2.8098861935    -4.5709050853     0.3343057820
  138      C       3.1126115159    -4.4402493758    -1.0474418305
  139      C       4.9653715781    -3.8952721245    -2.4491885792
  140      C       3.7176918788     1.1630072651    -1.0882679406
  141      C       7.9945888087    -0.0129868132    -0.0911678559
  142      C       6.2579559855    -3.7712483767    -2.1140518016
  143      C       3.5041096027     0.1495535930     2.7190147211
  144      C       7.8853885780    -2.1205754552    -1.3316477735
  145      C       6.7713000518    -1.1334288136     3.0683522565
  146      C       2.0793936296    -0.5543319506    -1.3755219483
  147      C       5.3507684327    -5.1528432704    -0.6290251036
  148      C       6.7006698516     0.8741044402     1.6587418104
  149      C       2.9732555208    -2.4977835504    -2.5412662592
  150      C       5.5186569101    -0.8229288186     3.6076980759
  151      C       8.2760742589    -2.2820446154     0.9956640684
  152      C       2.0095234379    -2.8810620191     1.9662417095
  153      C       1.8867490156    -1.5095800731     2.0388895789
  154      C       7.6623886414    -3.0981078131     1.9397254119
  155      C       2.5490118455     0.5874841746    -0.7142650635
  156      C       4.3735439565     1.4766839487     1.1623548600
  157      C       1.4348429963    -1.3993279659    -0.4074763836
  158      C       5.8415290231     0.8487009895    -1.9502304396
  159      C       7.5943916626    -4.1620118005    -0.0651121667
  160      C       5.4063111658     1.0806328013     2.0669704579
  161      C       6.9518986453    -2.5590092932     3.0243699395
  162      C       2.7886879437    -1.1061639038    -2.4589706417
  163      C       5.9735276389    -4.7613100292     1.6799776447
  164      C       4.2766872748    -2.7507108987    -2.9645219963
  165      C       3.7553164745    -5.0486038822     1.2639398192
  166      C       8.1885677483    -2.8837333147    -0.2270747916
  167      C       7.2633790959    -4.2926741301     1.2849363644
  168      C       6.7002916715    -0.2948492549    -2.1446669391
  169      C       4.4617396518     0.6733834013    -2.2163075602
  170      C       1.8904041499    -3.5549538175     0.6705895805
  171      C       6.6052196554    -4.5647955458    -1.0331018333
  172      C       4.8601631494    -2.0470216236     3.7437927927
  173      C       1.5910278383    -0.7824497692     0.8240696308
  174      C       3.0192274926    -3.2953109790     2.8053826519
  175      C       4.0301050351    -0.5460973911    -2.8370250117
  176      C       2.4206912629    -3.3242228559    -1.5211423377
 ----------------------------------------------------------------

    9   -5804.2735708218      7.74E-06 Convergence criterion met
 Total energy in the final basis set = -5804.2735708218

                    Orbital Energies (a.u.)
 --------------------------------------------------------------

 Alpha MOs
 -- Occupied --
-19.195 -19.192 -19.144 -19.130 -10.317 -10.315 -10.247 -10.246
-10.244 -10.243 -10.242 -10.238 -10.237 -10.235 -10.231 -10.228
-10.227 -10.225 -10.224 -10.224 -10.224 -10.223 -10.223 -10.223
-10.223 -10.223 -10.222 -10.222 -10.221 -10.221 -10.221 -10.221
-10.221 -10.220 -10.220 -10.220 -10.220 -10.220 -10.220 -10.220
-10.219 -10.219 -10.219 -10.219 -10.218 -10.218 -10.218 -10.218
-10.217 -10.217 -10.217 -10.217 -10.217 -10.217 -10.217 -10.217
-10.217 -10.217 -10.216 -10.216 -10.216 -10.216 -10.216 -10.216
-10.216 -10.216 -10.216 -10.216 -10.216 -10.216 -10.215 -10.215
-10.215 -10.215 -10.215 -10.215 -10.215 -10.214 -10.214 -10.214
-10.214 -10.214 -10.214 -10.214 -10.214 -10.214 -10.213 -10.213
-10.213 -10.213 -10.213 -10.213 -10.213 -10.213 -10.213 -10.213
-10.213 -10.213 -10.213 -10.213 -10.212 -10.212 -10.212 -10.212
-10.212 -10.212 -10.212 -10.211 -10.211 -10.211 -10.210 -10.210
-10.209 -10.209 -10.209 -10.208 -10.208 -10.208 -10.208 -10.207
-10.207 -10.207 -10.207 -10.207 -10.207 -10.207 -10.207 -10.206
-10.205 -10.205 -10.205 -10.205 -10.204 -10.204 -10.203 -10.203
-10.202 -10.202 -10.202 -10.202 -10.200 -10.200 -10.199 -10.198
-10.198 -10.198 -10.195 -10.193  -1.103  -1.091  -1.021  -0.999
 -0.986  -0.981  -0.970  -0.966  -0.965  -0.961  -0.959  -0.958
 -0.937  -0.929  -0.928  -0.927  -0.926  -0.925  -0.924  -0.923
 -0.922  -0.916  -0.898  -0.895  -0.891  -0.890  -0.887  -0.881
 -0.877  -0.867  -0.860  -0.848  -0.845  -0.841  -0.841  -0.838
 -0.837  -0.836  -0.823  -0.818  -0.812  -0.805  -0.799  -0.798
 -0.797  -0.796  -0.795  -0.795  -0.792  -0.790  -0.786  -0.784
 -0.774  -0.769  -0.768  -0.766  -0.766  -0.765  -0.764  -0.762
 -0.758  -0.751  -0.743  -0.741  -0.732  -0.732  -0.721  -0.717
 -0.715  -0.715  -0.713  -0.712  -0.711  -0.711  -0.710  -0.708
 -0.706  -0.705  -0.705  -0.702  -0.702  -0.701  -0.675  -0.669
 -0.661  -0.658  -0.658  -0.655  -0.648  -0.644  -0.635  -0.630
 -0.629  -0.626  -0.626  -0.623  -0.621  -0.618  -0.618  -0.616
 -0.616  -0.614  -0.613  -0.612  -0.611  -0.611  -0.610  -0.608
 -0.608  -0.604  -0.604  -0.601  -0.571  -0.570  -0.566  -0.562
 -0.562  -0.561  -0.559  -0.559  -0.556  -0.555  -0.555  -0.552
 -0.537  -0.535  -0.533  -0.532  -0.531  -0.528  -0.526  -0.524
 -0.524  -0.521  -0.521  -0.517  -0.517  -0.514  -0.514  -0.513
 -0.511  -0.506  -0.505  -0.502  -0.492  -0.491  -0.489  -0.487
 -0.485  -0.484  -0.483  -0.481  -0.479  -0.479  -0.477  -0.474
 -0.474  -0.474  -0.472  -0.471  -0.469  -0.468  -0.466  -0.466
 -0.465  -0.463  -0.462  -0.462  -0.461  -0.460  -0.459  -0.458
 -0.456  -0.454  -0.452  -0.450  -0.449  -0.448  -0.446  -0.445
 -0.443  -0.441  -0.440  -0.438  -0.436  -0.436  -0.434  -0.433
 -0.430  -0.430  -0.428  -0.427  -0.427  -0.426  -0.425  -0.425
 -0.425  -0.423  -0.422  -0.421  -0.420  -0.419  -0.419  -0.418
 -0.417  -0.416  -0.416  -0.416  -0.415  -0.413  -0.413  -0.413
 -0.412  -0.411  -0.410  -0.407  -0.402  -0.402  -0.397  -0.395
 -0.394  -0.393  -0.392  -0.392  -0.391  -0.389  -0.387  -0.383
 -0.380  -0.376  -0.374  -0.373  -0.372  -0.370  -0.367  -0.365
 -0.364  -0.363  -0.362  -0.361  -0.361  -0.360  -0.360  -0.359
 -0.358  -0.357  -0.357  -0.357  -0.356  -0.354  -0.354  -0.353
 -0.351  -0.349  -0.349  -0.348  -0.347  -0.346  -0.345  -0.344
 -0.343  -0.342  -0.339  -0.338  -0.338  -0.337  -0.336  -0.335
 -0.334  -0.333  -0.331  -0.330  -0.328  -0.328  -0.326  -0.325
 -0.306  -0.302  -0.302  -0.296  -0.290  -0.284  -0.275  -0.274
 -0.272  -0.271  -0.269  -0.266  -0.266  -0.265  -0.263  -0.263
 -0.262  -0.261  -0.260  -0.259  -0.259  -0.257  -0.256  -0.253
 -0.251  -0.249  -0.249  -0.242  -0.222  -0.217  -0.215  -0.213
 -0.212  -0.210  -0.208  -0.206  -0.201  -0.199

          Ground-State Mulliken Net Atomic Charges

     Atom                 Charge (a.u.)
  ----------------------------------------
      1 O                    -0.481719
      2 C                    -0.099348
      3 H                     0.126683
      4 H                     0.128531
      5 H                     0.139383
      6 O                    -0.450508
      7 C                     0.614970
      8 C                    -0.261951
      9 H                     0.126238
     10 H                     0.124745
     11 C                    -0.189051
     12 H                     0.104077
     13 H                     0.122711
     14 C                    -0.192127
     15 H                     0.121689
     16 H                     0.114515
     17 C                     0.011038
     18 C                     0.072360
     19 C                    -0.112008
     20 H                     0.093670
     21 C                    -0.088420
     22 H                     0.099949
     23 C                    -0.090474
     24 H                     0.086996
     25 C                    -0.078092
     26 H                     0.093170
     27 C                    -0.106665
     28 H                     0.095484
     29 C                     0.013338
     30 C                     0.007926
     31 C                    -0.014146
     32 C                    -0.019155
     33 C                     0.006533
     34 C                    -0.013936
     35 C                    -0.020438
     36 C                     0.007902
     37 C                     0.013762
     38 C                    -0.001352
     39 C                    -0.089662
     40 C                     0.009449
     41 C                    -0.006005
     42 C                     0.037146
     43 C                    -0.003790
     44 C                    -0.016195
     45 C                    -0.083620
     46 C                     0.007753
     47 C                     0.039291
     48 C                    -0.006819
     49 C                     0.005736
     50 C                    -0.030644
     51 C                     0.029597
     52 C                     0.006804
     53 C                     0.041296
     54 C                    -0.037070
     55 C                    -0.003793
     56 C                     0.005618
     57 C                     0.001603
     58 C                    -0.029139
     59 C                    -0.001074
     60 C                     0.013480
     61 C                     0.016955
     62 C                    -0.021367
     63 C                    -0.031933
     64 C                     0.023536
     65 C                    -0.020233
     66 C                    -0.014375
     67 C                     0.004135
     68 C                     0.010899
     69 C                     0.022861
     70 C                     0.062367
     71 C                     0.037348
     72 C                     0.016375
     73 C                     0.014712
     74 C                    -0.016207
     75 C                    -0.027787
     76 C                    -0.000325
     77 C                     0.017151
     78 C                    -0.014273
     79 C                    -0.005629
     80 C                     0.004073
     81 C                    -0.005704
     82 C                    -0.023169
     83 C                    -0.031067
     84 C                    -0.009550
     85 C                     0.014886
     86 C                    -0.024034
     87 C                    -0.015377
     88 C                     0.026686
     89 O                    -0.436442
     90 C                    -0.092659
     91 H                     0.128157
     92 H                     0.124593
     93 H                     0.130220
     94 O                    -0.492422
     95 C                     0.580205
     96 C                    -0.238037
     97 H                     0.123512
     98 H                     0.125103
     99 C                    -0.200739
    100 H                     0.114531
    101 H                     0.108843
    102 C                    -0.182608
    103 H                     0.113377
    104 H                     0.128092
    105 C                     0.002722
    106 C                     0.113075
    107 C                    -0.121762
    108 H                     0.089348
    109 C                    -0.087066
    110 H                     0.094224
    111 C                    -0.086067
    112 H                     0.090677
    113 C                    -0.101053
    114 H                     0.098528
    115 C                    -0.105692
    116 H                     0.093755
    117 C                     0.010713
    118 C                    -0.015213
    119 C                    -0.012629
    120 C                    -0.013294
    121 C                    -0.019101
    122 C                    -0.008950
    123 C                     0.020981
    124 C                     0.008033
    125 C                    -0.026066
    126 C                    -0.016893
    127 C                    -0.104429
    128 C                     0.019523
    129 C                    -0.000621
    130 C                    -0.031787
    131 C                     0.020324
    132 C                    -0.010799
    133 C                    -0.069169
    134 C                     0.003774
    135 C                    -0.017926
    136 C                    -0.013740
    137 C                     0.005251
    138 C                    -0.002205
    139 C                     0.012760
    140 C                     0.007628
    141 C                    -0.015467
    142 C                     0.025239
    143 C                    -0.011780
    144 C                     0.005653
    145 C                    -0.012632
    146 C                     0.009217
    147 C                    -0.021394
    148 C                     0.037337
    149 C                    -0.004897
    150 C                    -0.034863
    151 C                     0.016800
    152 C                    -0.011144
    153 C                    -0.000675
    154 C                     0.008982
    155 C                     0.006264
    156 C                     0.039011
    157 C                    -0.013319
    158 C                     0.005209
    159 C                    -0.022603
    160 C                     0.031993
    161 C                    -0.006724
    162 C                    -0.014021
    163 C                     0.043955
    164 C                    -0.013365
    165 C                    -0.027116
    166 C                     0.004096
    167 C                    -0.014697
    168 C                     0.038452
    169 C                    -0.002975
    170 C                    -0.000843
    171 C                    -0.004453
    172 C                     0.048907
    173 C                     0.012720
    174 C                     0.022373
    175 C                    -0.007619
    176 C                     0.016605
  ----------------------------------------
  Sum of atomic charges =     0.000000

                    Cartesian Multipole Moments
 -----------------------------------------------------------------
    Charge (ESU x 10^10)
                 0.0000
    Dipole Moment (Debye)
         X       0.7076      Y      -0.1818      Z      -2.4336
       Tot       2.5409
    Quadrupole Moments (Debye-Ang)
        XX    -809.5891     XY      32.9078     YY    -781.2433
        XZ     -19.3336     YZ      -7.7569     ZZ    -811.8186

 Total job time:  852.84s(wall), 8140.23s(cpu)
        *  Thank you very much for using Q-Chem.  Have a nice day.  *
