 Q-Chem 4.4, Q-Chem, Inc., Pleasanton, CA (2016)
 Q-Chem 4.4.2 for Intel X86 Linux

User input:
--------------------------------------------------------------
$comment
SP
$end

$rem
MEM_STATIC 5000
MEM_TOTAL 20000
JOBTYPE SP
EXCHANGE B3LYP
BASIS 6-31g(d,p)
$end

$molecule
0 1
O           8.710000    -14.683000     -2.111000
C           7.300000    -14.622000     -2.575000
H           6.953000    -13.653000     -2.956000
H           6.748000    -14.946000     -1.684000
H           7.221000    -15.386000     -3.357000
O           9.452000    -13.278000     -3.684000
C           9.629000    -13.912000     -2.667000
C          10.955000    -13.730000     -1.772000
H          11.095000    -14.468000     -0.972000
H          10.576000    -12.926000     -1.128000
C          12.244000    -13.365000     -2.576000
H          12.657000    -14.148000     -3.224000
H          12.005000    -12.531000     -3.247000
C          13.264000    -12.762000     -1.520000
H          12.862000    -11.899000     -0.975000
H          13.373000    -13.487000     -0.704000
C          14.626000    -12.533000     -2.187000
C          14.434000    -11.688000     -3.437000
C          14.439000    -10.322000     -3.228000
H          14.450000     -9.873000     -2.239000
C          14.428000     -9.474000     -4.318000
H          14.628000     -8.428000     -4.105000
C          14.310000     -9.934000     -5.661000
H          14.334000     -9.246000     -6.502000
C          14.208000    -11.315000     -5.840000
H          13.835000    -11.722000     -6.776000
C          14.342000    -12.222000     -4.763000
H          14.184000    -13.282000     -4.942000
C          19.637000    -14.446000     -3.535000
C          20.051000    -12.146000     -3.014000
C          22.103000    -13.014000      1.031000
C          17.227000    -16.792000      0.194000
C          19.245000    -12.456000      3.026000
C          19.236000    -13.143000     -3.525000
C          17.890000    -15.769000      2.699000
C          22.357000    -14.130000     -1.199000
C          17.321000    -10.879000     -0.232000
C          16.337000    -15.884000      0.799000
C          15.795000    -12.409000     -1.286000
C          16.565000    -11.523000      0.819000
C          16.332000    -14.041000      2.037000
C          18.738000    -14.805000      3.266000
C          17.870000    -11.655000     -2.493000
C          20.953000    -14.140000      2.649000
C          15.768000    -13.632000     -2.108000
C          15.702000    -14.934000     -1.402000
C          20.569000    -12.813000      2.672000
C          20.624000    -17.037000     -0.129000
C          21.892000    -15.462000      0.864000
C          22.108000    -15.388000     -0.543000
C          21.717000    -13.858000     -2.403000
C          16.713000    -15.804000     -1.949000
C          16.925000    -11.457000     -1.456000
C          21.282000    -12.517000     -2.439000
C          16.673000    -15.338000      2.084000
C          19.217000    -11.198000     -2.359000
C          17.231000    -11.811000      2.062000
C          18.687000    -17.213000     -1.452000
C          22.325000    -12.949000     -0.390000
C          15.785000    -12.468000      0.259000
C          20.694000    -16.075000     -2.335000
C          17.069000    -13.077000      2.690000
C          18.637000    -10.556000     -0.024000
C          20.074000    -16.341000      2.243000
C          18.704000    -16.737000      2.035000
C          19.258000    -10.828000      1.206000
C          17.325000    -16.831000     -1.183000
C          15.712000    -14.926000      0.018000
C          19.331000    -17.487000     -0.241000
C          16.933000    -13.846000     -3.025000
C          20.818000    -11.089000     -0.515000
C          15.685000    -13.754000      0.816000
C          18.564000    -11.437000      2.282000
C          19.358000    -16.479000     -2.488000
C          21.239000    -12.178000      1.605000
C          20.839000    -14.876000     -2.980000
C          21.908000    -14.290000      1.640000
C          19.619000    -10.654000     -1.104000
C          20.545000    -11.167000      0.894000
C          17.887000    -12.852000     -3.232000
C          17.405000    -15.160000     -2.914000
C          20.980000    -16.486000      1.114000
C          21.728000    -11.958000     -1.214000
C          18.306000    -13.451000      3.248000
C          18.419000    -17.258000      0.770000
C          20.037000    -15.156000      2.958000
C          18.730000    -15.454000     -3.215000
C          21.297000    -16.330000     -1.109000
O          21.005000    -16.034000      6.906000
C          20.363000    -14.831000      7.367000
H          21.091000    -14.315000      8.006000
H          19.465000    -15.005000      7.973000
H          20.206000    -14.161000      6.513000
O          22.824000    -15.015000      5.948000
C          22.179000    -16.025000      6.132000
C          22.751000    -17.364000      5.868000
H          22.591000    -18.042000      6.715000
H          23.804000    -17.259000      5.581000
C          22.034000    -18.190000      4.795000
H          21.059000    -18.404000      5.249000
H          21.993000    -17.596000      3.874000
C          22.809000    -19.430000      4.485000
H          23.762000    -19.139000      4.025000
H          22.973000    -20.037000      5.384000
C          21.953000    -20.364000      3.609000
C          20.601000    -20.700000      4.129000
C          19.419000    -19.929000      3.826000
H          19.558000    -19.080000      3.164000
C          18.136000    -20.359000      4.164000
H          17.210000    -19.840000      3.936000
C          18.069000    -21.458000      5.031000
H          17.052000    -21.719000      5.309000
C          19.235000    -22.167000      5.535000
H          19.136000    -23.005000      6.217000
C          20.470000    -21.782000      5.033000
H          21.395000    -22.317000      5.225000
C          22.261000    -25.260000      0.902000
C          20.776000    -24.001000     -0.432000
C          23.717000    -23.334000     -3.899000
C          26.557000    -22.696000      1.702000
C          24.585000    -20.156000     -2.889000
C          21.275000    -24.345000      0.750000
C          27.282000    -21.125000     -0.584000
C          23.294000    -25.369000     -2.547000
C          21.560000    -20.127000     -0.312000
C          26.345000    -21.345000      1.722000
C          22.142000    -20.302000      2.043000
C          22.736000    -19.434000     -0.107000
C          25.523000    -19.737000      0.375000
C          26.740000    -20.800000     -1.864000
C          20.764000    -22.046000      0.774000
C          25.713000    -22.158000     -3.601000
C          22.705000    -21.478000      2.927000
C          24.194000    -21.740000      2.912000
C          24.634000    -21.312000     -3.750000
C          26.354000    -25.167000     -0.769000
C          25.569000    -24.501000     -2.800000
C          24.657000    -25.422000     -2.248000
C          22.398000    -25.551000     -1.543000
C          24.445000    -23.120000      2.868000
C          21.184000    -20.731000      0.953000
C          21.294000    -24.632000     -1.617000
C          26.616000    -20.604000      0.537000
C          20.402000    -22.671000     -0.468000
C          23.696000    -19.211000     -1.125000
C          25.668000    -24.786000      1.498000
C          22.803000    -24.307000     -3.327000
C          23.197000    -19.619000      1.234000
C          24.235000    -26.029000      0.065000
C          25.084000    -19.358000     -0.901000
C          21.212000    -20.660000     -1.576000
C          27.153000    -23.071000     -1.830000
C          27.501000    -22.528000     -0.540000
C          22.154000    -20.429000     -2.612000
C          25.656000    -23.642000      2.290000
C          25.140000    -20.869000      2.279000
C          26.595000    -24.622000      0.462000
C          22.187000    -22.924000      2.607000
C          21.371000    -22.550000     -2.800000
C          24.636000    -19.853000      1.448000
C          23.388000    -19.728000     -2.371000
C          24.477000    -25.432000      1.313000
C          23.447000    -22.007000     -3.987000
C          22.865000    -25.875000     -0.240000
C          25.157000    -23.438000     -3.646000
C          20.676000    -21.974000     -1.665000
C          22.218000    -21.622000     -3.391000
C          21.275000    -23.139000      1.543000
C          23.286000    -23.827000      2.728000
C          26.641000    -24.373000     -1.885000
C          21.600000    -23.885000     -2.749000
C          25.615000    -19.961000     -2.007000
C          27.136000    -23.339000      0.600000
C          26.672000    -21.984000     -2.579000
C          23.281000    -24.986000      1.859000
C          25.124000    -25.858000     -0.990000
$end

--------------------------------------------------------------

             Standard Nuclear Orientation (Angstroms)
    I     Atom           X                Y                Z
 ----------------------------------------------------------------
    1      O      10.0010293260     4.1112834186     5.6668150395
    2      C      11.0065523905     4.9103289238     6.4135188946
    3      H      12.0057849131     4.9796579635     5.9649000698
    4      H      11.0179437757     4.4137961453     7.3917246175
    5      H      10.5657347184     5.9091479954     6.5109932096
    6      O      10.7612454971     4.7407428022     3.6606320325
    7      C      10.0545816646     4.0365145589     4.3478458341
    8      C       9.2393287541     2.7919760471     3.7322878884
    9      H       8.5018128506     2.3284347061     4.3997035888
   10      H      10.0206346523     2.0338992409     3.8725506751
   11      C       8.7747717835     2.9797021769     2.2523866345
   12      H       7.9879140723     3.7233247221     2.0750664367
   13      H       9.6344097709     3.3228309479     1.6639963072
   14      C       8.4574175398     1.5244810030     1.7039683459
   15      H       9.3091723007     0.8376850493     1.7828552594
   16      H       7.7479305616     1.0511012954     2.3938247659
   17      C       7.8277126621     1.6220384390     0.3088596356
   18      C       8.7295966917     2.4551796788    -0.5888429163
   19      C       9.7373131803     1.7528277610    -1.2219868669
   20      H       9.9605059118     0.7117395940    -1.0071300935
   21      C      10.5071849787     2.3911701033    -2.1744266120
   22      H      11.1466463146     1.7491399232    -2.7730679468
   23      C      10.3838040464     3.7785211753    -2.4731022698
   24      H      10.9824124500     4.2487038653    -3.2488581703
   25      C       9.4238656199     4.4887862947    -1.7494672255
   26      H       9.4596876323     5.5740175191    -1.7062934720
   27      C       8.5315694454     3.8479963055    -0.8585521192
   28      H       7.8506966525     4.4531357942    -0.2662486166
   29      C       3.3023187974     2.0544890951    -2.8408373021
   30      C       4.7191583367     0.6041548128    -4.1143887103
   31      C       2.2923678139    -3.2201071355    -3.2133552425
   32      C       2.6647812576     0.3808351256     1.8506107980
   33      C       4.3339321439    -4.3406471097    -0.5608171650
   34      C       4.5458280439     1.6701154666    -3.2466102282
   35      C       2.7346326666    -2.3997686861     2.0070915419
   36      C       1.5311654982    -0.9154798131    -3.8395628276
   37      C       7.1277979363    -1.5131781359    -1.5623171079
   38      C       3.8581782517    -0.2320072842     2.2781816054
   39      C       7.0689803605     0.4404224450    -0.1621466671
   40      C       7.0105606206    -1.9688156079    -0.1950121288
   41      C       5.1193723714    -2.0149695779     1.8784906605
   42      C       2.8555243815    -3.5120755525     1.1597146316
   43      C       6.4374696498     0.6030060121    -2.5923217237
   44      C       2.0010891805    -3.8746503910    -1.0465534785
   45      C       6.2516364814     1.6329213051     0.1242751405
   46      C       5.2302202265     1.5261619491     1.1935306170
   47      C       3.2503796777    -4.2845265676    -1.4710399606
   48      C       0.3277595229    -0.2428739229    -0.5687443712
   49      C       0.5935334917    -2.0840574020    -1.8391402125
   50      C       0.6664361862    -0.9411712999    -2.6878318849
   51      C       2.2826424751     0.2262511400    -4.0943819473
   52      C       3.9812482604     2.0381019786     0.6873523536
   53      C       7.0809025002    -0.1037029234    -1.5463032500
   54      C       3.5819108562    -0.1221501480    -4.5178441256
   55      C       3.9127212899    -1.6652194704     2.3500487480
   56      C       5.9012352130    -0.0841953476    -3.7243203633
   57      C       6.2259063944    -3.1463568678     0.0681671380
   58      C       1.5884260793     1.5547699921     0.2753351208
   59      C       2.3561456932    -2.0632939568    -4.0680280757
   60      C       6.8594908211    -0.8898648037     0.5974953335
   61      C       1.2554853006     1.3076153613    -2.1599979214
   62      C       5.3022046920    -3.1700593415     1.1496463832
   63      C       6.5018796106    -2.2054166958    -2.5665486677
   64      C       0.9458648815    -2.4258474183     0.5563656164
   65      C       1.5512909830    -1.6900578935     1.6375931645
   66      C       5.7597547675    -3.3643672852    -2.2861752582
   67      C       2.7247950770     1.5749428036     1.1594095287
   68      C       5.0724298796     0.2742798837     1.8450346467
   69      C       0.8320834585     0.4064775092     0.5316615020
   70      C       5.4411294395     2.1756455351    -1.0125796194
   71      C       4.7484475029    -2.2146783595    -4.0522542459
   72      C       5.8885966157    -0.8619450271     1.6126947858
   73      C       5.6263199950    -3.8734494170    -0.9696177986
   74      C       1.8268655313     1.9881705686    -1.0728501662
   75      C       3.4179533726    -3.7861264912    -2.7802879970
   76      C       2.1412968395     1.3766203586    -3.2017403214
   77      C       1.3844509116    -3.2136368136    -2.1121163795
   78      C       5.9150918034    -1.5097553262    -3.7120019963
   79      C       4.7089977152    -3.3410256002    -3.1602454973
   80      C       5.6022760534     1.6998790400    -2.3120714474
   81      C       4.1301625275     2.4371218337    -0.5946120360
   82      C       0.3778652785    -1.6470166614    -0.5332678555
   83      C       3.5821164842    -1.5400224741    -4.5585875266
   84      C       4.1607071308    -3.8820781020     0.7356154635
   85      C       1.4806174171    -0.2988769952     1.5257363119
   86      C       1.7875126705    -3.4912295842     0.2854249595
   87      C       3.0877840101     2.4225785345    -1.5143389079
   88      C       0.5382637143     0.1510323933    -1.8778294714
   89      O       0.0619001008    -6.9075136684     1.9120399463
   90      C       1.3348944940    -7.5787702854     1.9402149168
   91      H       1.1859241944    -8.5492042611     1.4496777128
   92      H       1.7142248264    -7.7802239235     2.9498885922
   93      H       2.0378646669    -7.0370837815     1.2957976082
   94      O      -0.2317589204    -6.9884417649    -0.3621854213
   95      C      -0.6014358949    -6.5773894624     0.7168678392
   96      C      -1.9541504388    -6.0068526574     0.9024806537
   97      H      -2.4582822135    -6.4460558253     1.7717589355
   98      H      -2.5208828148    -6.1047743297    -0.0310228332
   99      C      -1.9988335396    -4.5414228275     1.3476916532
  100      H      -1.5833542941    -4.5716924632     2.3620869143
  101      H      -1.4206639900    -3.9463035091     0.6305368800
  102      C      -3.4022161715    -4.0277855960     1.3157701407
  103      H      -3.7445729955    -4.0149468738     0.2731211239
  104      H      -4.0669890379    -4.6348828771     1.9427118664
  105      C      -3.4609929469    -2.6533727188     2.0085922923
  106      C      -2.9024344117    -2.5843594217     3.3849823270
  107      C      -1.5240774734    -2.2626690252     3.6678629370
  108      H      -0.8974787309    -2.0443860117     2.8087398131
  109      C      -1.0609346654    -2.0186679874     4.9606101021
  110      H      -0.0465035371    -1.7426684656     5.2318567607
  111      C      -1.9458767166    -2.3433000875     5.9976590719
  112      H      -1.5194241269    -2.1889786543     6.9845821105
  113      C      -3.2892761622    -2.8601266047     5.7868955063
  114      H      -3.9355208773    -3.1118991497     6.6212499596
  115      C      -3.7373983241    -2.9290569289     4.4754500677
  116      H      -4.7593074208    -3.1671141663     4.1966229712
  117      C      -7.0656661833     1.4859168240     3.1338220198
  118      C      -5.0084876199     2.6165193941     2.8896577584
  119      C      -6.0129620982     4.5400740754    -1.1607036342
  120      C      -7.9795468966    -1.4519163228    -0.8915562784
  121      C      -4.2779895734     2.1944270262    -2.9940116440
  122      C      -5.7212411263     1.5628723052     3.2721120053
  123      C      -7.0036809143    -0.2547552508    -3.3069140060
  124      C      -7.4310161005     4.2492935232     0.8524102516
  125      C      -2.5938767649     0.8128072783     0.3297341224
  126      C      -6.8225072116    -1.9188817902    -1.4516878876
  127      C      -3.3621639079    -1.3584862894     1.1111386970
  128      C      -2.8492141747     0.0242377172    -0.7739917741
  129      C      -4.9265946252    -1.1042481171    -2.3559248275
  130      C      -6.2667596287     0.9047323902    -3.6946309507
  131      C      -3.6544515124     0.8212636375     2.4203519007
  132      C      -6.4409670116     3.2455520273    -3.0572321631
  133      C      -4.7129435189    -1.8543071639     1.7521980567
  134      C      -5.8684010987    -2.1801842228     0.8331159473
  135      C      -5.0892262135     3.3733907639    -2.8151328608
  136      C      -9.4455449449     1.7120212005    -0.5862039063
  137      C      -8.2107580814     3.4727780777    -1.3343874542
  138      C      -8.3819289562     3.6058229399     0.0576213807
  139      C      -7.1031482723     3.7010768140     2.0507078470
  140      C      -7.0698466554    -1.6926545009     1.3699402617
  141      C      -2.9492397009     0.0423972259     1.5072750070
  142      C      -5.6883603317     3.7428137030     2.3066103971
  143      C      -6.3046888255    -1.2396582666    -2.5906639734
  144      C      -3.7568249349     2.2543297114     2.4289722291
  145      C      -3.1857019271     0.5503665722    -2.0458476701
  146      C      -8.9666935009    -0.2194564570     0.7536249459
  147      C      -6.2244277545     4.6758596426     0.2697346049
  148      C      -3.4347565425    -1.2179669317    -0.3751249471
  149      C      -8.8261144179     1.9305747811     1.7584285072
  150      C      -4.2155595672     0.0009536017    -2.8432607557
  151      C      -2.6331793729     2.2262013398     0.2692235294
  152      C      -8.2556787690     1.6136910442    -2.7614941545
  153      C      -8.2116879647     0.1736961279    -2.6941706811
  154      C      -2.9500252386     2.7703910272    -1.0025812046
  155      C      -8.1807171315    -1.3442246181     0.5227965889
  156      C      -5.7479957292    -2.2332254972    -0.5940964301
  157      C      -9.3246018013     0.3545312456    -0.4719201433
  158      C      -5.4385934944    -0.8732516952     2.7384040597
  159      C      -4.0306675954     3.9693550121     0.5917121998
  160      C      -4.5622066227    -1.7406584485    -1.1669095737
  161      C      -3.2406436543     1.9301316721    -2.1347221644
  162      C      -8.6683340486     0.5381746838     1.8522598679
  163      C      -4.8247726702     4.1940327241    -1.7175108418
  164      C      -7.7935690202     2.5431068118     2.5015943790
  165      C      -7.0469652766     3.9336196355    -2.0041936694
  166      C      -3.2729174119     2.9598681877     1.3056989019
  167      C      -3.8080203525     3.8870099441    -0.7763234339
  168      C      -4.8961666027     0.4102060260     3.0002710973
  169      C      -6.8432593753    -0.9608161321     2.4994537882
  170      C      -8.9055551345     2.3059156092    -1.7324854756
  171      C      -5.1944115953     4.3629595096     1.1644620599
  172      C      -4.8913633999     1.0434990136    -3.4135188058
  173      C      -8.7169829153    -0.4118557474    -1.4725520768
  174      C      -7.0400400955     2.0006430629    -3.3500701911
  175      C      -7.6211092970     0.2421985519     2.7143308910
  176      C      -9.1521488610     2.5297666766     0.5471244107
 ----------------------------------------------------------------

    9   -5804.2322497789      9.98E-06 Convergence criterion met
 Total energy in the final basis set = -5804.2322497789

                    Orbital Energies (a.u.)
 --------------------------------------------------------------

 Alpha MOs
 -- Occupied --
-19.195 -19.180 -19.134 -19.128 -10.316 -10.315 -10.254 -10.247
-10.246 -10.244 -10.242 -10.239 -10.237 -10.235 -10.235 -10.230
-10.228 -10.228 -10.226 -10.226 -10.226 -10.225 -10.224 -10.223
-10.223 -10.222 -10.222 -10.222 -10.222 -10.222 -10.221 -10.221
-10.221 -10.221 -10.221 -10.221 -10.220 -10.220 -10.220 -10.220
-10.220 -10.219 -10.219 -10.219 -10.219 -10.219 -10.219 -10.218
-10.218 -10.218 -10.218 -10.218 -10.218 -10.217 -10.217 -10.217
-10.217 -10.217 -10.217 -10.217 -10.217 -10.216 -10.216 -10.216
-10.216 -10.215 -10.215 -10.215 -10.215 -10.215 -10.215 -10.215
-10.215 -10.215 -10.214 -10.214 -10.214 -10.214 -10.214 -10.214
-10.214 -10.214 -10.214 -10.214 -10.213 -10.213 -10.213 -10.213
-10.213 -10.213 -10.213 -10.213 -10.213 -10.213 -10.213 -10.212
-10.212 -10.212 -10.212 -10.212 -10.211 -10.211 -10.211 -10.211
-10.211 -10.211 -10.211 -10.211 -10.211 -10.211 -10.211 -10.211
-10.210 -10.210 -10.210 -10.210 -10.210 -10.209 -10.209 -10.209
-10.209 -10.209 -10.209 -10.208 -10.207 -10.206 -10.206 -10.206
-10.206 -10.206 -10.205 -10.205 -10.205 -10.205 -10.204 -10.204
-10.204 -10.202 -10.202 -10.202 -10.200 -10.199 -10.199 -10.199
-10.198 -10.196 -10.194 -10.191  -1.099  -1.078  -1.007  -1.005
 -0.984  -0.979  -0.966  -0.965  -0.963  -0.961  -0.960  -0.955
 -0.934  -0.929  -0.926  -0.925  -0.925  -0.923  -0.923  -0.922
 -0.919  -0.919  -0.896  -0.893  -0.891  -0.889  -0.886  -0.881
 -0.876  -0.873  -0.853  -0.848  -0.842  -0.840  -0.840  -0.838
 -0.837  -0.833  -0.824  -0.819  -0.808  -0.800  -0.798  -0.796
 -0.795  -0.795  -0.794  -0.792  -0.791  -0.789  -0.782  -0.782
 -0.775  -0.770  -0.768  -0.766  -0.765  -0.762  -0.762  -0.760
 -0.753  -0.750  -0.741  -0.739  -0.735  -0.726  -0.718  -0.716
 -0.715  -0.714  -0.712  -0.711  -0.711  -0.711  -0.709  -0.709
 -0.707  -0.706  -0.705  -0.702  -0.701  -0.700  -0.672  -0.671
 -0.660  -0.657  -0.656  -0.651  -0.647  -0.644  -0.635  -0.628
 -0.627  -0.626  -0.626  -0.623  -0.622  -0.620  -0.619  -0.616
 -0.615  -0.615  -0.612  -0.612  -0.611  -0.608  -0.608  -0.606
 -0.604  -0.603  -0.603  -0.599  -0.567  -0.563  -0.563  -0.562
 -0.562  -0.561  -0.558  -0.556  -0.555  -0.555  -0.555  -0.549
 -0.537  -0.535  -0.532  -0.529  -0.528  -0.528  -0.525  -0.525
 -0.522  -0.521  -0.521  -0.520  -0.518  -0.513  -0.513  -0.511
 -0.509  -0.506  -0.502  -0.498  -0.495  -0.489  -0.486  -0.484
 -0.483  -0.482  -0.482  -0.481  -0.480  -0.477  -0.476  -0.474
 -0.473  -0.470  -0.469  -0.468  -0.468  -0.467  -0.466  -0.464
 -0.463  -0.463  -0.462  -0.461  -0.461  -0.460  -0.459  -0.457
 -0.454  -0.453  -0.451  -0.450  -0.450  -0.446  -0.444  -0.444
 -0.443  -0.440  -0.439  -0.438  -0.437  -0.435  -0.433  -0.432
 -0.432  -0.431  -0.430  -0.430  -0.428  -0.427  -0.425  -0.424
 -0.423  -0.423  -0.422  -0.420  -0.419  -0.418  -0.417  -0.417
 -0.416  -0.415  -0.415  -0.415  -0.414  -0.413  -0.412  -0.412
 -0.411  -0.410  -0.409  -0.408  -0.402  -0.399  -0.398  -0.397
 -0.394  -0.392  -0.392  -0.390  -0.389  -0.387  -0.387  -0.385
 -0.382  -0.380  -0.373  -0.371  -0.371  -0.368  -0.366  -0.366
 -0.365  -0.364  -0.363  -0.361  -0.361  -0.360  -0.359  -0.359
 -0.356  -0.355  -0.355  -0.353  -0.352  -0.351  -0.350  -0.350
 -0.349  -0.348  -0.347  -0.346  -0.345  -0.344  -0.343  -0.340
 -0.340  -0.340  -0.340  -0.339  -0.338  -0.335  -0.334  -0.332
 -0.331  -0.330  -0.329  -0.329  -0.327  -0.323  -0.323  -0.322
 -0.314  -0.305  -0.299  -0.289  -0.289  -0.281  -0.274  -0.271
 -0.269  -0.268  -0.266  -0.266  -0.265  -0.265  -0.265  -0.263
 -0.263  -0.262  -0.259  -0.259  -0.257  -0.255  -0.254  -0.254
 -0.246  -0.244  -0.242  -0.240  -0.223  -0.217  -0.216  -0.210
 -0.210  -0.208  -0.207  -0.204  -0.198  -0.195

          Ground-State Mulliken Net Atomic Charges

     Atom                 Charge (a.u.)
  ----------------------------------------
      1 O                    -0.456069
      2 C                    -0.095192
      3 H                     0.146371
      4 H                     0.130803
      5 H                     0.136732
      6 O                    -0.472955
      7 C                     0.569607
      8 C                    -0.266218
      9 H                     0.117915
     10 H                     0.131573
     11 C                    -0.175968
     12 H                     0.111959
     13 H                     0.145775
     14 C                    -0.187698
     15 H                     0.111786
     16 H                     0.104177
     17 C                     0.008453
     18 C                     0.068347
     19 C                    -0.083067
     20 H                     0.092054
     21 C                    -0.098072
     22 H                     0.085543
     23 C                    -0.078118
     24 H                     0.096290
     25 C                    -0.097592
     26 H                     0.094743
     27 C                    -0.101629
     28 H                     0.095759
     29 C                     0.011764
     30 C                     0.009308
     31 C                     0.010289
     32 C                     0.007010
     33 C                    -0.015889
     34 C                     0.012611
     35 C                    -0.016503
     36 C                    -0.004635
     37 C                    -0.012951
     38 C                    -0.015675
     39 C                    -0.084672
     40 C                     0.006446
     41 C                     0.019553
     42 C                     0.005509
     43 C                     0.002032
     44 C                     0.023935
     45 C                    -0.071069
     46 C                    -0.011550
     47 C                     0.000264
     48 C                     0.003347
     49 C                    -0.005406
     50 C                    -0.008123
     51 C                    -0.005041
     52 C                    -0.000486
     53 C                     0.040379
     54 C                     0.017218
     55 C                    -0.019312
     56 C                    -0.032870
     57 C                    -0.007553
     58 C                    -0.027249
     59 C                    -0.005488
     60 C                     0.024559
     61 C                    -0.003597
     62 C                    -0.012247
     63 C                    -0.006607
     64 C                    -0.022167
     65 C                    -0.044237
     66 C                     0.028627
     67 C                    -0.027701
     68 C                     0.028273
     69 C                     0.006488
     70 C                     0.021524
     71 C                    -0.000635
     72 C                    -0.007138
     73 C                    -0.015680
     74 C                    -0.001630
     75 C                     0.015927
     76 C                    -0.015397
     77 C                    -0.018781
     78 C                    -0.012705
     79 C                     0.003196
     80 C                     0.003828
     81 C                     0.036879
     82 C                     0.005048
     83 C                    -0.020903
     84 C                     0.006103
     85 C                     0.043434
     86 C                     0.016709
     87 C                    -0.008487
     88 C                     0.039829
     89 O                    -0.497583
     90 C                    -0.077349
     91 H                     0.123617
     92 H                     0.126342
     93 H                     0.125656
     94 O                    -0.461377
     95 C                     0.603476
     96 C                    -0.246210
     97 H                     0.131194
     98 H                     0.130410
     99 C                    -0.208109
    100 H                     0.131206
    101 H                     0.115434
    102 C                    -0.167591
    103 H                     0.116702
    104 H                     0.106873
    105 C                     0.002825
    106 C                     0.086911
    107 C                    -0.108682
    108 H                     0.091854
    109 C                    -0.081676
    110 H                     0.102170
    111 C                    -0.096714
    112 H                     0.086062
    113 C                    -0.088052
    114 H                     0.098115
    115 C                    -0.104890
    116 H                     0.092336
    117 C                    -0.015754
    118 C                     0.021967
    119 C                     0.007943
    120 C                     0.007194
    121 C                     0.004814
    122 C                     0.024653
    123 C                    -0.029717
    124 C                    -0.009339
    125 C                     0.024049
    126 C                    -0.014626
    127 C                    -0.074764
    128 C                     0.020445
    129 C                     0.007633
    130 C                    -0.009880
    131 C                     0.032037
    132 C                    -0.011145
    133 C                    -0.105565
    134 C                     0.060878
    135 C                    -0.016024
    136 C                    -0.015819
    137 C                     0.006322
    138 C                     0.025896
    139 C                     0.000376
    140 C                     0.019993
    141 C                     0.004812
    142 C                    -0.003811
    143 C                     0.016457
    144 C                    -0.022637
    145 C                    -0.035479
    146 C                    -0.000076
    147 C                    -0.015056
    148 C                     0.015340
    149 C                    -0.022536
    150 C                    -0.016450
    151 C                    -0.016436
    152 C                     0.011645
    153 C                    -0.030897
    154 C                    -0.015538
    155 C                    -0.023382
    156 C                    -0.034010
    157 C                     0.025740
    158 C                    -0.010570
    159 C                     0.026973
    160 C                    -0.001565
    161 C                     0.013397
    162 C                     0.022654
    163 C                     0.000317
    164 C                    -0.010102
    165 C                    -0.013589
    166 C                    -0.021393
    167 C                     0.007375
    168 C                    -0.001253
    169 C                    -0.017221
    170 C                    -0.013926
    171 C                    -0.005624
    172 C                     0.027726
    173 C                     0.010519
    174 C                     0.029190
    175 C                     0.008626
    176 C                    -0.006746
  ----------------------------------------
  Sum of atomic charges =     0.000000

                    Cartesian Multipole Moments
 -----------------------------------------------------------------
    Charge (ESU x 10^10)
                 0.0000
    Dipole Moment (Debye)
         X       4.3317      Y      -0.7732      Z       4.8236
       Tot       6.5290
    Quadrupole Moments (Debye-Ang)
        XX    -781.8868     XY      10.2705     YY    -813.6526
        XZ      16.0854     YZ     -11.3003     ZZ    -781.8706

 Total job time:  866.96s(wall), 8278.43s(cpu)
        *  Thank you very much for using Q-Chem.  Have a nice day.  *
