 Q-Chem 4.4, Q-Chem, Inc., Pleasanton, CA (2016)
 Q-Chem 4.4.2 for Intel X86 Linux

User input:
--------------------------------------------------------------
$comment
SP
$end

$rem
MEM_STATIC 5000
MEM_TOTAL 20000
JOBTYPE SP
EXCHANGE B3LYP
BASIS 6-31g(d,p)
$end

$molecule
0 1
O          -7.032000     14.008000     -3.867000
C          -6.306000     15.050000     -3.153000
H          -5.650000     15.557000     -3.871000
H          -5.740000     14.767000     -2.258000
H          -7.045000     15.809000     -2.869000
O          -5.500000     12.317000     -3.584000
C          -6.510000     12.780000     -4.053000
C          -7.463000     12.010000     -4.984000
H          -7.908000     12.700000     -5.712000
H          -8.276000     11.772000     -4.287000
C          -6.863000     10.727000     -5.588000
H          -5.989000     10.992000     -6.197000
H          -6.555000     10.177000     -4.690000
C          -7.913000     10.062000     -6.491000
H          -8.571000      9.549000     -5.779000
H          -8.585000     10.841000     -6.872000
C          -7.283000      9.015000     -7.517000
C          -6.159000      8.250000     -6.995000
C          -6.443000      6.992000     -6.375000
H          -7.432000      6.580000     -6.199000
C          -5.306000      6.146000     -5.960000
H          -5.483000      5.173000     -5.511000
C          -4.012000      6.604000     -6.119000
H          -3.144000      6.067000     -5.748000
C          -3.749000      7.843000     -6.724000
H          -2.747000      8.247000     -6.840000
C          -4.799000      8.645000     -7.195000
H          -4.563000      9.566000     -7.718000
C          -5.455000      8.712000    -12.599000
C          -6.121000      6.461000    -12.184000
C          -9.851000      6.559000    -14.923000
C          -9.149000     12.109000    -11.648000
C         -12.031000      7.147000    -12.211000
C          -5.575000      7.616000    -11.711000
C         -11.577000     10.720000    -12.248000
C          -7.505000      7.367000    -15.314000
C          -9.135000      6.454000     -9.542000
C          -9.916000     11.451000    -10.704000
C          -8.124000      8.378000     -8.545000
C         -10.132000      7.348000     -9.258000
C         -11.253000      9.760000    -10.025000
C         -12.253000      9.537000    -12.649000
C          -6.838000      6.767000    -10.085000
C         -11.519000      8.043000    -14.478000
C          -7.218000      9.483000     -8.924000
C          -7.874000     10.709000     -9.500000
C         -11.605000      6.936000    -13.554000
C          -8.588000     10.761000    -14.908000
C          -9.474000      8.776000    -15.518000
C          -8.104000      8.621000    -15.661000
C          -6.421000      7.398000    -14.457000
C          -7.121000     11.153000    -10.647000
C          -7.910000      7.019000     -9.250000
C          -6.610000      6.345000    -13.541000
C         -11.175000     10.870000    -10.944000
C          -6.938000      5.951000    -11.209000
C         -11.259000      7.354000    -10.099000
C          -7.316000     11.630000    -12.993000
C          -8.414000      6.381000    -14.903000
C          -9.608000      8.548000     -8.702000
C          -6.383000      9.800000    -14.357000
C         -11.799000      8.546000    -10.439000
C          -9.287000      5.536000    -10.619000
C         -10.927000     10.400000    -14.349000
C         -10.797000     11.251000    -13.256000
C         -10.453000      5.560000    -11.443000
C          -7.730000     11.846000    -11.668000
C          -9.284000     10.783000     -9.629000
C          -8.463000     11.685000    -13.867000
C          -6.252000      9.234000    -10.006000
C          -8.621000      5.146000    -12.810000
C         -10.085000      9.726000     -9.195000
C         -11.446000      6.451000    -11.129000
C          -6.270000     10.731000    -13.303000
C         -10.557000      6.019000    -13.902000
C          -5.843000      8.569000    -13.943000
C         -10.414000      7.774000    -15.308000
C          -8.183000      5.230000    -11.471000
C         -10.006000      5.301000    -12.813000
C          -6.025000      7.873000    -10.446000
C          -6.119000     10.282000    -10.893000
C          -9.807000     10.068000    -15.118000
C          -7.846000      5.737000    -13.855000
C         -12.257000      8.414000    -11.766000
C          -9.602000     11.978000    -13.030000
C         -11.875000      9.374000    -13.999000
C          -5.647000     10.069000    -12.211000
C          -7.535000      9.787000    -15.179000
O          -7.005000     19.228000    -11.843000
C          -5.682000     19.707000    -12.165000
H          -5.582000     20.192000    -13.143000
H          -4.942000     18.897000    -12.148000
H          -5.343000     20.393000    -11.379000
O          -6.880000     17.449000    -13.345000
C          -7.395000     18.071000    -12.460000
C          -8.671000     17.648000    -11.762000
H          -9.436000     17.485000    -12.531000
H          -9.143000     18.398000    -11.114000
C          -8.469000     16.462000    -10.805000
H          -9.437000     16.016000    -10.543000
H          -7.828000     15.717000    -11.292000
C          -7.720000     16.959000     -9.500000
H          -6.927000     17.658000     -9.793000
H          -8.411000     17.584000     -8.923000
C          -7.094000     15.917000     -8.600000
C          -8.075000     15.105000     -7.765000
C          -8.361000     15.654000     -6.456000
H          -7.678000     16.324000     -5.942000
C          -9.358000     15.033000     -5.637000
H          -9.434000     15.273000     -4.580000
C         -10.156000     14.001000     -6.209000
H         -10.875000     13.379000     -5.684000
C          -9.945000     13.562000     -7.551000
H         -10.556000     12.844000     -8.090000
C          -8.891000     14.104000     -8.251000
H          -8.772000     13.776000     -9.280000
C          -3.007000     15.217000     -5.001000
C          -3.277000     13.003000     -5.833000
C           0.572000     12.918000     -8.225000
C          -2.256000     18.663000     -8.608000
C          -0.972000     13.808000    -11.255000
C          -3.814000     14.253000     -5.496000
C          -0.882000     17.340000    -10.608000
C           0.071000     13.811000     -6.052000
C          -4.653000     13.210000     -9.677000
C          -2.947000     18.256000     -9.751000
C          -5.870000     15.176000     -9.117000
C          -4.390000     14.193000    -10.593000
C          -3.112000     16.614000    -11.348000
C          -0.305000     16.131000    -11.089000
C          -5.009000     13.554000     -7.346000
C           0.908000     14.482000     -9.842000
C          -5.715000     16.257000     -8.048000
C          -4.790000     17.388000     -8.379000
C           0.087000     13.475000    -10.392000
C           0.419000     17.224000     -6.900000
C           1.294000     15.209000     -7.623000
C           0.781000     15.033000     -6.355000
C          -1.057000     13.773000     -5.260000
C          -4.115000     17.880000     -7.247000
C          -5.393000     13.817000     -8.645000
C          -1.884000     12.765000     -5.713000
C          -2.268000     17.578000    -10.783000
C          -3.973000     12.630000     -7.031000
C          -3.202000     14.157000    -11.331000
C          -1.779000     18.110000     -6.509000
C          -0.037000     12.782000     -6.965000
C          -4.925000     15.416000    -10.267000
C          -0.968000     16.245000     -5.270000
C          -2.550000     15.395000    -11.737000
C          -3.599000     12.296000     -9.382000
C           0.745000     16.833000     -9.220000
C          -0.184000     17.831000     -9.507000
C          -2.401000     12.224000    -10.069000
C          -2.840000     18.482000     -7.340000
C          -4.171000     17.644000     -9.628000
C          -0.568000     18.220000     -7.174000
C          -5.144000     15.944000     -6.667000
C          -1.905000     11.709000     -7.969000
C          -4.309000     16.635000    -10.615000
C          -2.183000     13.184000    -11.109000
C          -1.959000     17.157000     -5.545000
C          -0.096000     12.527000     -9.368000
C          -1.608000     15.004000     -4.943000
C           1.150000     14.210000     -8.555000
C          -3.289000     11.977000     -8.038000
C          -1.347000     11.883000     -9.215000
C          -4.877000     14.564000     -6.384000
C          -4.250000     16.881000     -6.253000
C           1.114000     16.547000     -7.921000
C          -1.255000     12.122000     -6.771000
C          -1.162000     15.130000    -11.657000
C          -0.857000     18.461000     -8.501000
C           0.763000     15.851000    -10.189000
C          -3.185000     16.569000     -5.357000
C           0.228000     16.272000     -5.905000
$end

--------------------------------------------------------------

             Standard Nuclear Orientation (Angstroms)
    I     Atom           X                Y                Z
 ----------------------------------------------------------------
    1      O       2.6879084364    -2.5361843869     4.9493880605
    2      C       4.1252575689    -2.5812568631     5.1831228318
    3      H       4.6098478290    -1.9484865850     4.4296753851
    4      H       4.6131936447    -3.5619342223     5.2238696479
    5      H       4.3047393200    -2.0660675685     6.1345555891
    6      O       2.5621737257    -4.2907198243     3.4687158546
    7      C       2.0866363890    -3.3578982813     4.0671623521
    8      C       0.6169452446    -2.9163852873     3.9533897004
    9      H       0.5484963747    -1.8258890580     4.0545911138
   10      H       0.2146458645    -3.3130412040     4.8937307515
   11      C      -0.1317949606    -3.5045045094     2.7432620683
   12      H       0.3598007224    -3.1704201796     1.8203843164
   13      H       0.0135745075    -4.5821285837     2.8894197647
   14      C      -1.5776882616    -2.9853947344     2.7504456163
   15      H      -2.0699261635    -3.6172410332     3.4998114165
   16      H      -1.5933020078    -2.0118021907     3.2558758981
   17      C      -2.3030013376    -3.1343797432     1.3371128851
   18      C      -1.9470233056    -4.3340929848     0.5920942420
   19      C      -2.7609978138    -5.4963504439     0.7770891030
   20      H      -3.5880691487    -5.5875936379     1.4745621752
   21      C      -2.4934741470    -6.6774566587    -0.0679725499
   22      H      -3.1083274362    -7.5678955946     0.0254776195
   23      C      -1.4407651890    -6.6604256087    -0.9629556743
   24      H      -1.1406418602    -7.5296272381    -1.5407519317
   25      C      -0.6472282923    -5.5146247234    -1.1295525678
   26      H       0.2048450296    -5.4744979280    -1.8026327223
   27      C      -0.9129044740    -4.3490275647    -0.3958329823
   28      H      -0.3257215212    -3.4582159411    -0.5936632916
   29      C      -3.3019080239    -0.3233319101    -3.1751274135
   30      C      -5.1165063894    -1.8691005741    -3.1503481953
   31      C      -8.3696863124     1.2382847792    -2.0614948286
   32      C      -2.8563995141     2.3232778020     1.1707470899
   33      C      -8.2806710711     0.3775314741     1.3596552755
   34      C      -3.8019651451    -1.6179707312    -2.8958189844
   35      C      -5.5369704586     2.5777942880     2.1373213341
   36      C      -6.5152868432     1.3266501244    -3.7534922204
   37      C      -5.9788441109    -2.8139978771     0.6480661766
   38      C      -3.4289184588     1.4680660909     2.0944483333
   39      C      -3.6481172166    -2.5727081776     1.1249282376
   40      C      -5.8641696562    -2.1335984456     1.8303552204
   41      C      -5.1678482741     0.3022322672     2.9459444243
   42      C      -6.9237018509     2.2973714040     2.0124011517
   43      C      -4.5551176375    -2.9246167189    -1.2571354927
   44      C      -8.1972714807     2.3901555267    -0.1054856499
   45      C      -2.4676084258    -1.8659479819     0.5841963070
   46      C      -2.2366325387    -0.4714628381     1.1011579335
   47      C      -8.6705366218     1.0529275217     0.1673922880
   48      C      -4.6731704396     3.5648378074    -1.6430221183
   49      C      -6.8238814410     2.9753452021    -1.9955297877
   50      C      -6.1437443359     2.5616778705    -3.1302838830
   51      C      -5.5056501921     0.4193523943    -4.0140889621
   52      C      -1.8975279942     0.3916948049    -0.0032518597
   53      C      -4.7246521069    -3.0227484771     0.1109073508
   54      C      -6.0077243971    -0.8462496498    -3.6538682537
   55      C      -4.6955348660     1.6403143842     2.6828830385
   56      C      -5.6054004506    -2.6351864819    -2.1245270711
   57      C      -6.8685301710    -1.2005901166     2.1437262693
   58      C      -2.5687629924     2.4019975386    -1.1334715270
   59      C      -7.6030459891     0.6753681299    -3.1534840503
   60      C      -4.5007038192    -1.9048407256     2.1655310204
   61      C      -3.7783096936     1.8917204829    -3.2206943478
   62      C      -6.5011295278    -0.0283817885     2.7085345580
   63      C      -7.1141500823    -2.6077690524    -0.1851846998
   64      C      -6.1499753651     3.6458784309     0.2873153210
   65      C      -5.0686451036     3.3917431376     1.1251041478
   66      C      -8.1235827963    -1.6632490223     0.1726357983
   67      C      -2.1748285062     1.7388189129     0.0407033880
   68      C      -3.0998369336     0.0923566490     2.0744013555
   69      C      -3.5638258003     3.3958506730    -0.8100276287
   70      C      -2.4540003310    -1.5609088703    -0.8554727383
   71      C      -7.7997414051    -1.5267723173    -2.1236241744
   72      C      -4.1618679255    -0.6535622297     2.5871402741
   73      C      -7.9972490977    -1.0070062539     1.3692607293
   74      C      -2.6665896003     1.7217802151    -2.3688465096
   75      C      -8.7939150182     0.3870730092    -1.0981955356
   76      C      -4.1449334898     0.6424617827    -3.7529505757
   77      C      -8.0173815522     2.4638273425    -1.4999382583
   78      C      -6.9688178302    -2.5423246259    -1.6039699420
   79      C      -8.5440054935    -1.0063356523    -1.0665169687
   80      C      -3.4242654818    -2.2017424744    -1.7188196148
   81      C      -1.9788825079    -0.3019458764    -1.1588491288
   82      C      -5.9816352011     3.6315500580    -1.1010078716
   83      C      -7.3067785805    -0.6465893486    -3.1356501599
   84      C      -7.3731236468     0.9537526890     2.1955480821
   85      C      -3.7453156568     3.3430655753     0.6210608261
   86      C      -7.3123818434     3.0232098175     0.8660855491
   87      C      -2.3324792789     0.3407640390    -2.3701171784
   88      C      -4.8040601275     2.8066785089    -2.8835818178
   89      O       3.3259107796     6.4179819484     1.7429003791
   90      C       4.3496922211     6.5539906823     0.7345218865
   91      H       4.3797327316     7.5224329208     0.2217585898
   92      H       4.2486564713     5.7947216981    -0.0511570473
   93      H       5.3294516509     6.3450162177     1.1814157585
   94      O       1.6035667313     6.2812330183     0.1772373536
   95      C       2.0516355023     6.2193103120     1.2866218473
   96      C       1.2369937993     5.8420342234     2.5065934243
   97      H       0.3648107368     6.5060244986     2.5461992310
   98      H       1.7111320378     6.0159032125     3.4813500634
   99      C       0.8982240453     4.3436578271     2.5644918590
  100      H       0.0928099883     4.1638564746     3.2880688559
  101      H       0.5919101942     4.0092645060     1.5657787213
  102      C       2.1938945769     3.5252110810     2.9675027739
  103      H       3.0556826745     3.9432124949     2.4328111873
  104      H       2.4200994580     3.7340427498     4.0192896752
  105      C       2.1940066788     2.0319199092     2.7272498573
  106      C       1.3422139334     1.2180121717     3.6920987126
  107      C       2.0397669521     0.7428205232     4.8686575438
  108      H       3.1174056820     0.6101357784     4.8946291887
  109      C       1.3046353714     0.0685059204     5.8959317893
  110      H       1.8220184681    -0.4934967911     6.6686495149
  111      C      -0.1165891684     0.0423404082     5.8040178434
  112      H      -0.7922471038    -0.5106523788     6.4498934752
  113      C      -0.7963067044     0.6344399733     4.6969459504
  114      H      -1.8724261331     0.7318470031     4.5881119223
  115      C      -0.0362133504     1.1571095969     3.6753028827
  116      H      -0.5777044367     1.6295970092     2.8603617507
  117      C       5.5722841674    -2.1749085524     1.7093080593
  118      C       3.5575521864    -2.9430203627     0.7004575789
  119      C       4.9629526824    -2.4847561951    -3.5842283371
  120      C       7.0675361635     2.3535630757     0.0641539079
  121      C       3.4924125339     0.6789119293    -4.0151014863
  122      C       4.2216683421    -2.2082897345     1.6922028264
  123      C       6.2413688163     2.4835312115    -2.5699988587
  124      C       6.0920732689    -3.2775599901    -1.6177777672
  125      C       1.4102018249     0.2981317846    -0.5630218168
  126      C       5.9308587276     3.0992777775    -0.2543629523
  127      C       2.2372627506     1.5451428446     1.2865128926
  128      C       1.9091643005     1.4961133741    -0.9993594831
  129      C       4.0897087816     3.2052191046    -1.6228443412
  130      C       5.5761026937     1.8640905941    -3.6653003276
  131      C       2.3069398795    -1.0042366625     1.2197654082
  132      C       5.6461584290    -0.4420582578    -4.3151839068
  133      C       3.4844836601     1.4490563309     2.1643251645
  134      C       4.7127536753     2.1332872149     1.6470942033
  135      C       4.2364257596    -0.4605147907    -4.3690648598
  136      C       8.3546327155    -0.5808749113    -1.3055417393
  137      C       7.2222135314    -1.6422044594    -3.0201219743
  138      C       7.2619530178    -2.4891704279    -1.9324462775
  139      C       5.6707826712    -3.5162783672    -0.3268014821
  140      C       5.8944353441     1.4550922453     1.9975125489
  141      C       1.7649594390     0.1914804351     0.7948609193
  142      C       4.2931549986    -3.6014982959    -0.3177704477
  143      C       5.4893786299     3.1784118303    -1.5902454790
  144      C       2.4207044914    -2.1352859614     0.3629794978
  145      C       2.3362800178     1.6310342401    -2.3247471713
  146      C       7.7663481123     0.3819434632     0.8148315776
  147      C       4.9684699987    -3.2712658454    -2.4187459781
  148      C       2.5516402392     2.2204769803    -0.0242943396
  149      C       7.4366363539    -1.9369900605     0.3848263810
  150      C       3.4428954858     2.5194110361    -2.6545545008
  151      C       1.5344370784    -0.8178761099    -1.4419012063
  152      C       7.4109997438     0.6924414179    -3.0746599775
  153      C       7.4248235170     1.8194555550    -2.2554762142
  154      C       1.9619020615    -0.7449768775    -2.7550334883
  155      C       7.0601986956     1.5247940946     1.2020155592
  156      C       4.8007657681     2.9867038679     0.5189843292
  157      C       8.3363349873     0.5532491499    -0.4368134695
  158      C       4.1374740833     0.1071242406     2.4868042679
  159      C       2.6991224511    -2.6984495609    -2.0055726338
  160      C       3.6447783914     3.0668127503    -0.2986768181
  161      C       2.3706300024     0.5385445285    -3.2410769747
  162      C       7.3572306647    -0.8552983647     1.2292716497
  163      C       3.8515018543    -1.7356336091    -3.9144500929
  164      C       6.3055963045    -2.7756073189     0.6570018769
  165      C       6.0901652335    -1.5923310602    -3.7968718022
  166      C       2.0090422343    -2.0589956480    -0.9534657059
  167      C       2.6939091748    -1.8817670185    -3.1133444725
  168      C       3.4505327272    -1.0643804110     2.0269494815
  169      C       5.4923280722     0.1535008741     2.3827808245
  170      C       7.9278109235    -0.5136267206    -2.6460997719
  171      C       3.8354669629    -3.4664225366    -1.6218909180
  172      C       4.1416511089     1.8729873000    -3.7019541058
  173      C       7.8269095908     1.7256663249    -0.9549396443
  174      C       6.3763290507     0.7303226636    -3.9865977867
  175      C       6.2670073220    -0.9972613362     2.0511132268
  176      C       7.9511126363    -1.8358582802    -0.8639556327
 ----------------------------------------------------------------

    9   -5804.2425198941      9.08E-06 Convergence criterion met
 Total energy in the final basis set = -5804.2425198941

                    Orbital Energies (a.u.)
 --------------------------------------------------------------

 Alpha MOs
 -- Occupied --
-19.201 -19.197 -19.146 -19.136 -10.320 -10.315 -10.249 -10.249
-10.244 -10.244 -10.243 -10.236 -10.235 -10.233 -10.232 -10.231
-10.229 -10.228 -10.225 -10.224 -10.224 -10.223 -10.223 -10.222
-10.222 -10.221 -10.221 -10.221 -10.221 -10.221 -10.221 -10.221
-10.220 -10.220 -10.220 -10.220 -10.220 -10.220 -10.220 -10.219
-10.219 -10.219 -10.218 -10.218 -10.218 -10.218 -10.218 -10.217
-10.217 -10.217 -10.217 -10.217 -10.217 -10.217 -10.217 -10.217
-10.217 -10.217 -10.217 -10.216 -10.216 -10.216 -10.216 -10.216
-10.216 -10.216 -10.216 -10.216 -10.216 -10.216 -10.216 -10.215
-10.215 -10.215 -10.215 -10.215 -10.215 -10.215 -10.215 -10.215
-10.215 -10.214 -10.214 -10.214 -10.214 -10.214 -10.214 -10.214
-10.214 -10.214 -10.214 -10.214 -10.213 -10.213 -10.213 -10.213
-10.213 -10.213 -10.213 -10.213 -10.213 -10.212 -10.212 -10.212
-10.212 -10.212 -10.212 -10.212 -10.212 -10.212 -10.211 -10.211
-10.211 -10.211 -10.210 -10.210 -10.210 -10.210 -10.210 -10.210
-10.210 -10.210 -10.209 -10.209 -10.209 -10.209 -10.208 -10.208
-10.208 -10.208 -10.208 -10.207 -10.206 -10.206 -10.206 -10.204
-10.203 -10.203 -10.203 -10.202 -10.200 -10.199 -10.197 -10.196
-10.194 -10.194 -10.192 -10.187  -1.100  -1.097  -1.029  -1.018
 -0.988  -0.983  -0.969  -0.968  -0.968  -0.965  -0.964  -0.958
 -0.939  -0.938  -0.932  -0.928  -0.927  -0.926  -0.926  -0.924
 -0.923  -0.916  -0.902  -0.900  -0.893  -0.890  -0.889  -0.881
 -0.880  -0.878  -0.855  -0.845  -0.845  -0.843  -0.841  -0.841
 -0.837  -0.834  -0.826  -0.819  -0.806  -0.802  -0.802  -0.800
 -0.798  -0.797  -0.795  -0.795  -0.792  -0.790  -0.786  -0.784
 -0.776  -0.772  -0.770  -0.770  -0.769  -0.764  -0.764  -0.761
 -0.755  -0.746  -0.743  -0.740  -0.736  -0.736  -0.720  -0.718
 -0.716  -0.716  -0.713  -0.713  -0.711  -0.711  -0.710  -0.710
 -0.709  -0.709  -0.706  -0.703  -0.703  -0.699  -0.677  -0.674
 -0.662  -0.660  -0.658  -0.657  -0.652  -0.646  -0.635  -0.629
 -0.629  -0.626  -0.626  -0.626  -0.624  -0.621  -0.620  -0.619
 -0.616  -0.616  -0.613  -0.612  -0.611  -0.611  -0.610  -0.609
 -0.607  -0.607  -0.604  -0.600  -0.572  -0.568  -0.565  -0.564
 -0.563  -0.561  -0.560  -0.559  -0.559  -0.556  -0.555  -0.554
 -0.540  -0.536  -0.534  -0.534  -0.530  -0.528  -0.527  -0.525
 -0.523  -0.522  -0.521  -0.519  -0.516  -0.516  -0.516  -0.513
 -0.511  -0.508  -0.503  -0.499  -0.496  -0.493  -0.490  -0.488
 -0.487  -0.483  -0.483  -0.482  -0.480  -0.479  -0.479  -0.478
 -0.477  -0.474  -0.473  -0.472  -0.470  -0.469  -0.468  -0.467
 -0.466  -0.466  -0.465  -0.463  -0.461  -0.461  -0.461  -0.459
 -0.458  -0.456  -0.455  -0.452  -0.450  -0.449  -0.446  -0.445
 -0.444  -0.444  -0.443  -0.440  -0.439  -0.437  -0.435  -0.433
 -0.432  -0.431  -0.430  -0.429  -0.426  -0.426  -0.425  -0.425
 -0.424  -0.422  -0.422  -0.421  -0.421  -0.420  -0.419  -0.418
 -0.418  -0.417  -0.417  -0.415  -0.415  -0.414  -0.413  -0.412
 -0.411  -0.410  -0.409  -0.408  -0.406  -0.399  -0.399  -0.397
 -0.395  -0.394  -0.393  -0.392  -0.390  -0.388  -0.388  -0.380
 -0.379  -0.377  -0.375  -0.372  -0.372  -0.371  -0.368  -0.366
 -0.364  -0.364  -0.363  -0.363  -0.361  -0.361  -0.359  -0.358
 -0.358  -0.357  -0.356  -0.355  -0.355  -0.354  -0.353  -0.353
 -0.352  -0.351  -0.350  -0.348  -0.347  -0.347  -0.345  -0.344
 -0.343  -0.342  -0.340  -0.338  -0.337  -0.336  -0.335  -0.333
 -0.332  -0.332  -0.331  -0.329  -0.329  -0.327  -0.326  -0.324
 -0.313  -0.311  -0.308  -0.303  -0.288  -0.288  -0.279  -0.272
 -0.272  -0.271  -0.270  -0.269  -0.267  -0.267  -0.265  -0.265
 -0.263  -0.262  -0.262  -0.260  -0.259  -0.258  -0.255  -0.252
 -0.249  -0.248  -0.246  -0.243  -0.226  -0.222  -0.215  -0.211
 -0.211  -0.210  -0.207  -0.206  -0.201  -0.199

          Ground-State Mulliken Net Atomic Charges

     Atom                 Charge (a.u.)
  ----------------------------------------
      1 O                    -0.466492
      2 C                    -0.100427
      3 H                     0.130106
      4 H                     0.140135
      5 H                     0.117333
      6 O                    -0.478588
      7 C                     0.612603
      8 C                    -0.286568
      9 H                     0.148974
     10 H                     0.122337
     11 C                    -0.175154
     12 H                     0.113251
     13 H                     0.127966
     14 C                    -0.188281
     15 H                     0.104107
     16 H                     0.116184
     17 C                     0.012623
     18 C                     0.075429
     19 C                    -0.122946
     20 H                     0.095525
     21 C                    -0.096523
     22 H                     0.091346
     23 C                    -0.072004
     24 H                     0.089672
     25 C                    -0.094905
     26 H                     0.093175
     27 C                    -0.092050
     28 H                     0.093637
     29 C                     0.005572
     30 C                     0.006718
     31 C                     0.007563
     32 C                    -0.056360
     33 C                     0.003245
     34 C                    -0.002849
     35 C                     0.010887
     36 C                    -0.041258
     37 C                     0.024697
     38 C                     0.032459
     39 C                    -0.085349
     40 C                    -0.008807
     41 C                    -0.040893
     42 C                    -0.009925
     43 C                    -0.015233
     44 C                    -0.004107
     45 C                    -0.075035
     46 C                    -0.000464
     47 C                    -0.003828
     48 C                    -0.013915
     49 C                     0.047674
     50 C                    -0.004581
     51 C                     0.013183
     52 C                     0.007044
     53 C                     0.041191
     54 C                    -0.024820
     55 C                    -0.023046
     56 C                     0.008528
     57 C                     0.024761
     58 C                     0.017572
     59 C                     0.014360
     60 C                     0.020417
     61 C                     0.000725
     62 C                     0.002933
     63 C                    -0.005817
     64 C                    -0.018553
     65 C                     0.057514
     66 C                     0.004365
     67 C                     0.004677
     68 C                     0.006894
     69 C                    -0.000385
     70 C                     0.034082
     71 C                    -0.012212
     72 C                     0.022998
     73 C                    -0.028252
     74 C                    -0.009295
     75 C                     0.012984
     76 C                     0.009677
     77 C                    -0.032351
     78 C                    -0.021927
     79 C                    -0.008068
     80 C                    -0.002330
     81 C                     0.036696
     82 C                     0.017659
     83 C                     0.029440
     84 C                     0.010743
     85 C                    -0.040974
     86 C                    -0.036272
     87 C                    -0.037687
     88 C                     0.000143
     89 O                    -0.453268
     90 C                    -0.104367
     91 H                     0.127238
     92 H                     0.131056
     93 H                     0.123989
     94 O                    -0.454647
     95 C                     0.607714
     96 C                    -0.242131
     97 H                     0.122385
     98 H                     0.116733
     99 C                    -0.196623
    100 H                     0.112177
    101 H                     0.121902
    102 C                    -0.193909
    103 H                     0.117488
    104 H                     0.111327
    105 C                     0.027265
    106 C                     0.069047
    107 C                    -0.108506
    108 H                     0.096433
    109 C                    -0.080494
    110 H                     0.100355
    111 C                    -0.107994
    112 H                     0.092648
    113 C                    -0.093599
    114 H                     0.100644
    115 C                    -0.094599
    116 H                     0.095143
    117 C                    -0.015227
    118 C                     0.032515
    119 C                    -0.026193
    120 C                    -0.007234
    121 C                     0.020531
    122 C                     0.022776
    123 C                     0.002272
    124 C                     0.018465
    125 C                    -0.010967
    126 C                    -0.013253
    127 C                    -0.103785
    128 C                     0.032931
    129 C                    -0.009440
    130 C                    -0.012305
    131 C                     0.042392
    132 C                    -0.002490
    133 C                    -0.091677
    134 C                     0.053149
    135 C                     0.007969
    136 C                     0.000619
    137 C                     0.017337
    138 C                    -0.016053
    139 C                    -0.010316
    140 C                    -0.031324
    141 C                     0.033124
    142 C                     0.000505
    143 C                    -0.000824
    144 C                    -0.024960
    145 C                    -0.027646
    146 C                     0.021945
    147 C                     0.004799
    148 C                     0.066088
    149 C                     0.022705
    150 C                    -0.003212
    151 C                     0.010699
    152 C                     0.013100
    153 C                     0.016178
    154 C                    -0.006497
    155 C                    -0.014510
    156 C                    -0.004281
    157 C                    -0.017202
    158 C                    -0.008011
    159 C                    -0.013218
    160 C                    -0.023829
    161 C                    -0.009404
    162 C                     0.016036
    163 C                     0.000303
    164 C                    -0.008404
    165 C                     0.022379
    166 C                    -0.028313
    167 C                     0.015440
    168 C                    -0.010699
    169 C                     0.017995
    170 C                    -0.016188
    171 C                    -0.004890
    172 C                    -0.004256
    173 C                     0.005714
    174 C                    -0.023224
    175 C                    -0.025226
    176 C                    -0.019590
  ----------------------------------------
  Sum of atomic charges =     0.000000

                    Cartesian Multipole Moments
 -----------------------------------------------------------------
    Charge (ESU x 10^10)
                 0.0000
    Dipole Moment (Debye)
         X       1.8027      Y      -0.5700      Z       4.0629
       Tot       4.4813
    Quadrupole Moments (Debye-Ang)
        XX    -811.3451     XY      14.6579     YY    -809.8612
        XZ       4.7600     YZ       5.2395     ZZ    -788.6184

 Total job time:  916.88s(wall), 8886.88s(cpu)
        *  Thank you very much for using Q-Chem.  Have a nice day.  *
