 Q-Chem 4.4, Q-Chem, Inc., Pleasanton, CA (2016)
 Q-Chem 4.4.2 for Intel X86 Linux

User input:
--------------------------------------------------------------
$comment
SP
$end

$rem
MEM_STATIC 5000
MEM_TOTAL 20000
JOBTYPE SP
EXCHANGE B3LYP
BASIS 6-31g(d,p)
$end

$molecule
0 1
O          28.780000    -29.767000     -7.424000
C          29.612000    -30.466000     -8.401000
H          30.365000    -29.787000     -8.818000
H          29.024000    -30.906000     -9.216000
H          30.103000    -31.296000     -7.877000
O          27.256000    -31.475000     -7.112000
C          27.708000    -30.412000     -6.843000
C          27.121000    -29.565000     -5.684000
H          27.931000    -28.956000     -5.265000
H          26.690000    -30.184000     -4.887000
C          25.970000    -28.650000     -6.256000
H          26.485000    -27.945000     -6.920000
H          25.397000    -29.338000     -6.890000
C          25.236000    -28.007000     -5.066000
H          24.784000    -28.780000     -4.432000
H          26.027000    -27.518000     -4.485000
C          24.211000    -26.988000     -5.619000
C          23.106000    -27.564000     -6.355000
C          22.229000    -28.303000     -5.588000
H          22.451000    -28.423000     -4.532000
C          21.184000    -29.036000     -6.203000
H          20.442000    -29.594000     -5.639000
C          21.094000    -28.979000     -7.630000
H          20.204000    -29.400000     -8.088000
C          22.020000    -28.329000     -8.358000
H          21.961000    -28.341000     -9.442000
C          22.957000    -27.551000     -7.735000
H          23.671000    -27.037000     -8.373000
C          23.835000    -22.103000     -8.051000
C          21.744000    -22.334000     -6.941000
C          22.356000    -19.379000     -3.684000
C          27.611000    -22.782000     -4.643000
C          23.162000    -21.776000     -1.211000
C          22.837000    -22.881000     -7.537000
C          26.724000    -21.917000     -2.162000
C          22.957000    -19.244000     -5.987000
C          22.032000    -24.743000     -3.740000
C          27.157000    -23.740000     -3.733000
C          23.753000    -25.846000     -4.858000
C          23.107000    -24.919000     -2.823000
C          25.656000    -24.113000     -2.137000
C          25.599000    -21.403000     -1.572000
C          22.117000    -24.462000     -6.111000
C          23.978000    -19.681000     -2.161000
C          24.754000    -25.594000     -5.943000
C          26.175000    -25.078000     -5.501000
C          22.905000    -20.512000     -1.777000
C          26.409000    -19.593000     -5.403000
C          24.600000    -18.690000     -4.285000
C          24.244000    -18.834000     -5.649000
C          22.694000    -20.124000     -7.058000
C          26.494000    -24.053000     -6.391000
C          22.388000    -25.248000     -4.982000
C          21.662000    -20.963000     -6.613000
C          26.700000    -23.267000     -2.487000
C          21.272000    -23.318000     -6.010000
C          23.260000    -23.998000     -1.803000
C          26.990000    -21.676000     -6.524000
C          21.980000    -19.604000     -5.020000
C          24.174000    -25.511000     -3.468000
C          25.164000    -20.337000     -7.371000
C          24.569000    -23.595000     -1.439000
C          21.186000    -23.627000     -3.661000
C          26.263000    -19.914000     -3.004000
C          27.108000    -20.974000     -3.110000
C          21.349000    -22.711000     -2.653000
C          27.263000    -22.957000     -5.962000
C          26.454000    -24.901000     -4.149000
C          27.258000    -20.730000     -5.507000
C          24.388000    -24.695000     -7.078000
C          20.638000    -21.536000     -4.397000
C          25.456000    -25.017000     -3.172000
C          22.373000    -22.871000     -1.675000
C          25.985000    -21.465000     -7.424000
C          21.878000    -20.299000     -2.709000
C          23.853000    -20.718000     -7.690000
C          23.656000    -18.964000     -3.341000
C          20.720000    -22.880000     -4.743000
C          21.099000    -21.417000     -3.084000
C          23.088000    -24.167000     -7.091000
C          25.465000    -23.811000     -7.335000
C          25.904000    -19.232000     -4.167000
C          21.174000    -20.653000     -5.350000
C          24.526000    -22.232000     -1.151000
C          27.600000    -21.410000     -4.312000
C          25.339000    -20.128000     -2.004000
C          25.159000    -22.557000     -7.800000
C          25.373000    -19.410000     -6.325000
O          25.823000    -32.570000    -13.679000
C          24.471000    -32.117000    -13.731000
H          24.504000    -31.092000    -14.122000
H          24.106000    -32.107000    -12.697000
H          23.826000    -32.784000    -14.316000
O          26.303000    -32.312000    -15.913000
C          26.634000    -32.593000    -14.777000
C          28.063000    -33.058000    -14.236000
H          27.834000    -34.122000    -14.096000
H          28.216000    -32.611000    -13.246000
C          29.359000    -32.745000    -15.104000
H          30.141000    -33.325000    -14.600000
H          29.295000    -33.194000    -16.102000
C          29.710000    -31.234000    -15.371000
H          30.591000    -31.245000    -16.024000
H          28.961000    -30.899000    -16.099000
C          29.902000    -30.369000    -14.105000
C          31.015000    -30.899000    -13.254000
C          32.324000    -30.897000    -13.791000
H          32.447000    -30.626000    -14.835000
C          33.377000    -31.353000    -13.098000
H          34.283000    -31.330000    -13.698000
C          33.198000    -31.866000    -11.888000
H          34.050000    -32.253000    -11.336000
C          31.933000    -31.951000    -11.251000
H          31.892000    -32.324000    -10.232000
C          30.809000    -31.454000    -11.983000
H          29.838000    -31.630000    -11.529000
C          27.715000    -27.687000     -9.766000
C          29.628000    -26.355000    -10.380000
C          27.357000    -22.872000    -12.133000
C          24.799000    -28.309000    -14.050000
C          27.895000    -23.807000    -15.398000
C          29.036000    -27.618000    -10.274000
C          25.095000    -26.031000    -15.640000
C          26.921000    -24.173000    -10.186000
C          30.526000    -26.556000    -14.238000
C          25.704000    -28.292000    -15.091000
C          29.753000    -28.856000    -14.164000
C          29.816000    -26.767000    -15.422000
C          27.182000    -27.133000    -16.285000
C          25.642000    -24.735000    -15.759000
C          30.371000    -27.579000    -12.062000
C          26.060000    -23.126000    -13.928000
C          28.748000    -29.684000    -13.406000
C          27.381000    -29.644000    -13.783000
C          27.406000    -23.054000    -14.370000
C          24.180000    -25.790000    -11.718000
C          25.126000    -23.763000    -11.804000
C          25.600000    -24.328000    -10.634000
C          27.612000    -25.256000     -9.656000
C          26.498000    -29.547000    -12.688000
C          30.478000    -27.749000    -13.449000
C          28.977000    -25.150000     -9.999000
C          25.819000    -27.174000    -15.907000
C          30.527000    -26.278000    -11.463000
C          29.109000    -25.670000    -16.013000
C          24.716000    -28.183000    -11.738000
C          27.843000    -23.364000    -10.891000
C          29.228000    -28.044000    -15.371000
C          25.689000    -26.647000    -10.007000
C          27.785000    -25.807000    -16.419000
C          30.611000    -25.308000    -13.669000
C          24.321000    -24.730000    -13.916000
C          24.210000    -25.985000    -14.533000
C          29.958000    -24.191000    -14.278000
C          25.229000    -28.915000    -12.843000
C          26.954000    -28.967000    -14.970000
C          24.024000    -27.076000    -12.285000
C          28.593000    -29.253000    -11.921000
C          29.961000    -23.992000    -11.977000
C          27.869000    -28.234000    -15.778000
C          29.143000    -24.379000    -15.387000
C          25.546000    -27.921000    -10.578000
C          28.222000    -22.844000    -13.249000
C          27.013000    -26.491000     -9.528000
C          26.017000    -22.998000    -12.533000
C          30.638000    -25.150000    -12.293000
C          29.498000    -23.433000    -13.172000
C          29.452000    -28.353000    -11.313000
C          27.262000    -29.335000    -11.518000
C          24.312000    -24.639000    -12.493000
C          29.116000    -23.994000    -10.810000
C          27.023000    -24.618000    -16.122000
C          24.083000    -27.126000    -13.687000
C          25.184000    -23.974000    -14.680000
C          26.836000    -28.551000    -10.452000
C          24.983000    -25.579000    -10.598000
$end

--------------------------------------------------------------

             Standard Nuclear Orientation (Angstroms)
    I     Atom           X                Y                Z
 ----------------------------------------------------------------
    1      O      -1.9484165350    -4.2677589387    -2.3790895407
    2      C      -3.3693149634    -4.2559791913    -2.7200629909
    3      H      -3.5947826010    -3.4194391981    -3.3918547624
    4      H      -4.0139551794    -4.1985014774    -1.8342276201
    5      H      -3.5934496078    -5.2084809442    -3.2171153743
    6      O      -2.0767208044    -5.9406762840    -0.7909870344
    7      C      -1.4643167002    -5.1852149554    -1.4698636021
    8      C       0.0861254635    -5.1623445592    -1.4404520047
    9      H       0.4394726787    -4.8467691287    -2.4294413339
   10      H       0.5168919773    -6.1432671251    -1.2030449063
   11      C       0.5581017569    -4.1491606183    -0.3269410347
   12      H       0.2444842951    -3.1665202370    -0.7000468757
   13      H      -0.0872448484    -4.3971892100     0.5249031862
   14      C       2.0757756783    -4.3206708613    -0.1383804210
   15      H       2.3072188735    -5.3394242973     0.1968276997
   16      H       2.4949879078    -4.1958672925    -1.1438893348
   17      C       2.5725067625    -3.2249742517     0.8350168101
   18      C       2.1020499045    -3.3527718284     2.1976741860
   19      C       2.6068501747    -4.4410161373     2.8791725435
   20      H       3.2667590201    -5.1169407283     2.3439471115
   21      C       2.1225641052    -4.7630040468     4.1711980034
   22      H       2.5210562074    -5.5806780013     4.7650307649
   23      C       1.0983625596    -3.9251023324     4.7158170548
   24      H       0.8452141542    -4.0676377955     5.7620983395
   25      C       0.5577515582    -2.9296118583     3.9900771144
   26      H      -0.2533586119    -2.3383973743     4.4038967921
   27      C       1.1113738013    -2.5807822774     2.7887435489
   28      H       0.6429903758    -1.7598397358     2.2523609334
   29      C       3.4791026926     2.1564257638     1.2062885346
   30      C       4.9572993047     1.2305875904     2.8235394281
   31      C       8.8048829751     1.8959565343     0.7097745245
   32      C       4.3452891558    -0.0974645367    -3.3217773355
   33      C       9.1102886978    -1.4237695553    -0.4722237982
   34      C       3.8139429930     1.1702569181     2.0899383414
   35      C       7.0212933345    -0.8133885991    -3.4514282994
   36      C       6.9050844718     3.3251024515     0.8873768731
   37      C       5.9983897597    -2.5336308483     1.8857674887
   38      C       4.6884036489    -1.4234523244    -3.0460803430
   39      C       3.9314511652    -2.7287132526     0.8283736633
   40      C       6.2137185382    -3.1312809851     0.6114292953
   41      C       6.2472234209    -2.7052739164    -2.1152955533
   42      C       8.1539295925    -0.7788147299    -2.6808046853
   43      C       4.3118623990    -0.9741655358     2.5426696129
   44      C       9.2164245210     0.8862889348    -1.2530861161
   45      C       2.8779057286    -1.8596770048     0.2139243056
   46      C       2.9777908306    -1.6001793141    -1.3364127271
   47      C       9.4508703754    -0.0754396513    -0.2483676142
   48      C       5.9138365080     2.9012364957    -2.4617911021
   49      C       7.9051892224     2.9257979123    -1.2905844151
   50      C       6.9172646048     3.5473828622    -0.4870888644
   51      C       5.7114726755     3.1788429312     1.6252854260
   52      C       2.7347404442    -0.2373112017    -1.5037537498
   53      C       4.6519588243    -2.2397199342     2.0440871360
   54      C       5.9732714476     2.1787423105     2.5730354729
   55      C       6.0572333088    -1.7516819420    -3.1066169461
   56      C       5.3089628185    -0.1296397247     3.1132210195
   57      C       7.4302835624    -2.9287063302    -0.0138570798
   58      C       3.7306588909     1.8330907685    -2.3008836824
   59      C       7.8020241231     2.4337328730     1.5355879008
   60      C       5.0182602931    -3.2030002600    -0.0746566541
   61      C       4.4650077589     3.3134854242    -0.5362960809
   62      C       7.4505571898    -2.7255047543    -1.4162422265
   63      C       6.9640489770    -1.7000854597     2.4689633059
   64      C       7.6222832421     1.2896555805    -3.0647626689
   65      C       6.6664896576     0.5174932901    -3.6470727420
   66      C       8.1651668321    -1.4944084546     1.8391205736
   67      C       3.3721102090     0.4737948953    -2.5355996210
   68      C       4.0021516808    -2.1919966782    -2.0695641821
   69      C       4.9167627695     2.0644025142    -3.0361941377
   70      C       2.6282976981    -0.5024330512     0.7848592246
   71      C       7.7245496396     0.4119346638     2.8876406756
   72      C       5.0453620454    -2.8880023175    -1.4440425716
   73      C       8.4540212730    -2.1156377336     0.5896017482
   74      C       3.5217593827     2.4541215844    -1.1028737821
   75      C       9.2266198414     0.5638740659     0.9803356326
   76      C       4.4915640121     3.1033044272     0.8496193977
   77      C       8.8188557164     2.1203091111    -0.6792340009
   78      C       6.7093633224    -0.5038200433     3.1397637761
   79      C       8.6221994408    -0.1961162860     2.0072147124
   80      C       3.3722754759    -0.1297174016     1.9146968725
   81      C       2.5176454781     0.4326030562    -0.2738652741
   82      C       7.2322550094     2.4831616729    -2.4564903738
   83      C       7.2787216303     1.7043102929     2.5617624477
   84      C       8.4176436894    -1.7595171699    -1.6885906966
   85      C       5.3383992156     0.8537706839    -3.6395035763
   86      C       8.6036128334     0.5037448628    -2.5000427587
   87      C       2.9475445901     1.7136259142    -0.0360750502
   88      C       5.6843486950     3.5096284571    -1.2232179048
   89      O      -7.1505039831    -3.2652419229     2.8800861376
   90      C      -6.4577154424    -2.9357764099     4.0831295755
   91      H      -6.2170631065    -1.8669505141     4.0176111992
   92      H      -5.5323919074    -3.5242076873     4.0806826741
   93      H      -7.0283978413    -3.1977126939     4.9824904501
   94      O      -8.8878871298    -1.7793793571     3.1279414127
   95      C      -8.2929243517    -2.6272379021     2.4906242385
   96      C      -8.6473955019    -3.2350421918     1.0567933039
   97      H      -9.0293515620    -4.2070538619     1.3936016786
   98      H      -7.7082783832    -3.4083454941     0.5170313167
   99      C      -9.6095434905    -2.4201674763     0.0866080401
  100      H      -9.8199149506    -3.1383605453    -0.7145676987
  101      H     -10.5880277559    -2.2391400911     0.5464978401
  102      C      -9.1284106187    -1.0003572783    -0.3932473144
  103      H      -9.9506187666    -0.5966667831    -0.9963217257
  104      H      -9.2322563216    -0.3583711893     0.4900872381
  105      C      -7.7685800410    -0.9791748029    -1.1269073875
  106      C      -7.8074255751    -1.8311356266    -2.3583795875
  107      C      -8.6890939261    -1.4576963220    -3.4000407630
  108      H      -9.3835641930    -0.6443202374    -3.2139322098
  109      C      -8.7868840149    -2.1635837418    -4.5354499620
  110      H      -9.5594886203    -1.7599013343    -5.1846707546
  111      C      -8.0756423282    -3.2730577177    -4.6854924891
  112      H      -8.1710998646    -3.8542866103    -5.5984206533
  113      C      -7.1782712078    -3.7685698829    -3.7044666146
  114      H      -6.5873002828    -4.6479581390    -3.9423755485
  115      C      -7.0624926474    -3.0109023126    -2.4966817919
  116      H      -6.4598026576    -3.4634985158    -1.7144705333
  117      C      -2.2305658204    -1.2979586333    -0.9486116741
  118      C      -2.6750632844     0.2534180931    -2.7392655371
  119      C      -1.3185489388     3.9902141291    -0.6043268458
  120      C      -4.7741553447     0.4143184991     3.2752319965
  121      C      -4.5033037882     5.0660072064     0.1194823858
  122      C      -3.0584912548    -0.8845308966    -2.0216834246
  123      C      -4.8692929280     3.2040567529     3.1598659897
  124      C      -0.3759783800     1.8029116875    -0.6321615522
  125      C      -6.0476841784     2.2877150471    -2.2723252753
  126      C      -5.8856632003     1.0588681981     2.7731354196
  127      C      -6.9469951528     0.2986750299    -1.2102685059
  128      C      -6.8063704996     2.7338714668    -1.1879745408
  129      C      -6.7076733575     2.7663007175     1.6059274291
  130      C      -4.4617671500     4.3740999013     2.4831771607
  131      C      -4.8829556407     0.2185232280    -2.6814495216
  132      C      -2.3535582856     4.7089851283     1.2343884401
  133      C      -6.4505495598    -0.8653440790    -0.3924822947
  134      C      -6.2218093124    -0.6975748295     0.9974635237
  135      C      -3.1386244284     5.0894795332     0.1158361797
  136      C      -1.4202697940     1.1662662270     2.6812855954
  137      C      -0.7393176007     2.9454400277     1.5057492510
  138      C      -0.3227168238     1.8512971147     0.7694775087
  139      C      -0.8037812930     0.6485655135    -1.2769402571
  140      C      -5.0158822052    -1.2765935367     1.4431092898
  141      C      -6.0698673996     0.8569923112    -2.2971115112
  142      C      -1.5020212740     1.0030715185    -2.4512044613
  143      C      -5.9485750327     2.4462282984     2.7564305277
  144      C      -3.7841782830     0.9707512924    -3.2315215692
  145      C      -6.4117419541     3.9329413896    -0.5104506436
  146      C      -2.9147077325    -0.7750286240     2.5709472541
  147      C      -0.8122165766     2.9170534463    -1.3871280263
  148      C      -7.2406750438     1.6152144987    -0.4537673830
  149      C      -1.1226862412    -0.4141690560     0.8502423559
  150      C      -6.3157231776     3.9726517260     0.8772757285
  151      C      -4.9745482332     3.0088466132    -2.7379844935
  152      C      -2.5768247718     3.2775972523     3.1047792614
  153      C      -3.6808906507     2.5759941930     3.6115599658
  154      C      -4.6024288144     4.2375037577    -2.1079783354
  155      C      -4.3354642672    -0.7368467293     2.5742656953
  156      C      -6.6082111909     0.5014126358     1.6777205679
  157      C      -2.4866065455     0.4086198594     3.2184251622
  158      C      -5.0314126145    -1.3449279664    -0.8060770547
  159      C      -2.7432661694     3.1195087060    -2.9003244240
  160      C      -7.1612231316     1.6096486693     0.9753184839
  161      C      -5.2536265088     4.6550877231    -0.9542820172
  162      C      -2.1903286556    -1.1589270793     1.3746860248
  163      C      -2.4668281718     4.6834820910    -1.0462536905
  164      C      -1.1528739551    -0.4788453022    -0.5645575187
  165      C      -1.2062617875     4.0348055894     0.7945581378
  166      C      -3.8509400223     2.3739791846    -3.2414891473
  167      C      -3.1861189951     4.2232294937    -2.1650987460
  168      C      -4.3954760126    -0.8909963114    -1.9493511648
  169      C      -4.2868620066    -1.7111303940     0.3129556411
  170      C      -1.4403650936     2.5590386557     2.6299909476
  171      C      -1.5493954213     2.4204451586    -2.4979554474
  172      C      -5.1751272027     4.7497530738     1.2988540928
  173      C      -3.6031310536     1.1521928861     3.6332229161
  174      C      -3.0651435650     4.3774756714     2.4326087330
  175      C      -2.8993674365    -1.6796866359     0.2332178950
  176      C      -0.7439955108     0.7609359910     1.5314636555
 ----------------------------------------------------------------

    9   -5804.2751414022      8.52E-06 Convergence criterion met
 Total energy in the final basis set = -5804.2751414022

                    Orbital Energies (a.u.)
 --------------------------------------------------------------

 Alpha MOs
 -- Occupied --
-19.192 -19.189 -19.141 -19.139 -10.322 -10.315 -10.250 -10.248
-10.245 -10.243 -10.242 -10.238 -10.236 -10.234 -10.230 -10.228
-10.228 -10.227 -10.227 -10.226 -10.226 -10.224 -10.224 -10.224
-10.224 -10.224 -10.224 -10.223 -10.223 -10.222 -10.222 -10.222
-10.222 -10.222 -10.221 -10.221 -10.221 -10.220 -10.220 -10.220
-10.220 -10.220 -10.220 -10.219 -10.219 -10.219 -10.219 -10.219
-10.218 -10.218 -10.218 -10.218 -10.218 -10.217 -10.217 -10.217
-10.217 -10.217 -10.217 -10.217 -10.217 -10.217 -10.217 -10.216
-10.216 -10.216 -10.216 -10.216 -10.216 -10.216 -10.215 -10.215
-10.215 -10.215 -10.215 -10.215 -10.215 -10.214 -10.214 -10.214
-10.214 -10.214 -10.214 -10.214 -10.214 -10.214 -10.214 -10.214
-10.213 -10.213 -10.213 -10.213 -10.213 -10.213 -10.213 -10.213
-10.213 -10.213 -10.213 -10.212 -10.212 -10.212 -10.212 -10.212
-10.212 -10.212 -10.211 -10.211 -10.211 -10.211 -10.211 -10.211
-10.211 -10.210 -10.210 -10.210 -10.210 -10.210 -10.210 -10.210
-10.209 -10.209 -10.208 -10.208 -10.208 -10.207 -10.207 -10.207
-10.207 -10.206 -10.206 -10.205 -10.205 -10.204 -10.204 -10.204
-10.204 -10.199 -10.198 -10.198 -10.197 -10.195 -10.195 -10.192
-10.192 -10.189 -10.185 -10.184  -1.092  -1.091  -1.022  -1.014
 -0.985  -0.983  -0.969  -0.967  -0.965  -0.964  -0.963  -0.959
 -0.938  -0.936  -0.929  -0.929  -0.927  -0.926  -0.924  -0.923
 -0.921  -0.918  -0.902  -0.899  -0.891  -0.889  -0.887  -0.882
 -0.879  -0.877  -0.866  -0.855  -0.843  -0.841  -0.841  -0.840
 -0.838  -0.838  -0.826  -0.822  -0.802  -0.800  -0.799  -0.798
 -0.798  -0.795  -0.795  -0.793  -0.793  -0.789  -0.785  -0.784
 -0.774  -0.772  -0.770  -0.769  -0.769  -0.768  -0.768  -0.765
 -0.764  -0.747  -0.747  -0.740  -0.739  -0.734  -0.719  -0.715
 -0.714  -0.714  -0.713  -0.712  -0.711  -0.710  -0.710  -0.710
 -0.709  -0.707  -0.706  -0.705  -0.703  -0.698  -0.678  -0.671
 -0.661  -0.660  -0.659  -0.657  -0.652  -0.647  -0.634  -0.631
 -0.629  -0.628  -0.628  -0.626  -0.623  -0.622  -0.618  -0.617
 -0.616  -0.615  -0.615  -0.615  -0.613  -0.612  -0.612  -0.609
 -0.608  -0.605  -0.605  -0.602  -0.575  -0.566  -0.566  -0.562
 -0.561  -0.559  -0.559  -0.558  -0.558  -0.556  -0.553  -0.553
 -0.544  -0.538  -0.536  -0.531  -0.531  -0.528  -0.526  -0.525
 -0.524  -0.522  -0.521  -0.518  -0.517  -0.517  -0.516  -0.514
 -0.511  -0.504  -0.498  -0.497  -0.494  -0.489  -0.489  -0.486
 -0.485  -0.484  -0.483  -0.482  -0.481  -0.480  -0.478  -0.475
 -0.474  -0.472  -0.471  -0.470  -0.469  -0.469  -0.468  -0.468
 -0.466  -0.465  -0.465  -0.464  -0.463  -0.462  -0.462  -0.461
 -0.459  -0.456  -0.455  -0.452  -0.451  -0.449  -0.449  -0.445
 -0.442  -0.441  -0.441  -0.440  -0.438  -0.438  -0.438  -0.437
 -0.433  -0.432  -0.432  -0.429  -0.428  -0.428  -0.427  -0.425
 -0.424  -0.423  -0.422  -0.422  -0.420  -0.420  -0.419  -0.419
 -0.418  -0.418  -0.417  -0.417  -0.416  -0.415  -0.415  -0.414
 -0.411  -0.410  -0.410  -0.409  -0.403  -0.400  -0.399  -0.397
 -0.396  -0.393  -0.392  -0.391  -0.390  -0.389  -0.386  -0.384
 -0.384  -0.381  -0.377  -0.375  -0.374  -0.373  -0.369  -0.367
 -0.365  -0.365  -0.364  -0.362  -0.361  -0.360  -0.360  -0.358
 -0.357  -0.357  -0.356  -0.355  -0.354  -0.353  -0.352  -0.351
 -0.351  -0.349  -0.348  -0.348  -0.347  -0.346  -0.345  -0.345
 -0.343  -0.341  -0.340  -0.339  -0.339  -0.338  -0.336  -0.333
 -0.333  -0.331  -0.330  -0.329  -0.329  -0.328  -0.327  -0.324
 -0.320  -0.307  -0.302  -0.301  -0.291  -0.286  -0.275  -0.272
 -0.270  -0.269  -0.268  -0.268  -0.267  -0.267  -0.266  -0.266
 -0.264  -0.263  -0.262  -0.260  -0.260  -0.259  -0.257  -0.255
 -0.253  -0.247  -0.244  -0.240  -0.226  -0.222  -0.215  -0.212
 -0.210  -0.208  -0.208  -0.207  -0.204  -0.198

          Ground-State Mulliken Net Atomic Charges

     Atom                 Charge (a.u.)
  ----------------------------------------
      1 O                    -0.481188
      2 C                    -0.091750
      3 H                     0.134207
      4 H                     0.128312
      5 H                     0.120515
      6 O                    -0.444543
      7 C                     0.579948
      8 C                    -0.243070
      9 H                     0.115521
     10 H                     0.121452
     11 C                    -0.200418
     12 H                     0.119770
     13 H                     0.130867
     14 C                    -0.175761
     15 H                     0.108252
     16 H                     0.111815
     17 C                     0.020514
     18 C                     0.097421
     19 C                    -0.107958
     20 H                     0.086419
     21 C                    -0.100495
     22 H                     0.091511
     23 C                    -0.083922
     24 H                     0.085008
     25 C                    -0.084366
     26 H                     0.087995
     27 C                    -0.100695
     28 H                     0.088655
     29 C                    -0.045686
     30 C                    -0.011745
     31 C                    -0.022707
     32 C                    -0.002524
     33 C                    -0.017884
     34 C                     0.039024
     35 C                    -0.016111
     36 C                     0.004405
     37 C                     0.002832
     38 C                    -0.025855
     39 C                    -0.111017
     40 C                     0.012971
     41 C                     0.008730
     42 C                     0.021657
     43 C                     0.020046
     44 C                    -0.015578
     45 C                    -0.106578
     46 C                     0.020579
     47 C                     0.008090
     48 C                     0.010103
     49 C                    -0.017328
     50 C                     0.001005
     51 C                    -0.030855
     52 C                     0.019000
     53 C                     0.033840
     54 C                    -0.008157
     55 C                     0.011894
     56 C                    -0.036084
     57 C                    -0.015637
     58 C                     0.008719
     59 C                    -0.003218
     60 C                     0.045866
     61 C                     0.008086
     62 C                    -0.024161
     63 C                     0.024685
     64 C                     0.017715
     65 C                     0.010558
     66 C                     0.005094
     67 C                    -0.013017
     68 C                    -0.008408
     69 C                    -0.034273
     70 C                    -0.004808
     71 C                    -0.029411
     72 C                     0.011597
     73 C                    -0.019003
     74 C                     0.012175
     75 C                    -0.005010
     76 C                     0.000050
     77 C                     0.030126
     78 C                    -0.016995
     79 C                     0.008097
     80 C                     0.039077
     81 C                     0.009791
     82 C                     0.005191
     83 C                     0.063819
     84 C                     0.008986
     85 C                     0.006353
     86 C                    -0.023296
     87 C                     0.002500
     88 C                    -0.013936
     89 O                    -0.463075
     90 C                    -0.082031
     91 H                     0.129816
     92 H                     0.126131
     93 H                     0.122626
     94 O                    -0.475381
     95 C                     0.587223
     96 C                    -0.253626
     97 H                     0.136788
     98 H                     0.130331
     99 C                    -0.187248
    100 H                     0.113216
    101 H                     0.113340
    102 C                    -0.209864
    103 H                     0.114686
    104 H                     0.135757
    105 C                     0.029514
    106 C                     0.097455
    107 C                    -0.101408
    108 H                     0.087421
    109 C                    -0.051810
    110 H                     0.092339
    111 C                    -0.093669
    112 H                     0.084759
    113 C                    -0.101073
    114 H                     0.097222
    115 C                    -0.136548
    116 H                     0.098528
    117 C                    -0.002738
    118 C                    -0.006848
    119 C                     0.002764
    120 C                    -0.021208
    121 C                     0.051004
    122 C                     0.006685
    123 C                     0.022643
    124 C                     0.023211
    125 C                     0.012980
    126 C                     0.009092
    127 C                    -0.076746
    128 C                     0.018231
    129 C                    -0.021086
    130 C                    -0.012350
    131 C                    -0.033389
    132 C                    -0.000971
    133 C                    -0.083779
    134 C                     0.030319
    135 C                    -0.004154
    136 C                     0.010134
    137 C                    -0.030297
    138 C                     0.020252
    139 C                     0.012270
    140 C                     0.020108
    141 C                     0.031476
    142 C                    -0.017209
    143 C                     0.018484
    144 C                    -0.009372
    145 C                    -0.017393
    146 C                    -0.020836
    147 C                    -0.028918
    148 C                     0.008908
    149 C                    -0.019981
    150 C                    -0.008515
    151 C                     0.014094
    152 C                    -0.003344
    153 C                    -0.011596
    154 C                    -0.024265
    155 C                    -0.018363
    156 C                     0.025506
    157 C                    -0.009674
    158 C                    -0.009262
    159 C                     0.001946
    160 C                    -0.013149
    161 C                     0.001961
    162 C                     0.005405
    163 C                    -0.010418
    164 C                     0.002250
    165 C                     0.016872
    166 C                     0.006737
    167 C                     0.002615
    168 C                     0.040381
    169 C                     0.025233
    170 C                     0.034361
    171 C                    -0.007172
    172 C                    -0.026014
    173 C                    -0.006157
    174 C                    -0.004614
    175 C                    -0.020011
    176 C                    -0.004907
  ----------------------------------------
  Sum of atomic charges =     0.000000

                    Cartesian Multipole Moments
 -----------------------------------------------------------------
    Charge (ESU x 10^10)
                 0.0000
    Dipole Moment (Debye)
         X      -3.7955      Y      -2.0395      Z      -2.1117
       Tot       4.7984
    Quadrupole Moments (Debye-Ang)
        XX    -804.2908     XY       7.3698     YY    -807.1952
        XZ      26.9372     YZ       2.2576     ZZ    -796.8986

 Total job time:  892.25s(wall), 7611.06s(cpu)
        *  Thank you very much for using Q-Chem.  Have a nice day.  *
