 Q-Chem 4.4, Q-Chem, Inc., Pleasanton, CA (2016)
 Q-Chem 4.4.2 for Intel X86 Linux

User input:
--------------------------------------------------------------
$comment
SP
$end

$rem
MEM_STATIC 5000
MEM_TOTAL 20000
JOBTYPE SP
EXCHANGE B3LYP
BASIS 6-31g(d,p)
$end

$molecule
0 1
O         -22.584000     28.521000      0.439000
C         -21.300000     27.886000      0.598000
H         -20.613000     28.490000      1.205000
H         -20.787000     27.504000     -0.293000
H         -21.421000     26.953000      1.161000
O         -23.850000     26.615000      0.274000
C         -23.723000     27.862000      0.175000
C         -24.844000     28.840000     -0.274000
H         -24.630000     29.610000      0.477000
H         -25.855000     28.422000     -0.196000
C         -24.741000     29.411000     -1.680000
H         -25.272000     30.366000     -1.777000
H         -23.707000     29.731000     -1.861000
C         -25.078000     28.423000     -2.754000
H         -25.002000     27.397000     -2.374000
H         -26.113000     28.415000     -3.119000
C         -24.212000     28.635000     -4.115000
C         -24.598000     29.831000     -4.939000
C         -24.060000     31.097000     -4.623000
H         -23.453000     31.083000     -3.722000
C         -24.413000     32.261000     -5.284000
H         -23.955000     33.216000     -5.045000
C         -25.441000     32.202000     -6.225000
H         -25.599000     33.078000     -6.847000
C         -25.983000     30.973000     -6.540000
H         -26.785000     30.972000     -7.273000
C         -25.608000     29.853000     -5.891000
H         -26.109000     28.937000     -6.187000
C         -22.202000     26.313000     -8.639000
C         -20.433000     27.858000     -8.109000
C         -17.375000     24.863000     -6.589000
C         -23.262000     23.308000     -4.686000
C         -18.077000     25.400000     -3.257000
C         -21.819000     27.559000     -8.165000
C         -20.836000     23.102000     -3.283000
C         -18.920000     24.807000     -8.487000
C         -20.401000     28.595000     -4.166000
C         -23.055000     24.082000     -3.506000
C         -22.743000     28.217000     -4.077000
C         -20.676000     27.752000     -3.043000
C         -21.460000     25.178000     -2.147000
C         -19.493000     23.437000     -3.113000
C         -21.443000     28.718000     -6.257000
C         -17.840000     23.593000     -4.837000
C         -23.661000     27.465000     -4.895000
C         -23.899000     26.038000     -4.557000
C         -17.482000     24.850000     -4.379000
C         -20.909000     22.395000     -7.089000
C         -18.759000     22.917000     -7.013000
C         -19.317000     23.536000     -8.136000
C         -19.830000     25.684000     -9.049000
C         -24.180000     25.349000     -5.715000
C         -21.545000     28.793000     -4.880000
C         -19.435000     26.975000     -8.541000
C         -21.821000     23.974000     -2.739000
C         -20.201000     28.641000     -6.919000
C         -19.698000     26.830000     -2.618000
C         -23.190000     23.448000     -6.893000
C         -17.947000     25.448000     -7.762000
C         -22.070000     27.442000     -2.985000
C         -21.667000     24.120000     -8.646000
C         -20.077000     25.552000     -2.165000
C         -19.105000     28.486000     -4.797000
C         -19.771000     22.096000     -4.971000
C         -21.034000     22.286000     -4.347000
C         -18.167000     27.552000     -4.353000
C         -23.825000     23.989000     -5.796000
C         -23.350000     25.413000     -3.421000
C         -22.200000     22.493000     -6.467000
C         -23.506000     27.376000     -6.395000
C         -17.978000     27.613000     -6.615000
C         -22.419000     26.103000     -2.566000
C         -18.417000     26.761000     -3.187000
C         -22.859000     24.269000     -8.025000
C         -17.073000     25.602000     -5.458000
C         -21.194000     25.379000     -9.056000
C         -17.775000     23.556000     -6.235000
C         -18.961000     28.530000     -6.189000
C         -17.483000     26.991000     -5.449000
C         -22.382000     28.052000     -6.990000
C         -23.824000     26.132000     -6.832000
C         -19.752000     22.173000     -6.361000
C         -18.242000     26.811000     -7.748000
C         -19.123000     24.680000     -2.600000
C         -22.244000     22.393000     -5.123000
C         -18.848000     22.872000     -4.182000
C         -23.241000     25.598000     -7.999000
C         -20.658000     23.235000     -8.204000
O         -11.316000     10.157000     -6.717000
C         -10.759000      8.852000     -7.027000
H         -10.742000      8.671000     -8.109000
H         -11.431000      8.090000     -6.613000
H          -9.752000      8.672000     -6.630000
O          -9.480000     11.193000     -7.706000
C         -10.552000     11.265000     -7.178000
C         -11.343000     12.523000     -6.927000
H         -12.342000     12.424000     -7.370000
H         -10.760000     13.291000     -7.450000
C         -11.456000     12.940000     -5.482000
H         -11.855000     12.090000     -4.915000
H         -10.503000     13.255000     -5.038000
C         -12.517000     14.080000     -5.209000
H         -13.446000     13.689000     -5.643000
H         -12.615000     14.249000     -4.130000
C         -12.334000     15.488000     -5.911000
C         -11.081000     16.146000     -5.373000
C          -9.847000     15.914000     -5.935000
H          -9.855000     15.487000     -6.933000
C          -8.657000     16.032000     -5.147000
H          -7.710000     15.657000     -5.522000
C          -8.760000     16.659000     -3.914000
H          -7.852000     16.794000     -3.333000
C          -9.961000     17.082000     -3.354000
H          -9.957000     17.418000     -2.321000
C         -11.148000     16.841000     -4.125000
H         -12.135000     17.040000     -3.719000
C         -14.366000     20.303000     -7.529000
C         -12.611000     19.849000     -9.216000
C         -15.472000     18.912000    -12.570000
C         -17.612000     16.433000     -7.340000
C         -15.227000     15.448000    -12.287000
C         -13.077000     19.769000     -7.882000
C         -17.780000     15.223000     -9.782000
C         -15.506000     20.703000    -10.934000
C         -12.113000     15.856000     -9.659000
C         -16.917000     15.240000     -7.576000
C         -12.708000     15.704000     -7.347000
C         -13.016000     14.792000     -9.620000
C         -15.700000     14.034000     -9.103000
C         -17.381000     15.217000    -11.075000
C         -11.883000     17.937000     -8.263000
C         -16.959000     17.177000    -12.542000
C         -13.463000     16.396000     -6.275000
C         -15.000000     16.072000     -6.248000
C         -15.651000     16.704000    -12.797000
C         -18.220000     19.221000     -9.327000
C         -17.460000     19.300000    -11.359000
C         -16.821000     20.330000    -10.652000
C         -14.612000     21.032000     -9.901000
C         -15.672000     17.299000     -6.064000
C         -11.965000     16.498000     -8.389000
C         -13.342000     20.470000    -10.201000
C         -16.952000     14.615000     -8.775000
C         -11.857000     18.689000     -9.428000
C         -13.892000     14.507000    -10.696000
C         -17.371000     18.672000     -7.130000
C         -14.821000     19.938000    -11.901000
C         -13.495000     14.716000     -8.254000
C         -16.478000     20.628000     -8.271000
C         -15.206000     14.113000    -10.435000
C         -12.146000     16.684000    -10.797000
C         -18.469000     17.211000    -10.658000
C         -18.470000     16.386000     -9.541000
C         -13.046000     16.468000    -11.845000
C         -16.956000     17.454000     -6.586000
C         -15.611000     15.093000     -7.121000
C         -18.270000     18.430000     -8.164000
C         -13.491000     17.874000     -6.396000
C         -12.827000     18.716000    -11.613000
C         -14.826000     14.472000     -8.085000
C         -13.908000     15.321000    -11.842000
C         -16.510000     19.772000     -7.131000
C         -14.733000     17.811000    -12.805000
C         -15.137000     20.913000     -8.541000
C         -16.829000     18.560000    -12.376000
C         -12.028000     18.096000    -10.690000
C         -13.419000     17.708000    -12.356000
C         -12.639000     18.617000     -7.249000
C         -14.777000     18.346000     -6.160000
C         -18.342000     18.578000    -10.530000
C         -13.507000     19.861000    -11.432000
C         -16.080000     14.691000    -11.423000
C         -18.429000     17.023000     -8.307000
C         -17.853000     16.433000    -11.699000
C         -15.223000     19.601000     -6.668000
C         -17.297000     20.332000     -9.412000
$end

--------------------------------------------------------------

             Standard Nuclear Orientation (Angstroms)
    I     Atom           X                Y                Z
 ----------------------------------------------------------------
    1      O      10.0221446658     4.8480912802    -0.5925060967
    2      C       8.8197602539     5.4556395473    -0.0803353936
    3      H       9.0335436408     6.2124988822     0.6856245340
    4      H       7.9978206727     4.8058458578     0.2439445566
    5      H       8.3184139393     6.0077417214    -0.8840356252
    6      O       9.2625712202     4.4042908397    -2.7112100283
    7      C      10.1195064158     4.2718003964    -1.8006896535
    8      C      11.4153120103     3.4213880151    -1.9121016952
    9      H      12.0715016431     4.1499789313    -1.4209118717
   10      H      11.7093802087     3.1938620888    -2.9439373641
   11      C      11.4347744819     2.0912072319    -1.1747237078
   12      H      12.4553740619     1.7658976001    -0.9381964561
   13      H      11.0257387652     2.2353031967    -0.1666348549
   14      C      10.6014239771     1.0319235031    -1.8278959041
   15      H       9.8661765421     1.4812359998    -2.5064100820
   16      H      11.1114058784     0.3521576683    -2.5224107493
   17      C       9.9078563760     0.0148918119    -0.7640201962
   18      C      10.8429046815    -0.9649542735    -0.1128870952
   19      C      11.5782457701    -0.5736730397     1.0265112019
   20      H      11.4397613410     0.4744588078     1.2768863069
   21      C      12.5108318848    -1.3869281798     1.6472568952
   22      H      13.0349952074    -1.0742501173     2.5452520179
   23      C      12.8308635396    -2.6047120858     1.0469835422
   24      H      13.4376312768    -3.2993514414     1.6201615937
   25      C      12.1265230213    -2.9987292777    -0.0719824477
   26      H      12.4110375664    -3.9506258443    -0.5117987731
   27      C      11.2116975436    -2.1924925280    -0.6458314250
   28      H      10.7282488262    -2.5754244573    -1.5387555400
   29      C       5.7910448295    -3.4527532930     0.1980921244
   30      C       6.0705566632    -2.4780533573     2.3819234298
   31      C       2.3598783307     0.1414066622     2.4148554573
   32      C       5.1157006426     0.1271975468    -3.3385300231
   33      C       4.0336556104     3.0234738894     1.5341993861
   34      C       6.6424931877    -2.9613730170     1.1765920568
   35      C       3.8872854212     2.2516436747    -1.9695721372
   36      C       2.7427280488    -2.1474457389     1.6356598598
   37      C       7.6214678689     1.2059045761     2.0434409683
   38      C       5.8883370149     1.2581078272    -2.9405350814
   39      C       8.7323014162     0.5543108969     0.0491382060
   40      C       7.4224304614     2.2307175430     1.0648984330
   41      C       6.1368346647     2.9875815027    -1.3470195577
   42      C       3.3973118278     2.8262756281    -0.7971822721
   43      C       7.7965133775    -1.1133949913     1.7916819837
   44      C       2.1051880482     1.7256452115     0.8904047106
   45      C       8.4871519821    -0.4670957588    -0.9377671585
   46      C       7.6182839168    -0.1334900603    -2.0957794741
   47      C       2.9757144263     2.1931063365     1.8607865537
   48      C       2.4184137333    -1.3182616400    -1.6712333883
   49      C       1.5730895102    -0.5825255320     0.2379233200
   50      C       2.0904461514    -1.8632051733     0.4566829189
   51      C       3.8080826088    -3.0295310576     1.6399203980
   52      C       6.9600229770    -1.2731215291    -2.4989899034
   53      C       8.2647849763     0.1481585253     1.4733073075
   54      C       4.6956590826    -2.5050679817     2.6488388711
   55      C       5.2746161030     2.3892791671    -2.2575218735
   56      C       6.8379339381    -1.3301735801     2.8020628533
   57      C       6.2476371089     3.0084765960     1.1112064720
   58      C       4.6186789540    -1.9412028348    -2.7299888967
   59      C       2.8466497849    -1.1888120504     2.6121109462
   60      C       8.0196675750     1.8530922219    -0.1774408713
   61      C       3.7916248792    -3.1445981099    -0.8033484608
   62      C       5.6053684970     3.3952658862    -0.0804390605
   63      C       6.6144502771     1.0379622003     3.0668514081
   64      C       2.0586966542     1.0689967827    -1.4663679537
   65      C       3.1066669421     1.2358267135    -2.4121856158
   66      C       5.4588269412     1.8214451360     3.0718708574
   67      C       5.6868862605    -1.1468274041    -3.0866621720
   68      C       7.1049303612     1.1569236826    -2.3277762392
   69      C       3.4117559356    -1.1564821240    -2.6960590600
   70      C       7.9456222113    -1.8266263435    -0.5631098530
   71      C       4.8183247271    -0.2558101164     3.7282651978
   72      C       7.3042769890     2.2214565328    -1.3786099035
   73      C       5.2959309574     2.8916017654     2.1359399375
   74      C       4.7655875250    -2.9549224443    -1.7221117092
   75      C       3.0372722830     1.2591535048     2.8712165307
   76      C       4.3749477701    -3.4590846795     0.4367090389
   77      C       1.6825013112     0.4298223107     1.2100559772
   78      C       6.2089569009    -0.2317792604     3.4954161579
   79      C       4.3466916799     1.0452000275     3.4518599260
   80      C       7.6513620436    -2.0669369106     0.8261485050
   81      C       7.0668803895    -2.2621276428    -1.5000092227
   82      C       1.7525954778    -0.2415406811    -1.1097398200
   83      C       4.0697160204    -1.3590589454     3.2602737177
   84      C       4.2640409461     3.3504352497     0.1615436149
   85      C       3.7032048051     0.1040137801    -3.0761638247
   86      C       2.3119343477     2.0631135146    -0.4543261592
   87      C       6.0168179715    -3.1398854163    -1.1626011475
   88      C       2.6313101081    -2.3431192270    -0.7140667048
   89      O     -12.5229880320     2.9332510459    -2.4534291244
   90      C     -13.9311157428     2.9054404941    -2.8080795485
   91      H     -14.3555747160     1.9015223081    -2.6825532330
   92      H     -14.0149388517     3.1271388034    -3.8792693291
   93      H     -14.5607322186     3.6184215048    -2.2609971307
   94      O     -13.0603455864     2.5289727177    -0.2240527784
   95      C     -12.2397720738     2.6747775108    -1.0834433024
   96      C     -10.7450311378     2.5740084459    -0.9196106747
   97      H     -10.3459285576     1.8381727446    -1.6290569032
   98      H     -10.6319891902     2.2201822857     0.1125087789
   99      C      -9.9905341557     3.8741492356    -1.0422941340
  100      H     -10.2635736132     4.3344798330    -1.9997570292
  101      H     -10.1965642094     4.5820985048    -0.2293184583
  102      C      -8.4218473792     3.7141298080    -1.1583354193
  103      H      -8.2857127157     3.0282971915    -2.0041362089
  104      H      -7.9596935904     4.6897070385    -1.3508683846
  105      C      -7.6278961727     3.0203936303     0.0236665255
  106      C      -7.7233297724     3.8923131624     1.2577920287
  107      C      -8.7706725927     3.7772866673     2.1422500108
  108      H      -9.3477945147     2.8603631633     2.0745848424
  109      C      -9.1797308285     4.8994508403     2.9324315904
  110      H     -10.1202850743     4.8769780762     3.4736447513
  111      C      -8.3239673872     5.9892533908     2.9958849877
  112      H      -8.6067475557     6.8234755292     3.6317771170
  113      C      -7.1499899357     6.1008050190     2.2581430426
  114      H      -6.6314291417     7.0553180632     2.2574004572
  115      C      -6.8327516631     5.0035749685     1.3881217240
  116      H      -5.9958166820     5.0536530651     0.6984565722
  117      C      -3.1493817728     0.5242028979     1.9323607382
  118      C      -4.9601912377    -0.4691473108     3.2984992541
  119      C      -4.8497494141    -4.5023245129     1.2900445595
  120      C      -4.1606794536    -0.1015567927    -2.9803614004
  121      C      -7.5799543750    -3.9327759737    -0.7982574619
  122      C      -4.4076026661     0.6436965162     2.6207555804
  123      C      -5.6122382348    -2.3826983278    -3.3612267327
  124      C      -3.0387592380    -3.0847505452     2.0621401677
  125      C      -8.4301085992    -0.4685819146     1.2133193613
  126      C      -5.5452281178    -0.0219657945    -3.1769835496
  127      C      -7.6077774472     1.5299802538     0.1876519027
  128      C      -8.7052373131    -0.6562847519    -0.1424453069
  129      C      -7.5757326715    -0.9904823417    -2.7228019171
  130      C      -6.1809487189    -3.4730540635    -2.7966217778
  131      C      -6.6130694832     0.7894965363     2.4166000695
  132      C      -5.2988980371    -4.8467066327    -0.9239663867
  133      C      -6.3594493928     2.2521061835    -0.1562728130
  134      C      -5.6966973216     1.7997276675    -1.5068976204
  135      C      -6.4965330295    -4.6324919281    -0.2032719401
  136      C      -2.1695599246    -2.3534417252    -1.2324385555
  137      C      -3.0736966578    -4.0295301175    -0.1902632012
  138      C      -2.4793068424    -3.2212978039     0.7908235812
  139      C      -3.0493190826    -1.8410059077     2.7160161241
  140      C      -4.3128372282     1.6763383925    -1.2605739942
  141      C      -7.7011207629     0.7366147571     1.4644084237
  142      C      -4.3043465516    -1.6758586510     3.3612884972
  143      C      -6.3095871712    -1.1245884976    -3.3485335776
  144      C      -6.3480254604    -0.3498878356     3.1615563897
  145      C      -8.6824580001    -1.9376004343    -0.7458425433
  146      C      -2.5309234471     0.0306894803    -1.4177647529
  147      C      -4.2751686482    -3.7258017111     2.2854878185
  148      C      -8.1337792931     0.4822819019    -0.8340193857
  149      C      -1.8460914334    -0.8822319512     0.7323156113
  150      C      -8.1450567348    -2.0922891480    -2.0253831960
  151      C      -8.0651491271    -1.6065225205     1.9573709463
  152      C      -3.9043817705    -3.5609149522    -2.4182140692
  153      C      -4.2523790878    -2.4540172876    -3.1810970401
  154      C      -7.9681680145    -2.8736435744     1.3743110022
  155      C      -3.5712300022     0.7571249059    -2.0023490872
  156      C      -6.3107067485     0.8406430867    -2.3996686945
  157      C      -2.4509163965    -1.2212215976    -2.0196272993
  158      C      -5.2396445060     2.0336910209     0.7914828687
  159      C      -6.3129562738    -2.7283536126     2.9217133159
  160      C      -7.4947018980     0.2256007455    -2.0110295246
  161      C      -8.3402830745    -3.0766734055     0.0035552727
  162      C      -2.1937760075     0.2383077314    -0.0781572486
  163      C      -6.1893403889    -4.4134352337     1.1844902320
  164      C      -2.4853150259    -0.7202592244     1.9642101013
  165      C      -4.2718782984    -4.7368972299     0.0195999074
  166      C      -7.0238405965    -1.5581520039     2.9230074396
  167      C      -6.9272915480    -3.5567251531     1.9970675665
  168      C      -5.3881326229     1.4573357415     2.0765228957
  169      C      -4.0605624037     1.8087487567     0.0904533587
  170      C      -2.8975520513    -3.4869096913    -1.4790553298
  171      C      -4.9880750883    -2.8518912650     3.1104308103
  172      C      -7.4388191938    -3.3454632357    -2.0952920059
  173      C      -3.4734289045    -1.3171906411    -3.0048364719
  174      C      -5.1290078224    -4.2933518681    -2.2386362386
  175      C      -2.9644524382     1.1038461719     0.6680867109
  176      C      -1.8818506976    -2.2056852091     0.1778331959
 ----------------------------------------------------------------

    9   -5804.2287993178      8.87E-06 Convergence criterion met
 Total energy in the final basis set = -5804.2287993178

                    Orbital Energies (a.u.)
 --------------------------------------------------------------

 Alpha MOs
 -- Occupied --
-19.202 -19.187 -19.148 -19.133 -10.324 -10.319 -10.246 -10.243
-10.242 -10.242 -10.240 -10.240 -10.240 -10.232 -10.232 -10.231
-10.230 -10.229 -10.228 -10.227 -10.225 -10.224 -10.224 -10.224
-10.223 -10.222 -10.222 -10.221 -10.221 -10.221 -10.220 -10.220
-10.220 -10.220 -10.220 -10.219 -10.219 -10.219 -10.219 -10.218
-10.218 -10.218 -10.217 -10.217 -10.217 -10.217 -10.217 -10.217
-10.217 -10.216 -10.216 -10.216 -10.216 -10.216 -10.216 -10.216
-10.216 -10.216 -10.215 -10.215 -10.215 -10.215 -10.215 -10.214
-10.214 -10.214 -10.214 -10.214 -10.214 -10.214 -10.214 -10.214
-10.213 -10.213 -10.213 -10.213 -10.213 -10.213 -10.213 -10.213
-10.213 -10.213 -10.212 -10.212 -10.212 -10.212 -10.212 -10.212
-10.212 -10.212 -10.212 -10.212 -10.212 -10.211 -10.211 -10.211
-10.211 -10.211 -10.211 -10.211 -10.211 -10.211 -10.210 -10.210
-10.210 -10.210 -10.210 -10.210 -10.210 -10.210 -10.210 -10.209
-10.209 -10.209 -10.209 -10.209 -10.209 -10.209 -10.209 -10.209
-10.208 -10.208 -10.208 -10.208 -10.208 -10.208 -10.207 -10.206
-10.206 -10.206 -10.205 -10.205 -10.205 -10.204 -10.203 -10.203
-10.202 -10.202 -10.201 -10.201 -10.199 -10.198 -10.197 -10.196
-10.195 -10.194 -10.194 -10.191  -1.096  -1.086  -1.015  -0.993
 -0.983  -0.982  -0.968  -0.967  -0.964  -0.962  -0.959  -0.958
 -0.937  -0.936  -0.926  -0.926  -0.926  -0.924  -0.923  -0.922
 -0.921  -0.920  -0.900  -0.898  -0.890  -0.889  -0.888  -0.884
 -0.876  -0.874  -0.862  -0.852  -0.845  -0.841  -0.839  -0.838
 -0.835  -0.833  -0.822  -0.817  -0.813  -0.809  -0.799  -0.799
 -0.797  -0.794  -0.794  -0.793  -0.790  -0.789  -0.783  -0.781
 -0.771  -0.770  -0.769  -0.767  -0.766  -0.765  -0.763  -0.762
 -0.757  -0.749  -0.745  -0.738  -0.734  -0.731  -0.717  -0.715
 -0.714  -0.714  -0.712  -0.710  -0.710  -0.709  -0.709  -0.708
 -0.707  -0.707  -0.705  -0.702  -0.702  -0.697  -0.672  -0.671
 -0.661  -0.658  -0.655  -0.654  -0.649  -0.647  -0.631  -0.630
 -0.629  -0.627  -0.625  -0.625  -0.624  -0.624  -0.619  -0.617
 -0.615  -0.614  -0.612  -0.611  -0.611  -0.609  -0.608  -0.608
 -0.604  -0.603  -0.602  -0.601  -0.576  -0.569  -0.563  -0.562
 -0.562  -0.559  -0.558  -0.557  -0.556  -0.555  -0.553  -0.552
 -0.537  -0.537  -0.531  -0.531  -0.529  -0.529  -0.528  -0.523
 -0.522  -0.522  -0.519  -0.518  -0.517  -0.514  -0.514  -0.513
 -0.507  -0.504  -0.501  -0.497  -0.495  -0.489  -0.486  -0.485
 -0.485  -0.484  -0.481  -0.480  -0.478  -0.476  -0.474  -0.473
 -0.471  -0.471  -0.469  -0.469  -0.468  -0.467  -0.466  -0.466
 -0.465  -0.464  -0.464  -0.462  -0.460  -0.459  -0.458  -0.458
 -0.456  -0.455  -0.453  -0.451  -0.448  -0.447  -0.445  -0.443
 -0.442  -0.442  -0.440  -0.439  -0.438  -0.437  -0.435  -0.434
 -0.432  -0.431  -0.428  -0.427  -0.426  -0.425  -0.425  -0.424
 -0.424  -0.421  -0.420  -0.420  -0.420  -0.419  -0.418  -0.417
 -0.417  -0.416  -0.416  -0.415  -0.414  -0.414  -0.413  -0.412
 -0.411  -0.409  -0.409  -0.408  -0.402  -0.400  -0.400  -0.397
 -0.393  -0.392  -0.391  -0.390  -0.390  -0.388  -0.386  -0.384
 -0.382  -0.379  -0.376  -0.372  -0.370  -0.368  -0.367  -0.365
 -0.364  -0.364  -0.363  -0.362  -0.362  -0.360  -0.360  -0.359
 -0.358  -0.356  -0.356  -0.355  -0.354  -0.353  -0.352  -0.351
 -0.350  -0.350  -0.347  -0.346  -0.345  -0.345  -0.344  -0.344
 -0.342  -0.341  -0.340  -0.339  -0.337  -0.336  -0.335  -0.333
 -0.331  -0.329  -0.329  -0.328  -0.328  -0.326  -0.324  -0.324
 -0.314  -0.308  -0.299  -0.297  -0.289  -0.287  -0.277  -0.271
 -0.271  -0.267  -0.267  -0.267  -0.266  -0.264  -0.263  -0.262
 -0.262  -0.261  -0.261  -0.259  -0.257  -0.256  -0.255  -0.252
 -0.250  -0.247  -0.244  -0.241  -0.223  -0.220  -0.214  -0.212
 -0.209  -0.208  -0.208  -0.203  -0.197  -0.196

          Ground-State Mulliken Net Atomic Charges

     Atom                 Charge (a.u.)
  ----------------------------------------
      1 O                    -0.449344
      2 C                    -0.100970
      3 H                     0.126240
      4 H                     0.133332
      5 H                     0.135507
      6 O                    -0.495121
      7 C                     0.591233
      8 C                    -0.238599
      9 H                     0.126128
     10 H                     0.129676
     11 C                    -0.188319
     12 H                     0.118048
     13 H                     0.119645
     14 C                    -0.190335
     15 H                     0.132050
     16 H                     0.113289
     17 C                    -0.021318
     18 C                     0.104764
     19 C                    -0.110012
     20 H                     0.082250
     21 C                    -0.088316
     22 H                     0.092235
     23 C                    -0.090866
     24 H                     0.090586
     25 C                    -0.078117
     26 H                     0.089240
     27 C                    -0.107609
     28 H                     0.083168
     29 C                    -0.014720
     30 C                    -0.003321
     31 C                    -0.001848
     32 C                    -0.019865
     33 C                    -0.001736
     34 C                    -0.015371
     35 C                     0.027434
     36 C                     0.014014
     37 C                    -0.000922
     38 C                    -0.018758
     39 C                    -0.085114
     40 C                    -0.002007
     41 C                     0.003883
     42 C                     0.007969
     43 C                     0.036495
     44 C                     0.001290
     45 C                    -0.105910
     46 C                     0.057704
     47 C                     0.046739
     48 C                    -0.004669
     49 C                    -0.000777
     50 C                     0.008652
     51 C                    -0.013528
     52 C                    -0.010188
     53 C                     0.034639
     54 C                    -0.018485
     55 C                    -0.013779
     56 C                    -0.016514
     57 C                    -0.001661
     58 C                    -0.005533
     59 C                     0.024275
     60 C                     0.032376
     61 C                     0.022068
     62 C                     0.002718
     63 C                     0.010115
     64 C                    -0.039337
     65 C                     0.012469
     66 C                     0.012441
     67 C                     0.000852
     68 C                     0.008370
     69 C                    -0.000735
     70 C                     0.027079
     71 C                    -0.005051
     72 C                     0.014753
     73 C                    -0.045236
     74 C                    -0.002528
     75 C                    -0.029924
     76 C                     0.002755
     77 C                    -0.009853
     78 C                    -0.030105
     79 C                    -0.004150
     80 C                     0.009605
     81 C                     0.023710
     82 C                     0.021180
     83 C                     0.002579
     84 C                    -0.016090
     85 C                    -0.007797
     86 C                    -0.017883
     87 C                    -0.003131
     88 C                    -0.007591
     89 O                    -0.487341
     90 C                    -0.084763
     91 H                     0.122519
     92 H                     0.118623
     93 H                     0.127452
     94 O                    -0.442486
     95 C                     0.591287
     96 C                    -0.240022
     97 H                     0.132222
     98 H                     0.128038
     99 C                    -0.194010
    100 H                     0.124117
    101 H                     0.122408
    102 C                    -0.181014
    103 H                     0.106094
    104 H                     0.114746
    105 C                     0.000197
    106 C                     0.102690
    107 C                    -0.126030
    108 H                     0.091048
    109 C                    -0.086575
    110 H                     0.100502
    111 C                    -0.083500
    112 H                     0.084721
    113 C                    -0.082896
    114 H                     0.098743
    115 C                    -0.125616
    116 H                     0.087905
    117 C                    -0.017778
    118 C                     0.041416
    119 C                     0.013794
    120 C                    -0.003508
    121 C                    -0.015212
    122 C                    -0.006487
    123 C                     0.035942
    124 C                    -0.025412
    125 C                    -0.002452
    126 C                     0.010970
    127 C                    -0.076064
    128 C                    -0.001782
    129 C                    -0.031665
    130 C                    -0.007710
    131 C                    -0.011851
    132 C                     0.002683
    133 C                    -0.096227
    134 C                    -0.005782
    135 C                     0.001474
    136 C                    -0.025028
    137 C                    -0.027599
    138 C                     0.064839
    139 C                    -0.019347
    140 C                    -0.000638
    141 C                     0.027313
    142 C                    -0.009005
    143 C                    -0.003329
    144 C                    -0.024718
    145 C                     0.021587
    146 C                     0.023124
    147 C                     0.009729
    148 C                     0.008446
    149 C                    -0.021003
    150 C                    -0.017553
    151 C                    -0.009067
    152 C                     0.021970
    153 C                     0.006524
    154 C                     0.004109
    155 C                     0.000493
    156 C                    -0.007074
    157 C                    -0.011162
    158 C                     0.068005
    159 C                     0.025459
    160 C                     0.035188
    161 C                    -0.004072
    162 C                     0.000360
    163 C                     0.001840
    164 C                     0.000807
    165 C                    -0.007934
    166 C                    -0.003409
    167 C                    -0.011133
    168 C                    -0.010600
    169 C                     0.019970
    170 C                     0.027183
    171 C                     0.004904
    172 C                    -0.002408
    173 C                    -0.022253
    174 C                    -0.046111
    175 C                    -0.004869
    176 C                    -0.007458
  ----------------------------------------
  Sum of atomic charges =     0.000000

                    Cartesian Multipole Moments
 -----------------------------------------------------------------
    Charge (ESU x 10^10)
                 0.0000
    Dipole Moment (Debye)
         X       2.6941      Y       1.9230      Z       0.1761
       Tot       3.3147
    Quadrupole Moments (Debye-Ang)
        XX    -742.7163     XY     -27.5454     YY    -790.0442
        XZ      27.3145     YZ       9.5765     ZZ    -814.4733

 Total job time:  853.28s(wall), 7241.46s(cpu)
        *  Thank you very much for using Q-Chem.  Have a nice day.  *
