 Q-Chem 4.4, Q-Chem, Inc., Pleasanton, CA (2016)
 Q-Chem 4.4.2 for Intel X86 Linux

User input:
--------------------------------------------------------------
$comment
SP
$end

$rem
MEM_STATIC 5000
MEM_TOTAL 20000
JOBTYPE SP
EXCHANGE B3LYP
BASIS 6-31g(d,p)
$end

$molecule
0 1
O         -18.767000      0.642000      9.871000
C         -20.161000      0.465000      9.415000
H         -20.309000     -0.361000      8.708000
H         -20.458000      1.405000      8.933000
H         -20.783000      0.293000     10.302000
O         -17.969000      1.102000      7.864000
C         -17.799000      0.922000      9.030000
C         -16.302000      0.861000      9.646000
H         -16.249000      1.660000     10.397000
H         -15.571000      1.213000      8.908000
C         -15.942000     -0.555000     10.206000
H         -16.719000     -0.893000     10.903000
H         -15.913000     -1.277000      9.380000
C         -14.625000     -0.559000     11.010000
H         -13.795000     -0.285000     10.347000
H         -14.836000      0.233000     11.738000
C         -14.180000     -1.868000     11.599000
C         -15.203000     -2.269000     12.696000
C         -16.003000     -3.419000     12.555000
H         -16.075000     -3.870000     11.569000
C         -16.849000     -3.950000     13.585000
H         -17.404000     -4.867000     13.412000
C         -16.917000     -3.240000     14.807000
H         -17.616000     -3.605000     15.554000
C         -16.195000     -2.060000     14.992000
H         -16.198000     -1.442000     15.885000
C         -15.294000     -1.637000     13.955000
H         -14.667000     -0.761000     14.087000
C         -10.198000     -4.294000     14.436000
C         -11.408000     -6.211000     13.478000
C          -8.392000     -7.489000     10.507000
C          -8.660000     -1.076000     10.679000
C          -9.885000     -5.847000      7.808000
C         -11.406000     -4.889000     13.968000
C          -8.297000     -2.582000      8.347000
C          -8.037000     -6.748000     12.771000
C         -13.171000     -5.093000     10.071000
C          -9.719000     -1.100000      9.702000
C         -13.339000     -2.930000     10.942000
C         -12.771000     -4.207000      9.013000
C         -10.790000     -2.509000      8.238000
C          -8.443000     -3.927000      7.880000
C         -13.023000     -4.939000     12.444000
C          -7.688000     -6.031000      8.890000
C         -12.686000     -2.039000     11.898000
C         -11.476000     -1.262000     11.387000
C          -8.914000     -6.584000      8.540000
C          -6.550000     -3.665000     11.910000
C          -6.716000     -5.775000     11.079000
C          -7.090000     -5.803000     12.412000
C          -9.021000     -6.318000     13.694000
C         -10.442000     -1.338000     12.353000
C         -13.437000     -4.365000     11.225000
C         -10.222000     -6.939000     13.324000
C          -9.507000     -1.925000      8.576000
C         -12.425000     -6.223000     12.491000
C         -11.817000     -4.673000      8.064000
C          -8.144000     -2.000000     12.707000
C          -8.653000     -7.634000     11.833000
C         -12.745000     -2.879000      9.535000
C          -7.955000     -4.099000     13.856000
C         -10.847000     -3.788000      7.635000
C         -12.575000     -6.360000     10.091000
C          -6.830000     -3.909000      9.461000
C          -7.354000     -2.651000      9.366000
C         -11.660000     -6.813000      9.186000
C          -9.057000     -1.180000     12.052000
C         -11.059000     -1.216000     10.066000
C          -7.166000     -2.372000     11.781000
C         -12.110000     -2.745000     13.104000
C         -11.002000     -7.645000     11.210000
C         -11.729000     -2.050000      9.116000
C         -11.246000     -5.964000      8.144000
C          -8.539000     -2.843000     13.728000
C          -9.377000     -7.467000      9.510000
C          -8.984000     -5.017000     14.243000
C          -7.346000     -6.593000     10.088000
C         -12.265000     -6.992000     11.367000
C         -10.727000     -7.569000      9.819000
C         -12.360000     -4.127000     13.349000
C         -10.868000     -2.205000     13.392000
C          -6.389000     -4.440000     10.743000
C         -10.023000     -7.729000     12.195000
C          -9.647000     -4.502000      7.449000
C          -7.534000     -1.866000     10.541000
C          -7.489000     -4.693000      8.524000
C          -9.904000     -2.937000     14.128000
C          -6.986000     -4.534000     12.921000
O         -11.172000      8.572000      9.938000
C         -10.786000      9.475000      8.932000
H          -9.928000      9.029000      8.415000
H         -10.352000     10.376000      9.383000
H         -11.586000      9.740000      8.230000
O          -8.964000      8.051000     10.368000
C         -10.138000      7.789000     10.486000
C         -10.607000      6.647000     11.340000
H          -9.915000      6.681000     12.191000
H         -10.222000      5.766000     10.813000
C         -12.048000      6.794000     11.827000
H         -12.192000      6.221000     12.751000
H         -12.245000      7.824000     12.151000
C         -13.166000      6.355000     10.845000
H         -14.162000      6.435000     11.299000
H         -13.190000      7.182000     10.125000
C         -13.074000      4.930000     10.156000
C         -13.214000      3.822000     11.178000
C         -14.452000      3.551000     11.743000
H         -15.284000      4.195000     11.472000
C         -14.571000      2.582000     12.725000
H         -15.580000      2.500000     13.118000
C         -13.427000      1.890000     13.213000
H         -13.488000      1.249000     14.088000
C         -12.141000      2.240000     12.718000
H         -11.274000      1.871000     13.258000
C         -12.081000      3.198000     11.735000
H         -11.127000      3.492000     11.307000
C         -10.446000      1.519000      6.847000
C         -12.748000      0.956000      6.586000
C         -13.302000      2.543000      2.400000
C          -9.870000      6.551000      5.973000
C         -14.925000      5.428000      3.474000
C         -11.751000      1.369000      7.419000
C         -11.831000      7.311000      4.053000
C         -11.407000      1.313000      3.335000
C         -15.152000      4.016000      7.221000
C         -11.061000      7.158000      6.398000
C         -13.615000      4.811000      8.805000
C         -15.103000      5.424000      7.027000
C         -13.326000      7.373000      6.022000
C         -12.881000      6.800000      3.274000
C         -13.625000      2.415000      8.118000
C         -13.077000      4.766000      1.980000
C         -12.126000      4.683000      9.039000
C         -11.198000      5.687000      8.280000
C         -14.359000      4.471000      2.584000
C          -9.392000      4.148000      3.405000
C         -11.024000      3.432000      2.151000
C         -10.494000      2.284000      2.821000
C         -11.225000      0.757000      4.631000
C         -10.071000      5.018000      7.854000
C         -14.340000      3.620000      8.258000
C         -12.470000      0.643000      5.218000
C         -12.047000      7.493000      5.427000
C         -13.926000      1.534000      7.039000
C         -15.292000      5.864000      5.707000
C          -8.904000      4.492000      5.766000
C         -12.797000      1.480000      3.123000
C         -14.105000      5.935000      7.867000
C          -9.309000      2.217000      4.947000
C         -14.380000      6.853000      5.216000
C         -15.505000      3.098000      6.207000
C         -10.983000      5.819000      2.599000
C         -10.641000      6.678000      3.648000
C         -15.682000      3.577000      4.863000
C          -9.376000      5.430000      6.716000
C         -11.769000      6.686000      7.493000
C          -9.132000      4.988000      4.488000
C         -11.441000      3.405000      8.752000
C         -14.688000      1.534000      4.696000
C         -13.185000      6.838000      7.319000
C         -15.539000      4.987000      4.596000
C          -9.094000      3.099000      6.037000
C         -14.508000      3.096000      2.757000
C         -10.151000      1.210000      5.437000
C         -12.428000      3.507000      1.993000
C         -14.889000      1.846000      6.073000
C         -15.211000      2.619000      3.928000
C         -12.216000      2.278000      8.402000
C         -10.201000      3.642000      8.115000
C         -10.310000      4.596000      2.499000
C         -13.447000      1.007000      4.249000
C         -14.166000      6.533000      3.816000
C          -9.669000      6.251000      4.600000
C         -12.353000      5.914000      2.326000
C          -9.768000      2.692000      7.184000
C          -9.488000      2.770000      3.658000
$end

--------------------------------------------------------------

             Standard Nuclear Orientation (Angstroms)
    I     Atom           X                Y                Z
 ----------------------------------------------------------------
    1      O      -0.9338788749     6.1430189734     3.2804828948
    2      C      -1.2475082188     6.9481456407     4.4787769673
    3      H      -0.9105601906     6.5081453544     5.4258222537
    4      H      -2.3385107271     7.0625127983     4.5064659558
    5      H      -0.7769290880     7.9309880848     4.3530271693
    6      O      -2.1655416063     4.4135980803     3.8875770317
    7      C      -1.4141562193     4.9319777289     3.1210533594
    8      C      -0.8009636450     4.0981606988     1.8748872280
    9      H      -1.1099489137     4.6344916618     0.9681964307
   10      H      -1.3340520294     3.1474960280     1.7525661004
   11      C       0.7464063309     3.8976236281     1.9918788554
   12      H       1.2395285767     4.8630540661     2.1608656008
   13      H       0.9672743569     3.2656862823     2.8615187269
   14      C       1.3709500601     3.3263493998     0.7017192193
   15      H       0.9584014270     2.3278872429     0.5108738722
   16      H       1.0107163988     4.0568945442    -0.0319731559
   17      C       2.8556824205     3.0940076032     0.6979632234
   18      C       3.5545664393     4.4778722420     0.7829266843
   19      C       4.3306759626     4.8299587404     1.9036720191
   20      H       4.2240850772     4.2308187008     2.8039223154
   21      C       5.1390756551     6.0120434450     1.9916645652
   22      H       5.7429108460     6.1916549731     2.8759528446
   23      C       5.1144724514     6.9050556064     0.8944262310
   24      H       5.6686500100     7.8334353571     0.9985092372
   25      C       4.3205045822     6.6456746172    -0.2237175545
   26      H       4.2258033864     7.2784065753    -1.1012504329
   27      C       3.6107254399     5.3973400051    -0.2867513978
   28      H       3.0345775893     5.1296341450    -1.1667037981
   29      C       7.0077614131     1.1887421407    -2.2887695327
   30      C       7.9710737666     1.2538074948    -0.0250229016
   31      C       8.1444445909    -3.0958986324     0.7536812556
   32      C       2.6926000716    -1.6772499232    -2.3273582081
   33      C       5.1646570024    -3.2144882373     2.5748392478
   34      C       7.0784918488     1.7675734301    -0.9878988458
   35      C       2.9095304740    -3.5920386939    -0.2964583672
   36      C       8.6743863755    -1.9210699834    -1.2809541787
   37      C       5.0479905873     0.8432423481     2.6680725269
   38      C       2.0527904401    -1.4164440377    -1.0627594870
   39      C       3.5914469709     1.8600171376     1.1481765697
   40      C       3.8443337745     0.0588750778     2.6864644312
   41      C       2.3592005745    -1.6705930226     1.1993499540
   42      C       3.8078819023    -3.9823269068     0.7471267142
   43      C       6.0973082858     2.1446071554     0.9703885145
   44      C       6.2320811043    -4.3501041685     0.6768478771
   45      C       3.4081660990     2.0576564989    -0.2876412478
   46      C       2.7053779303     0.9343695343    -1.0447840250
   47      C       6.3211740324    -3.6805722778     1.8914154946
   48      C       5.8758168041    -3.0712728393    -3.0982105569
   49      C       7.2482223897    -3.7911414057    -1.4343268002
   50      C       7.8559430060    -2.7181121609    -2.0642735378
   51      C       8.5841113172    -0.5268557999    -1.5113933778
   52      C       3.4210614376     0.6696534820    -2.2388571086
   53      C       4.9403435261     1.8561553054     1.7220939589
   54      C       8.7260278693     0.0994372918    -0.2653762610
   55      C       2.2476735224    -2.3869250062    -0.0559664228
   56      C       7.3234496844     1.4775806009     1.2155860799
   57      C       3.9475306540    -1.3330567553     2.9688633976
   58      C       4.5607845330    -1.0553233377    -3.4917937539
   59      C       8.8686040673    -2.1365683800     0.1190943666
   60      C       2.9663815790     0.5734537130     1.6858882119
   61      C       6.9496664500    -0.8928102487    -3.3228094862
   62      C       3.1503720613    -2.1997042663     2.2466264076
   63      C       6.2460878307     0.1648920822     2.9236286113
   64      C       4.8435073534    -4.3282780024    -1.2301066470
   65      C       3.6291556904    -3.7524482512    -1.4749231828
   66      C       6.3527781989    -1.1681272802     3.1940644537
   67      C       3.3808316793    -0.5756605416    -2.9326615111
   68      C       2.0955927786    -0.1625448081    -0.4565774336
   69      C       4.5989107914    -2.4365493042    -3.2841757924
   70      C       4.7000326307     2.1875283826    -1.0615030948
   71      C       8.1650380018    -0.6450544579     1.9041523522
   72      C       2.2300440525    -0.3333845603     0.9575274543
   73      C       5.1910207868    -1.9605673672     3.2119368874
   74      C       5.7104961903    -0.2892020931    -3.5101334355
   75      C       7.4684323906    -2.8974518914     1.9654338690
   76      C       7.7443318220    -0.0097995842    -2.5227262949
   77      C       7.3559942403    -4.0149252909    -0.0249258633
   78      C       7.4623075887     0.5590772393     2.2242520589
   79      C       7.4707310221    -1.6654868997     2.6062473954
   80      C       5.9585572514     2.2907975193    -0.3997627647
   81      C       4.5946715434     1.4667264427    -2.2389798906
   82      C       5.9990495784    -4.0168245217    -2.0593743334
   83      C       8.8872268922    -0.8564816083     0.7339114511
   84      C       3.8802058182    -3.3815096125     2.0119546985
   85      C       3.4979452228    -2.7854445375    -2.5126792384
   86      C       4.9434115222    -4.4915763948     0.1447601801
   87      C       5.7476357297     1.0093900827    -2.9233285144
   88      C       7.0357626623    -2.2830553248    -3.0733759870
   89      O      -6.3639172679     1.5393681880    -5.0798099528
   90      C      -7.5592492724     0.7995122482    -5.0951588105
   91      H      -7.2795901420    -0.2596050098    -5.0458596783
   92      H      -8.0351462026     0.8759600094    -6.0806717996
   93      H      -8.2673562617     1.0664965898    -4.3012237672
   94      O      -5.3235700490    -0.0454990892    -6.3979443837
   95      C      -5.2466237276     0.9075702425    -5.6586324654
   96      C      -3.9352109000     1.5827416788    -5.3797401434
   97      H      -3.4293095405     1.5401716751    -6.3526083818
   98      H      -3.3705984691     0.8170602860    -4.8347082108
   99      C      -4.0752395261     3.0340582381    -4.9222128454
  100      H      -3.1600696177     3.5912087165    -5.1564955448
  101      H      -4.8334248181     3.5575845742    -5.5186692465
  102      C      -4.3725773439     3.2670688068    -3.4174652596
  103      H      -4.3937188936     4.3353332832    -3.1666744238
  104      H      -5.4351245618     3.0063154987    -3.3406139614
  105      C      -3.4723294227     2.5444315508    -2.3306538331
  106      C      -2.0508468455     3.0636598884    -2.3698611813
  107      C      -1.7597336565     4.3280196957    -1.8779695381
  108      H      -2.5879693183     4.9384827407    -1.5290260479
  109      C      -0.4730321591     4.8311325499    -1.9713650006
  110      H      -0.3874845233     5.8459727761    -1.5944897994
  111      C       0.5563477328     4.0927831945    -2.6201802805
  112      H       1.5203376537     4.5437869697    -2.8382307959
  113      C       0.2400702763     2.8451198425    -3.2240227523
  114      H       0.9700040744     2.4121608779    -3.9016606980
  115      C      -1.0479929215     2.3862125880    -3.0900439098
  116      H      -1.3416220580     1.4309172238    -3.5154010505
  117      C      -1.7055635593    -2.0642534451    -0.0658476622
  118      C      -1.7522370183    -0.4927655460     1.7265087117
  119      C      -5.2451455211    -2.2361301355     3.9866748780
  120      C      -6.3374780622    -2.1651445286    -2.2911263026
  121      C      -7.4745657598     0.1755911643     2.8359725832
  122      C      -1.5262903494    -0.7219063601     0.4017787052
  123      C      -8.2647250600    -1.6085195435    -0.2698869215
  124      C      -3.4066941685    -3.3993324311     2.8707864233
  125      C      -4.4813765747     2.3096555495     1.2322675910
  126      C      -6.8578025618    -0.8687190812    -2.1642465389
  127      C      -4.1225742353     2.1595700353    -1.0812114384
  128      C      -5.7723793081     2.3998423460     0.6426242378
  129      C      -7.6198969296     0.7401708027    -0.6984663657
  130      C      -8.3897471066    -1.3226596658     1.0987312204
  131      C      -2.4080689988     1.3514094843     0.5375020376
  132      C      -7.3130366873    -2.2772667961     3.0428062960
  133      C      -3.6394117469     1.0964622841    -2.0427814666
  134      C      -4.7064096305     0.0899997695    -2.5848420933
  135      C      -6.9900682483    -0.9593499595     3.5469408010
  136      C      -5.4476535920    -4.4640212241     0.2624780816
  137      C      -5.7299765024    -4.0315702783     2.3795222365
  138      C      -4.3287833895    -4.2559048852     2.1950341764
  139      C      -2.2681085043    -2.8790217718     2.1964159738
  140      C      -4.1446682723    -1.1670564439    -2.6433427137
  141      C      -3.4959573192     2.2070901324     0.2783502853
  142      C      -2.1018805173    -1.5691493281     2.6016226342
  143      C      -7.7892255003    -0.6002650831    -1.1213439737
  144      C      -2.2318413705     0.8047965590     1.8417877168
  145      C      -6.8245867335     1.8509934976     1.3931876765
  146      C      -4.5075015367    -3.4059904535    -1.7193105047
  147      C      -3.8952599082    -2.3949381200     3.7410901552
  148      C      -5.6267277885     2.1909126099    -0.7350037963
  149      C      -3.0297131237    -3.9581394069     0.1573045170
  150      C      -7.7510587046     1.0118069129     0.6943589688
  151      C      -4.2509039846     1.8359397848     2.5429943968
  152      C      -7.5477313109    -3.3896830351     0.9017190617
  153      C      -7.7125845734    -2.8969049801    -0.3964485662
  154      C      -5.3460830303     1.2702413333     3.2830444762
  155      C      -4.9301318845    -2.3135163610    -2.5149309836
  156      C      -6.0441874510     0.2524609181    -2.2279557274
  157      C      -5.5939926067    -3.8896862352    -1.0003810607
  158      C      -2.5658433601     0.1657097494    -1.6353153476
  159      C      -3.5054432484     0.0334594573     3.8047625847
  160      C      -6.5059486182     1.2971333883    -1.3596976699
  161      C      -6.6579444691     1.2435679440     2.6845913905
  162      C      -3.2164397103    -3.3368470734    -1.1041938057
  163      C      -5.7549741338    -0.9770317142     4.1926844684
  164      C      -2.0761138456    -3.1780361976     0.8245379092
  165      C      -6.1159513340    -3.0002844554     3.2679354179
  166      C      -3.1371332430     1.0540172383     2.8791905694
  167      C      -4.8992063459     0.1839088762     4.0792938226
  168      C      -1.9068126671     0.3793852443    -0.4051627845
  169      C      -2.8625611423    -1.1483277933    -2.0652012560
  170      C      -6.4322874407    -4.1917682772     1.1683690889
  171      C      -3.0555810386    -1.3016442345     3.6238174984
  172      C      -8.1214520800    -0.0339086210     1.6311000053
  173      C      -6.7141113570    -3.1812870798    -1.3739939910
  174      C      -8.0008830347    -2.4493098747     1.8348888396
  175      C      -2.4272114187    -2.2008639779    -1.2531740408
  176      C      -4.1617998984    -4.4772353152     0.8268491178
 ----------------------------------------------------------------

    9   -5804.3057588190      7.81E-06 Convergence criterion met
 Total energy in the final basis set = -5804.3057588190

                    Orbital Energies (a.u.)
 --------------------------------------------------------------

 Alpha MOs
 -- Occupied --
-19.194 -19.191 -19.142 -19.124 -10.320 -10.310 -10.255 -10.243
-10.242 -10.241 -10.239 -10.239 -10.239 -10.236 -10.233 -10.231
-10.229 -10.229 -10.226 -10.225 -10.225 -10.225 -10.225 -10.224
-10.223 -10.223 -10.223 -10.223 -10.222 -10.222 -10.222 -10.221
-10.221 -10.221 -10.220 -10.220 -10.220 -10.220 -10.220 -10.220
-10.220 -10.219 -10.219 -10.218 -10.218 -10.218 -10.218 -10.217
-10.217 -10.217 -10.217 -10.217 -10.217 -10.217 -10.217 -10.217
-10.216 -10.216 -10.216 -10.216 -10.216 -10.216 -10.216 -10.216
-10.216 -10.216 -10.215 -10.215 -10.215 -10.215 -10.215 -10.215
-10.215 -10.215 -10.215 -10.214 -10.214 -10.214 -10.214 -10.214
-10.214 -10.214 -10.214 -10.214 -10.214 -10.214 -10.213 -10.213
-10.213 -10.213 -10.213 -10.213 -10.213 -10.213 -10.213 -10.213
-10.213 -10.213 -10.213 -10.212 -10.212 -10.212 -10.212 -10.212
-10.212 -10.212 -10.212 -10.212 -10.211 -10.211 -10.211 -10.211
-10.211 -10.211 -10.211 -10.211 -10.210 -10.210 -10.210 -10.210
-10.210 -10.210 -10.209 -10.209 -10.209 -10.209 -10.209 -10.209
-10.209 -10.208 -10.208 -10.208 -10.208 -10.207 -10.207 -10.206
-10.206 -10.205 -10.204 -10.204 -10.203 -10.203 -10.203 -10.202
-10.201 -10.198 -10.194 -10.193  -1.105  -1.094  -1.020  -1.012
 -0.982  -0.981  -0.966  -0.966  -0.962  -0.961  -0.959  -0.958
 -0.935  -0.935  -0.927  -0.927  -0.924  -0.923  -0.922  -0.922
 -0.919  -0.919  -0.898  -0.898  -0.888  -0.886  -0.885  -0.883
 -0.878  -0.870  -0.862  -0.849  -0.843  -0.842  -0.839  -0.839
 -0.837  -0.833  -0.819  -0.818  -0.809  -0.800  -0.799  -0.797
 -0.796  -0.794  -0.793  -0.792  -0.792  -0.789  -0.781  -0.779
 -0.771  -0.770  -0.769  -0.768  -0.767  -0.767  -0.766  -0.762
 -0.761  -0.744  -0.742  -0.741  -0.734  -0.732  -0.717  -0.716
 -0.715  -0.714  -0.713  -0.711  -0.711  -0.710  -0.709  -0.707
 -0.707  -0.706  -0.705  -0.703  -0.702  -0.702  -0.675  -0.670
 -0.658  -0.658  -0.657  -0.657  -0.650  -0.644  -0.631  -0.630
 -0.628  -0.627  -0.626  -0.624  -0.622  -0.620  -0.620  -0.619
 -0.617  -0.616  -0.614  -0.613  -0.612  -0.612  -0.609  -0.608
 -0.607  -0.604  -0.602  -0.600  -0.571  -0.568  -0.566  -0.565
 -0.563  -0.560  -0.558  -0.557  -0.555  -0.555  -0.554  -0.553
 -0.541  -0.535  -0.535  -0.530  -0.529  -0.528  -0.527  -0.526
 -0.522  -0.522  -0.519  -0.518  -0.515  -0.515  -0.513  -0.512
 -0.509  -0.506  -0.501  -0.495  -0.494  -0.491  -0.488  -0.484
 -0.484  -0.483  -0.482  -0.480  -0.480  -0.478  -0.476  -0.475
 -0.474  -0.472  -0.470  -0.470  -0.469  -0.466  -0.466  -0.465
 -0.464  -0.463  -0.463  -0.462  -0.461  -0.461  -0.459  -0.459
 -0.455  -0.453  -0.452  -0.451  -0.449  -0.448  -0.446  -0.444
 -0.444  -0.442  -0.440  -0.439  -0.438  -0.438  -0.436  -0.435
 -0.433  -0.430  -0.429  -0.429  -0.428  -0.426  -0.426  -0.423
 -0.422  -0.422  -0.421  -0.421  -0.420  -0.419  -0.418  -0.418
 -0.417  -0.417  -0.416  -0.416  -0.414  -0.414  -0.413  -0.413
 -0.413  -0.411  -0.411  -0.410  -0.403  -0.398  -0.397  -0.395
 -0.395  -0.394  -0.392  -0.391  -0.390  -0.389  -0.387  -0.385
 -0.383  -0.382  -0.379  -0.371  -0.370  -0.369  -0.367  -0.366
 -0.365  -0.363  -0.363  -0.362  -0.360  -0.360  -0.360  -0.358
 -0.358  -0.357  -0.356  -0.355  -0.355  -0.353  -0.352  -0.351
 -0.349  -0.347  -0.347  -0.346  -0.346  -0.344  -0.343  -0.342
 -0.342  -0.341  -0.340  -0.339  -0.338  -0.338  -0.335  -0.334
 -0.333  -0.332  -0.331  -0.329  -0.328  -0.326  -0.322  -0.321
 -0.318  -0.307  -0.301  -0.297  -0.288  -0.283  -0.275  -0.273
 -0.272  -0.271  -0.268  -0.268  -0.267  -0.266  -0.264  -0.263
 -0.262  -0.260  -0.260  -0.259  -0.258  -0.256  -0.255  -0.253
 -0.252  -0.250  -0.246  -0.241  -0.222  -0.220  -0.216  -0.212
 -0.211  -0.210  -0.207  -0.205  -0.199  -0.198

          Ground-State Mulliken Net Atomic Charges

     Atom                 Charge (a.u.)
  ----------------------------------------
      1 O                    -0.446682
      2 C                    -0.089909
      3 H                     0.137013
      4 H                     0.136862
      5 H                     0.129132
      6 O                    -0.458330
      7 C                     0.552805
      8 C                    -0.249844
      9 H                     0.106875
     10 H                     0.135534
     11 C                    -0.195713
     12 H                     0.118380
     13 H                     0.103335
     14 C                    -0.174633
     15 H                     0.096367
     16 H                     0.124157
     17 C                     0.023370
     18 C                     0.099960
     19 C                    -0.134547
     20 H                     0.088820
     21 C                    -0.081395
     22 H                     0.097822
     23 C                    -0.095281
     24 H                     0.090440
     25 C                    -0.075294
     26 H                     0.093965
     27 C                    -0.127537
     28 H                     0.077479
     29 C                    -0.021552
     30 C                     0.013731
     31 C                     0.013500
     32 C                    -0.035850
     33 C                    -0.002996
     34 C                    -0.002728
     35 C                    -0.039949
     36 C                    -0.010117
     37 C                    -0.008389
     38 C                     0.000826
     39 C                    -0.080899
     40 C                    -0.015210
     41 C                     0.022490
     42 C                     0.022601
     43 C                     0.005046
     44 C                     0.013742
     45 C                    -0.104729
     46 C                     0.048503
     47 C                    -0.009383
     48 C                    -0.023452
     49 C                    -0.021117
     50 C                     0.037627
     51 C                     0.009163
     52 C                     0.002238
     53 C                     0.043119
     54 C                    -0.004799
     55 C                     0.010254
     56 C                    -0.006925
     57 C                     0.006777
     58 C                     0.021827
     59 C                    -0.023409
     60 C                     0.043468
     61 C                    -0.019372
     62 C                    -0.018138
     63 C                     0.006067
     64 C                     0.007261
     65 C                     0.010904
     66 C                     0.022109
     67 C                    -0.031443
     68 C                    -0.008243
     69 C                    -0.005588
     70 C                     0.047682
     71 C                     0.019383
     72 C                    -0.005515
     73 C                    -0.007400
     74 C                     0.021283
     75 C                     0.006605
     76 C                    -0.001545
     77 C                    -0.009586
     78 C                    -0.054168
     79 C                    -0.003281
     80 C                     0.022333
     81 C                     0.004205
     82 C                    -0.011483
     83 C                    -0.002672
     84 C                    -0.021840
     85 C                     0.026268
     86 C                     0.003256
     87 C                    -0.035058
     88 C                     0.008790
     89 O                    -0.480147
     90 C                    -0.087218
     91 H                     0.129006
     92 H                     0.116565
     93 H                     0.120985
     94 O                    -0.459775
     95 C                     0.611969
     96 C                    -0.266319
     97 H                     0.143515
     98 H                     0.145521
     99 C                    -0.192215
    100 H                     0.104661
    101 H                     0.120249
    102 C                    -0.187635
    103 H                     0.099065
    104 H                     0.128184
    105 C                     0.007295
    106 C                     0.102046
    107 C                    -0.103547
    108 H                     0.094607
    109 C                    -0.103375
    110 H                     0.096659
    111 C                    -0.102779
    112 H                     0.099142
    113 C                    -0.087942
    114 H                     0.106260
    115 C                    -0.103642
    116 H                     0.088116
    117 C                    -0.019666
    118 C                     0.021946
    119 C                     0.023338
    120 C                    -0.033159
    121 C                     0.008874
    122 C                    -0.028806
    123 C                    -0.002669
    124 C                    -0.001222
    125 C                     0.025209
    126 C                     0.004385
    127 C                    -0.095691
    128 C                     0.011326
    129 C                    -0.028797
    130 C                     0.002555
    131 C                    -0.021722
    132 C                    -0.021996
    133 C                    -0.083513
    134 C                    -0.001860
    135 C                    -0.012985
    136 C                     0.010585
    137 C                    -0.015138
    138 C                    -0.029795
    139 C                    -0.009198
    140 C                     0.034661
    141 C                     0.030831
    142 C                     0.021897
    143 C                     0.002468
    144 C                    -0.016273
    145 C                    -0.020371
    146 C                    -0.008478
    147 C                     0.013980
    148 C                     0.024914
    149 C                     0.013606
    150 C                    -0.019189
    151 C                     0.030821
    152 C                     0.023649
    153 C                    -0.024963
    154 C                    -0.017813
    155 C                    -0.019018
    156 C                     0.019650
    157 C                     0.017478
    158 C                     0.012668
    159 C                    -0.003107
    160 C                     0.020397
    161 C                     0.014303
    162 C                    -0.022183
    163 C                     0.001986
    164 C                    -0.024520
    165 C                     0.018283
    166 C                     0.020690
    167 C                    -0.013639
    168 C                     0.005909
    169 C                     0.001481
    170 C                     0.007859
    171 C                    -0.009825
    172 C                     0.004738
    173 C                     0.012620
    174 C                    -0.007628
    175 C                     0.037139
    176 C                     0.016360
  ----------------------------------------
  Sum of atomic charges =     0.000000

                    Cartesian Multipole Moments
 -----------------------------------------------------------------
    Charge (ESU x 10^10)
                 0.0000
    Dipole Moment (Debye)
         X      -0.1007      Y       6.3970      Z       0.2404
       Tot       6.4023
    Quadrupole Moments (Debye-Ang)
        XX    -822.2361     XY       1.3031     YY    -771.2834
        XZ       7.8706     YZ      -3.8808     ZZ    -816.0524

 Total job time:  871.11s(wall), 7503.33s(cpu)
        *  Thank you very much for using Q-Chem.  Have a nice day.  *
