 Q-Chem 4.4, Q-Chem, Inc., Pleasanton, CA (2016)
 Q-Chem 4.4.2 for Intel X86 Linux

User input:
--------------------------------------------------------------
$comment
SP
$end

$rem
MEM_STATIC 5000
MEM_TOTAL 20000
JOBTYPE SP
EXCHANGE B3LYP
BASIS 6-31g(d,p)
$end

$molecule
0 1
O          30.286000    -11.181000      8.777000
C          31.169000    -10.457000      9.693000
H          32.075000    -10.091000      9.194000
H          31.464000    -11.073000     10.552000
H          30.541000     -9.645000     10.081000
O          28.899000    -11.948000     10.337000
C          29.272000    -11.941000      9.192000
C          28.426000    -12.629000      8.017000
H          27.654000    -13.298000      8.416000
H          29.065000    -13.281000      7.409000
C          27.766000    -11.594000      7.074000
H          27.038000    -10.946000      7.578000
H          28.542000    -10.885000      6.759000
C          27.062000    -12.199000      5.879000
H          27.793000    -12.602000      5.167000
H          26.550000    -13.106000      6.223000
C          25.983000    -11.359000      5.108000
C          26.695000    -10.483000      4.071000
C          26.911000    -10.955000      2.800000
H          26.654000    -11.984000      2.567000
C          27.546000    -10.175000      1.796000
H          27.710000    -10.682000      0.849000
C          27.796000     -8.779000      2.118000
H          28.227000     -8.146000      1.348000
C          27.484000     -8.326000      3.380000
H          27.618000     -7.293000      3.688000
C          26.878000     -9.129000      4.364000
H          26.624000     -8.640000      5.300000
C          21.428000     -8.375000      6.224000
C          20.999000     -9.205000      3.951000
C          17.793000    -12.262000      4.927000
C          22.405000    -12.364000      9.178000
C          19.867000    -15.024000      4.852000
C          21.893000     -8.743000      4.929000
C          21.121000    -14.638000      8.300000
C          18.206000     -9.954000      5.847000
C          22.934000    -12.704000      3.209000
C          23.114000    -13.352000      8.497000
C          24.600000    -11.956000      4.764000
C          23.213000    -13.736000      4.054000
C          22.871000    -14.724000      6.664000
C          20.185000    -15.035000      7.305000
C          22.991000    -10.243000      3.682000
C          18.164000    -14.031000      6.311000
C          24.746000    -11.054000      5.978000
C          24.400000    -11.563000      7.369000
C          18.668000    -14.337000      5.001000
C          19.179000    -11.104000      8.989000
C          17.809000    -11.823000      7.307000
C          18.039000    -10.430000      7.147000
C          19.142000     -8.998000      5.527000
C          23.616000    -10.635000      8.026000
C          23.682000    -11.545000      3.625000
C          19.642000     -9.383000      4.224000
C          22.417000    -14.470000      7.953000
C          21.703000    -10.147000      3.179000
C          22.148000    -14.678000      4.379000
C          21.517000    -10.257000      9.298000
C          18.141000    -10.888000      4.747000
C          24.090000    -13.325000      5.037000
C          19.944000     -9.031000      7.824000
C          21.986000    -15.171000      5.669000
C          21.630000    -12.576000      2.723000
C          19.148000    -13.472000      8.470000
C          20.393000    -13.655000      9.033000
C          20.623000    -13.499000      3.069000
C          22.693000    -11.040000      8.987000
C          24.064000    -12.943000      7.516000
C          20.481000    -11.291000      9.577000
C          23.867000     -9.808000      5.943000
C          19.700000    -11.457000      3.009000
C          23.840000    -13.727000      6.378000
C          20.885000    -14.571000      3.893000
C          21.231000     -9.161000      8.376000
C          18.419000    -13.253000      4.216000
C          20.034000     -8.515000      6.494000
C          17.602000    -12.709000      6.233000
C          21.087000    -11.326000      2.694000
C          19.410000    -12.836000      3.208000
C          23.087000     -9.419000      4.792000
C          23.341000     -9.505000      7.177000
C          18.529000    -12.234000      8.405000
C          19.063000    -10.538000      3.798000
C          20.602000    -15.412000      5.987000
C          21.073000    -12.576000      9.539000
C          18.937000    -14.387000      7.434000
C          22.134000     -8.775000      7.343000
C          18.935000     -9.992000      8.124000
O          24.182000    -13.917000     11.978000
C          23.990000    -12.778000     12.798000
H          23.719000    -13.080000     13.817000
H          23.160000    -12.162000     12.432000
H          24.859000    -12.108000     12.776000
O          22.287000    -14.972000     12.648000
C          23.272000    -14.918000     11.950000
C          23.685000    -15.917000     10.840000
H          24.594000    -16.416000     11.199000
H          23.990000    -15.347000      9.954000
C          22.572000    -16.921000     10.539000
H          22.316000    -17.497000     11.437000
H          21.686000    -16.353000     10.232000
C          22.821000    -17.730000      9.212000
H          21.897000    -18.267000      8.964000
H          23.032000    -16.998000      8.422000
C          23.934000    -18.774000      9.342000
C          23.677000    -19.738000     10.419000
C          22.759000    -20.775000     10.247000
H          22.315000    -20.919000      9.267000
C          22.535000    -21.761000     11.232000
H          21.999000    -22.675000     10.991000
C          23.163000    -21.568000     12.473000
H          23.031000    -22.369000     13.194000
C          24.030000    -20.494000     12.706000
H          24.663000    -20.517000     13.588000
C          24.329000    -19.607000     11.642000
H          25.193000    -18.967000     11.794000
C          29.346000    -19.843000      9.219000
C          28.414000    -21.883000      8.297000
C          29.674000    -21.055000      3.935000
C          27.704000    -15.657000      6.789000
C          26.502000    -19.802000      2.949000
C          28.317000    -20.784000      9.172000
C          27.161000    -16.497000      4.132000
C          30.885000    -20.751000      6.057000
C          24.862000    -21.105000      6.429000
C          26.424000    -15.981000      6.332000
C          24.628000    -19.258000      8.102000
C          24.345000    -19.970000      5.786000
C          25.104000    -17.330000      5.005000
C          27.173000    -17.538000      3.182000
C          26.209000    -21.213000      8.500000
C          28.866000    -19.229000      2.946000
C          25.401000    -18.364000      8.981000
C          25.877000    -17.049000      8.483000
C          27.886000    -20.202000      2.919000
C          30.627000    -17.311000      5.942000
C          30.786000    -18.910000      4.430000
C          31.251000    -19.453000      5.628000
C          30.533000    -21.018000      7.432000
C          27.219000    -16.892000      8.850000
C          25.134000    -20.676000      7.804000
C          29.449000    -21.902000      7.319000
C          26.102000    -16.391000      5.007000
C          27.084000    -22.176000      7.887000
C          24.744000    -19.740000      4.410000
C          29.479000    -16.625000      7.892000
C          30.099000    -21.553000      5.210000
C          24.347000    -18.880000      6.711000
C          30.797000    -18.634000      7.882000
C          25.120000    -18.393000      4.084000
C          25.740000    -21.981000      5.826000
C          29.327000    -17.062000      3.882000
C          28.500000    -16.170000      4.537000
C          26.120000    -21.739000      4.474000
C          28.120000    -16.193000      8.013000
C          25.563000    -16.743000      7.109000
C          29.823000    -16.403000      6.589000
C          26.599000    -19.020000      9.585000
C          27.876000    -22.521000      5.612000
C          24.863000    -17.650000      6.350000
C          25.641000    -20.626000      3.714000
C          29.908000    -17.784000      8.574000
C          28.331000    -21.331000      3.584000
C          30.403000    -19.906000      8.307000
C          29.990000    -19.735000      3.578000
C          26.817000    -22.470000      6.538000
C          27.446000    -22.096000      4.385000
C          26.954000    -20.365000      9.358000
C          27.654000    -18.068000      9.501000
C          30.390000    -17.571000      4.582000
C          29.222000    -22.293000      6.017000
C          26.170000    -18.457000      3.144000
C          28.755000    -15.759000      5.896000
C          28.555000    -17.852000      3.029000
C          28.992000    -18.494000      9.328000
C          31.154000    -18.397000      6.569000
$end

--------------------------------------------------------------

             Standard Nuclear Orientation (Angstroms)
    I     Atom           X                Y                Z
 ----------------------------------------------------------------
    1      O      -0.3502833649     4.7346877288    -5.4118596160
    2      C      -0.3806281214     5.2100693646    -6.7960606476
    3      H      -0.6134490178     6.2801902225    -6.8626097258
    4      H      -1.1035671004     4.6533826857    -7.4058320591
    5      H       0.6179162050     4.9684362846    -7.1817997861
    6      O      -0.2095146380     2.5706361153    -5.9045286527
    7      C      -0.3563545080     3.4416931848    -5.0860540751
    8      C      -0.3031124980     3.1475634036    -3.5111452015
    9      H      -0.3844732020     2.0745573851    -3.2995216672
   10      H      -1.1677015163     3.5925359896    -3.0036274905
   11      C       0.9789718629     3.7028701226    -2.8448358593
   12      H       1.9017564595     3.2500292544    -3.2286427591
   13      H       1.0838458748     4.7534622142    -3.1437333315
   14      C       1.0120714276     3.5579987910    -1.3389863595
   15      H       0.2943367802     4.2439472123    -0.8720326794
   16      H       0.5876823835     2.5768530580    -1.0932710979
   17      C       2.3854398600     3.6371208341    -0.5827583178
   18      C       2.7089414459     5.1104312030    -0.3100088343
   19      C       2.2889796598     5.7055459301     0.8537572762
   20      H       1.6506395938     5.1480106030     1.5326205312
   21      C       2.5817441503     7.0611027423     1.1642338167
   22      H       2.1445442526     7.4304589979     2.0879146089
   23      C       3.5077298042     7.7463251945     0.2765284828
   24      H       3.7939493446     8.7643990750     0.5234170175
   25      C       3.9720526103     7.0805097850    -0.8353578298
   26      H       4.6838361528     7.5152229085    -1.5312728310
   27      C       3.6447410274     5.7443304467    -1.1316565032
   28      H       4.1235513999     5.3099666041    -2.0044690143
   29      C       7.4504898947     1.3651529417    -0.8676566197
   30      C       7.2094171907     1.8742899778     1.5244415032
   31      C       6.6969647723    -2.3553481659     3.0813020276
   32      C       3.5129179604    -1.4923648552    -2.2543380188
   33      C       3.2559694865    -2.2399447068     3.3676208789
   34      C       6.9617318020     2.1957221183     0.1811257074
   35      C       2.5644362966    -3.0245256983    -0.1702358897
   36      C       8.2024040049    -1.4293736870     1.2868503059
   37      C       3.3167860367     1.8880900247     2.7013111893
   38      C       2.3455084380    -1.1249766216    -1.5874295596
   39      C       2.7839170919     2.5743439416     0.4656476973
   40      C       2.2766842570     1.1238443334     2.2642679291
   41      C       1.5342805300    -0.9879854475     0.5630272987
   42      C       2.8901782278    -3.3339747706     1.1795283364
   43      C       5.1902632097     2.8819917896     1.3649947731
   44      C       4.9839698955    -3.7049486409     2.4280906454
   45      C       3.3250722603     2.4700401521    -0.9503282217
   46      C       3.0434271363     1.2402725038    -1.8000490908
   47      C       4.5212094569    -2.8090925915     3.4513436518
   48      C       6.4924486554    -2.9977306783    -1.3127077432
   49      C       6.8754752986    -3.3979895698     0.9045131322
   50      C       7.8432730990    -2.4710385170     0.4322016212
   51      C       8.4043884487    -0.1446911982     0.8382690005
   52      C       4.2110271270     0.8045534089    -2.3953205686
   53      C       3.7450320692     2.7502976350     1.6293763161
   54      C       7.8813458957     0.7059360147     1.8865503713
   55      C       1.9268537215    -1.8636741602    -0.4425613686
   56      C       6.0873530673     2.3093065590     2.2529308148
   57      C       2.1643347494    -0.2455712092     2.7534434188
   58      C       5.7089940328    -1.1353257046    -2.7948617730
   59      C       7.5789113431    -1.3457017362     2.5871721527
   60      C       1.9988725296     1.4058820999     0.9422942748
   61      C       7.7354472395    -0.8326662374    -1.3977341310
   62      C       1.7894081470    -1.2867936073     1.9116126993
   63      C       4.2477609774     1.3110023144     3.5692117795
   64      C       4.6794110868    -3.9035780908     0.0177362578
   65      C       3.7360848436    -3.4351891456    -0.8717750658
   66      C       4.1135065160    -0.0203077072     4.0111205550
   67      C       4.3928971936    -0.5427358395    -2.6973304358
   68      C       2.1515957328     0.2535512357    -1.2805080561
   69      C       5.5094362699    -2.5053367479    -2.2439176375
   70      C       4.8472943315     2.4937184516    -1.0433943490
   71      C       6.2916943653     0.3766990988     3.6601557573
   72      C       1.7461352870     0.3214244989     0.0577262459
   73      C       3.0536711746    -0.8046913213     3.6132570167
   74      C       6.8089244031    -0.3034682131    -2.3139643885
   75      C       5.5799642299    -2.0306559960     3.8068106650
   76      C       8.1752073708     0.1915247341    -0.5028040327
   77      C       6.3749783255    -3.4025369003     2.2201130341
   78      C       5.5671483163     1.5650808336     3.3393179864
   79      C       5.3690591866    -0.6055442989     4.1176316962
   80      C       5.7074259548     2.7604190253     0.0851296404
   81      C       5.3261875403     1.6217454171    -1.9929022856
   82      C       6.0382282987    -3.6885841423    -0.1478638228
   83      C       7.3535084010    -0.0324701494     2.8999041675
   84      C       2.4252206135    -2.5286471167     2.2696676793
   85      C       4.1369206581    -2.7070752816    -1.9634974897
   86      C       4.1559865321    -3.9453641191     1.3136230829
   87      C       6.6290875141     1.0591042836    -1.9364079229
   88      C       7.5755140431    -2.1594632386    -0.9021202792
   89      O       1.0160434954    -2.5217200531    -4.7273086581
   90      C       1.9769175150    -2.5327544734    -5.7680700909
   91      H       1.8371840241    -3.4109720952    -6.4101093111
   92      H       2.9945412933    -2.6077483134    -5.3666603627
   93      H       1.9747330892    -1.5933913463    -6.3356413584
   94      O       1.2996251375    -4.7026910453    -4.1652615217
   95      C       0.7857422940    -3.6250017807    -3.9785658543
   96      C      -0.1807950865    -3.2383397475    -2.8309736079
   97      H      -1.1540767196    -3.0477782354    -3.3006247262
   98      H       0.1405522757    -2.2761755476    -2.4139641052
   99      C      -0.2711602460    -4.3374851400    -1.7721537252
  100      H      -0.6280136726    -5.2752090725    -2.2160517520
  101      H       0.7389865752    -4.5060799262    -1.3809399759
  102      C      -0.9732178378    -3.8550167436    -0.4486166519
  103      H      -0.8146618961    -4.6231220995     0.3185359896
  104      H      -0.4730313704    -2.9294006442    -0.1363774258
  105      C      -2.4857024200    -3.6689726809    -0.6015316462
  106      C      -3.1596168106    -4.8930860555    -1.0517092115
  107      C      -3.4038552934    -5.9427598114    -0.1650246173
  108      H      -3.1807415100    -5.7969594956     0.8872274949
  109      C      -4.1092051027    -7.1058595527    -0.5422216989
  110      H      -4.4856620220    -7.7950792975     0.2087971633
  111      C      -4.4235781299    -7.2399398147    -1.9041710677
  112      H      -5.0219145033    -8.1081401524    -2.1631841135
  113      C      -4.1230136935    -6.2398050883    -2.8362899166
  114      H      -4.5869030070    -6.2849499835    -3.8170603501
  115      C      -3.5363488809    -5.0314265181    -2.3847241640
  116      H      -3.5706490724    -4.2029928975    -3.0859525384
  117      C      -6.6315752600    -0.3965734719    -2.1986464859
  118      C      -7.6080883788    -1.5478606544    -0.3009457845
  119      C      -7.4373990864     2.0524905848     2.5815122151
  120      C      -2.1665586884     1.8197162606    -1.0693339351
  121      C      -4.4436145435     1.0058557222     4.1770054226
  122      C      -6.7405139226    -1.5423412860    -1.4100531281
  123      C      -2.3203141166     2.4500952958     1.6945545468
  124      C      -8.0793860869     1.9050379799     0.2091860528
  125      C      -4.6977295573    -2.6191360761     2.3624341173
  126      C      -1.6084451489     1.0220659351    -0.0670923299
  127      C      -3.2096525077    -2.7667383234     0.3552135835
  128      C      -3.4442049878    -2.0761594745     2.6830827782
  129      C      -1.7760856781     0.1580700719     2.0656377987
  130      C      -3.0851953410     2.4544061291     2.8783041525
  131      C      -5.7442798293    -2.8476704403     0.1336186084
  132      C      -5.4382633254     2.9181731259     3.0498186820
  133      C      -3.0362496797    -2.2641006807    -1.0183558029
  134      C      -2.2580534249    -1.0255951150    -1.2719688013
  135      C      -5.6037306937     1.7798306602     3.8144460297
  136      C      -5.2025826967     3.4753530653    -0.8731733083
  137      C      -6.4599704228     3.6070213961     0.9351036498
  138      C      -7.2518548008     3.0225848096    -0.0536485984
  139      C      -8.1655615738     0.7983336672    -0.7147172699
  140      C      -2.9797645386    -0.2191082844    -2.1602334356
  141      C      -4.6171454815    -2.9543599628     0.9377302349
  142      C      -8.1915477900    -0.3222108945     0.1296674776
  143      C      -1.6467733796     1.3054784334     1.3277615344
  144      C      -6.9980621117    -2.3898384462     0.6695130511
  145      C      -3.4158837878    -0.9546638906     3.6033667371
  146      C      -4.0886777061     1.9806359694    -2.3278335693
  147      C      -8.1744429584     1.4214905796     1.5265907374
  148      C      -2.6476128724    -2.0334614751     1.4967662595
  149      C      -6.4779077794     1.9094454153    -2.0832593239
  150      C      -2.5626758860     0.1388884920     3.2315597137
  151      C      -5.8854389422    -2.1219055813     2.8563746523
  152      C      -4.0743868616     3.7995661401     1.2757010574
  153      C      -2.9087180108     3.3176160237     0.7121780182
  154      C      -5.8376243674    -1.0204202141     3.7593208036
  155      C      -2.9246668543     1.1910693362    -2.0636191322
  156      C      -1.7336969611    -0.3594387680    -0.1051808942
  157      C      -4.0378460617     3.0213703461    -1.4448176571
  158      C      -4.3263410571    -2.0819173739    -1.7483075005
  159      C      -7.6038365935    -0.8000515842     2.4094926518
  160      C      -1.9699645586    -0.8821054623     1.1437094729
  161      C      -4.6169379929    -0.3996537528     4.1720965001
  162      C      -5.3098577882     1.3444298985    -2.6383284040
  163      C      -6.8099290555     1.1784298741     3.5009279178
  164      C      -7.2675489925     0.7874776797    -1.8158641954
  165      C      -6.5667052373     3.1079674020     2.2691567935
  166      C      -6.9770248968    -1.9988303180     2.0201410825
  167      C      -6.9244507340    -0.2338875535     3.4530189544
  168      C      -5.5886089886    -2.3756963064    -1.1942744619
  169      C      -4.2159606507    -0.8429859672    -2.4405864439
  170      C      -5.1723748913     3.9095805066     0.4624550149
  171      C      -8.2745528602     0.0237485159     1.4612215488
  172      C      -3.1932992830     1.3325522331     3.6410435404
  173      C      -2.8308589826     2.9703764592    -0.6857453190
  174      C      -4.1681543025     3.3347537439     2.5882749042
  175      C      -5.3589473710    -0.0372296769    -2.6550326090
  176      C      -6.4225452518     2.9718291791    -1.2024286199
 ----------------------------------------------------------------

    9   -5804.2717972890      7.61E-06 Convergence criterion met
 Total energy in the final basis set = -5804.2717972890

                    Orbital Energies (a.u.)
 --------------------------------------------------------------

 Alpha MOs
 -- Occupied --
-19.191 -19.184 -19.132 -19.128 -10.316 -10.311 -10.253 -10.247
-10.245 -10.242 -10.237 -10.237 -10.235 -10.232 -10.232 -10.231
-10.230 -10.230 -10.230 -10.230 -10.229 -10.229 -10.229 -10.226
-10.226 -10.224 -10.224 -10.224 -10.224 -10.223 -10.223 -10.223
-10.223 -10.223 -10.223 -10.223 -10.223 -10.222 -10.222 -10.222
-10.221 -10.221 -10.221 -10.221 -10.221 -10.221 -10.221 -10.221
-10.221 -10.220 -10.220 -10.220 -10.219 -10.219 -10.219 -10.219
-10.219 -10.219 -10.219 -10.219 -10.218 -10.218 -10.218 -10.218
-10.218 -10.218 -10.217 -10.217 -10.217 -10.217 -10.217 -10.217
-10.217 -10.216 -10.216 -10.216 -10.216 -10.216 -10.216 -10.216
-10.216 -10.216 -10.216 -10.215 -10.215 -10.215 -10.215 -10.215
-10.215 -10.215 -10.215 -10.215 -10.215 -10.214 -10.214 -10.214
-10.214 -10.214 -10.214 -10.214 -10.214 -10.214 -10.214 -10.214
-10.214 -10.213 -10.213 -10.213 -10.213 -10.212 -10.212 -10.212
-10.212 -10.212 -10.212 -10.211 -10.211 -10.211 -10.211 -10.211
-10.210 -10.210 -10.210 -10.210 -10.210 -10.210 -10.209 -10.209
-10.208 -10.207 -10.206 -10.205 -10.205 -10.204 -10.203 -10.200
-10.199 -10.199 -10.199 -10.198 -10.197 -10.197 -10.197 -10.196
-10.196 -10.194 -10.194 -10.186  -1.098  -1.093  -1.010  -1.008
 -0.985  -0.983  -0.967  -0.966  -0.965  -0.963  -0.962  -0.960
 -0.936  -0.932  -0.929  -0.927  -0.926  -0.925  -0.924  -0.924
 -0.922  -0.922  -0.897  -0.897  -0.892  -0.889  -0.887  -0.887
 -0.874  -0.874  -0.853  -0.852  -0.843  -0.842  -0.841  -0.841
 -0.838  -0.838  -0.821  -0.820  -0.801  -0.800  -0.799  -0.798
 -0.797  -0.796  -0.795  -0.795  -0.793  -0.792  -0.785  -0.784
 -0.772  -0.771  -0.770  -0.769  -0.768  -0.766  -0.764  -0.764
 -0.750  -0.747  -0.742  -0.740  -0.735  -0.733  -0.718  -0.717
 -0.715  -0.715  -0.715  -0.713  -0.712  -0.712  -0.711  -0.710
 -0.709  -0.709  -0.708  -0.706  -0.702  -0.699  -0.673  -0.673
 -0.661  -0.661  -0.659  -0.658  -0.647  -0.646  -0.635  -0.633
 -0.628  -0.628  -0.625  -0.624  -0.622  -0.622  -0.619  -0.618
 -0.616  -0.614  -0.613  -0.613  -0.612  -0.610  -0.609  -0.607
 -0.606  -0.604  -0.604  -0.603  -0.569  -0.566  -0.565  -0.563
 -0.562  -0.561  -0.561  -0.558  -0.557  -0.557  -0.555  -0.551
 -0.538  -0.536  -0.535  -0.534  -0.529  -0.528  -0.527  -0.527
 -0.524  -0.524  -0.519  -0.519  -0.518  -0.517  -0.516  -0.515
 -0.508  -0.505  -0.499  -0.496  -0.494  -0.489  -0.487  -0.485
 -0.485  -0.484  -0.481  -0.481  -0.480  -0.479  -0.477  -0.476
 -0.475  -0.472  -0.470  -0.469  -0.468  -0.468  -0.467  -0.467
 -0.466  -0.465  -0.465  -0.463  -0.463  -0.461  -0.458  -0.457
 -0.457  -0.456  -0.453  -0.452  -0.450  -0.445  -0.445  -0.443
 -0.443  -0.442  -0.441  -0.440  -0.439  -0.439  -0.434  -0.433
 -0.432  -0.431  -0.430  -0.429  -0.429  -0.427  -0.425  -0.424
 -0.423  -0.423  -0.423  -0.421  -0.421  -0.420  -0.420  -0.419
 -0.418  -0.418  -0.417  -0.416  -0.416  -0.415  -0.415  -0.414
 -0.413  -0.412  -0.411  -0.411  -0.402  -0.400  -0.397  -0.397
 -0.394  -0.392  -0.392  -0.391  -0.390  -0.389  -0.386  -0.382
 -0.380  -0.375  -0.373  -0.372  -0.370  -0.369  -0.367  -0.366
 -0.365  -0.365  -0.364  -0.363  -0.362  -0.361  -0.360  -0.358
 -0.357  -0.356  -0.355  -0.355  -0.354  -0.353  -0.352  -0.351
 -0.350  -0.348  -0.348  -0.347  -0.347  -0.346  -0.344  -0.344
 -0.344  -0.343  -0.341  -0.341  -0.338  -0.336  -0.334  -0.334
 -0.332  -0.332  -0.331  -0.330  -0.330  -0.326  -0.322  -0.322
 -0.306  -0.303  -0.297  -0.292  -0.290  -0.289  -0.274  -0.272
 -0.271  -0.269  -0.268  -0.268  -0.267  -0.266  -0.264  -0.264
 -0.263  -0.262  -0.261  -0.260  -0.259  -0.256  -0.255  -0.253
 -0.251  -0.249  -0.249  -0.244  -0.224  -0.222  -0.214  -0.213
 -0.212  -0.210  -0.210  -0.208  -0.202  -0.198

          Ground-State Mulliken Net Atomic Charges

     Atom                 Charge (a.u.)
  ----------------------------------------
      1 O                    -0.455425
      2 C                    -0.085788
      3 H                     0.131565
      4 H                     0.136254
      5 H                     0.133357
      6 O                    -0.458336
      7 C                     0.558943
      8 C                    -0.241827
      9 H                     0.132790
     10 H                     0.119761
     11 C                    -0.185587
     12 H                     0.106029
     13 H                     0.118266
     14 C                    -0.196297
     15 H                     0.109264
     16 H                     0.107853
     17 C                     0.001568
     18 C                     0.093085
     19 C                    -0.102556
     20 H                     0.090627
     21 C                    -0.098167
     22 H                     0.098492
     23 C                    -0.088963
     24 H                     0.094285
     25 C                    -0.084803
     26 H                     0.086085
     27 C                    -0.104951
     28 H                     0.097209
     29 C                    -0.011883
     30 C                     0.004770
     31 C                    -0.010564
     32 C                     0.038121
     33 C                    -0.000510
     34 C                     0.001476
     35 C                     0.007880
     36 C                     0.005534
     37 C                    -0.004616
     38 C                    -0.044430
     39 C                    -0.091444
     40 C                     0.008570
     41 C                     0.016063
     42 C                    -0.016424
     43 C                    -0.015971
     44 C                    -0.024334
     45 C                    -0.080995
     46 C                     0.014810
     47 C                     0.013703
     48 C                    -0.024261
     49 C                     0.026507
     50 C                    -0.017932
     51 C                    -0.002013
     52 C                     0.017643
     53 C                     0.023551
     54 C                    -0.033151
     55 C                    -0.000881
     56 C                    -0.004096
     57 C                     0.028078
     58 C                    -0.044825
     59 C                    -0.001269
     60 C                     0.037641
     61 C                     0.008180
     62 C                    -0.027364
     63 C                     0.015723
     64 C                     0.025671
     65 C                     0.008960
     66 C                    -0.002005
     67 C                     0.013354
     68 C                    -0.021621
     69 C                    -0.030260
     70 C                     0.035562
     71 C                    -0.020629
     72 C                     0.015765
     73 C                    -0.009323
     74 C                     0.004644
     75 C                     0.015786
     76 C                    -0.008924
     77 C                    -0.012186
     78 C                     0.002451
     79 C                    -0.022612
     80 C                     0.007977
     81 C                    -0.001521
     82 C                     0.009195
     83 C                     0.059830
     84 C                    -0.016625
     85 C                     0.014181
     86 C                     0.000679
     87 C                     0.008302
     88 C                     0.012403
     89 O                    -0.455892
     90 C                    -0.088419
     91 H                     0.126476
     92 H                     0.116309
     93 H                     0.129949
     94 O                    -0.471057
     95 C                     0.599506
     96 C                    -0.267557
     97 H                     0.130807
     98 H                     0.131923
     99 C                    -0.178739
    100 H                     0.128126
    101 H                     0.109233
    102 C                    -0.197258
    103 H                     0.108923
    104 H                     0.105639
    105 C                     0.020846
    106 C                     0.116764
    107 C                    -0.116532
    108 H                     0.084937
    109 C                    -0.081807
    110 H                     0.097651
    111 C                    -0.087613
    112 H                     0.087012
    113 C                    -0.091788
    114 H                     0.094451
    115 C                    -0.120561
    116 H                     0.095025
    117 C                    -0.014335
    118 C                     0.002937
    119 C                    -0.029440
    120 C                    -0.000639
    121 C                    -0.019325
    122 C                    -0.009675
    123 C                    -0.014187
    124 C                     0.002802
    125 C                     0.006358
    126 C                     0.003627
    127 C                    -0.083893
    128 C                    -0.013871
    129 C                    -0.015707
    130 C                     0.007857
    131 C                    -0.016204
    132 C                     0.004998
    133 C                    -0.078272
    134 C                    -0.009849
    135 C                     0.010975
    136 C                     0.025847
    137 C                    -0.019635
    138 C                    -0.006564
    139 C                    -0.031438
    140 C                     0.009861
    141 C                     0.028908
    142 C                     0.018941
    143 C                    -0.003068
    144 C                    -0.035845
    145 C                    -0.021740
    146 C                    -0.019234
    147 C                    -0.003271
    148 C                     0.025577
    149 C                     0.006147
    150 C                    -0.004253
    151 C                     0.000791
    152 C                     0.022305
    153 C                    -0.008466
    154 C                     0.001658
    155 C                    -0.000954
    156 C                    -0.006257
    157 C                     0.004514
    158 C                     0.020020
    159 C                    -0.016959
    160 C                     0.050868
    161 C                    -0.010270
    162 C                    -0.013537
    163 C                     0.013430
    164 C                     0.000958
    165 C                     0.001123
    166 C                     0.028408
    167 C                     0.010459
    168 C                     0.031690
    169 C                     0.000275
    170 C                     0.007534
    171 C                     0.012778
    172 C                     0.023298
    173 C                    -0.025254
    174 C                    -0.021755
    175 C                     0.020690
    176 C                     0.008833
  ----------------------------------------
  Sum of atomic charges =     0.000000

                    Cartesian Multipole Moments
 -----------------------------------------------------------------
    Charge (ESU x 10^10)
                 0.0000
    Dipole Moment (Debye)
         X      -0.4762      Y       3.6521      Z      -0.3570
       Tot       3.7003
    Quadrupole Moments (Debye-Ang)
        XX    -813.9207     XY      19.7046     YY    -782.7177
        XZ       0.1484     YZ     -20.3868     ZZ    -801.6669

 Total job time:  881.19s(wall), 7605.88s(cpu)
        *  Thank you very much for using Q-Chem.  Have a nice day.  *
