 Q-Chem 4.4, Q-Chem, Inc., Pleasanton, CA (2016)
 Q-Chem 4.4.2 for Intel X86 Linux

User input:
--------------------------------------------------------------
$comment
SP
$end

$rem
MEM_STATIC 5000
MEM_TOTAL 20000
JOBTYPE SP
EXCHANGE B3LYP
BASIS 6-31g(d,p)
$end

$molecule
0 1
O          25.954000     15.916000     13.106000
C          24.746000     16.331000     13.837000
H          23.887000     16.047000     13.216000
H          24.697000     17.407000     14.046000
H          24.735000     15.863000     14.829000
O          25.307000     17.081000     11.367000
C          26.074000     16.303000     11.834000
C          27.256000     15.691000     11.152000
H          27.100000     14.606000     11.093000
H          28.061000     15.758000     11.895000
C          27.519000     16.287000      9.739000
H          27.230000     17.339000      9.849000
H          28.586000     16.269000      9.485000
C          26.594000     15.544000      8.753000
H          26.937000     14.504000      8.820000
H          25.572000     15.516000      9.152000
C          26.591000     15.988000      7.260000
C          27.697000     15.350000      6.463000
C          27.575000     14.055000      6.002000
H          26.625000     13.537000      6.091000
C          28.582000     13.460000      5.194000
H          28.516000     12.428000      4.862000
C          29.821000     14.079000      5.009000
H          30.591000     13.512000      4.494000
C          29.975000     15.358000      5.503000
H          30.874000     15.967000      5.485000
C          28.918000     16.002000      6.240000
H          29.027000     17.027000      6.581000
C          25.987000     20.128000      3.705000
C          25.021000     18.272000      2.574000
C          20.744000     19.366000      2.834000
C          23.746000     20.496000      8.256000
C          19.959000     17.232000      5.492000
C          25.996000     18.760000      3.416000
C          21.109000     19.608000      8.049000
C          22.646000     20.807000      2.324000
C          23.663000     15.469000      5.086000
C          23.416000     19.227000      8.654000
C          25.238000     16.179000      6.605000
C          22.966000     15.564000      6.263000
C          22.130000     17.412000      8.176000
C          20.151000     19.034000      7.157000
C          25.539000     16.654000      4.175000
C          19.722000     19.579000      4.824000
C          26.103000     17.347000      6.916000
C          25.533000     18.403000      7.831000
C          19.730000     18.195000      4.489000
C          22.629000     22.301000      5.490000
C          21.115000     21.418000      4.048000
C          22.280000     21.716000      3.314000
C          23.974000     20.423000      2.277000
C          25.839000     19.726000      7.353000
C          24.989000     15.878000      5.206000
C          24.028000     19.088000      1.960000
C          22.134000     18.776000      8.546000
C          24.792000     16.963000      3.030000
C          21.620000     15.974000      6.295000
C          24.711000     21.735000      6.573000
C          21.918000     19.623000      2.081000
C          23.901000     16.040000      7.165000
C          24.553000     21.861000      4.185000
C          21.217000     16.929000      7.271000
C          22.892000     15.636000      3.875000
C          20.677000     21.151000      6.384000
C          21.425000     20.877000      7.569000
C          21.550000     16.038000      3.941000
C          24.971000     20.764000      7.554000
C          24.294000     18.153000      8.394000
C          23.338000     22.073000      6.660000
C          26.609000     18.200000      5.769000
C          22.465000     17.284000      2.282000
C          23.482000     17.028000      8.105000
C          20.874000     16.178000      5.188000
C          25.301000     21.672000      5.332000
C          20.405000     18.090000      3.257000
C          24.926000     20.975000      3.206000
C          20.319000     20.279000      3.743000
C          23.480000     16.428000      2.832000
C          21.299000     17.012000      3.009000
C          26.339000     17.826000      4.414000
C          26.457000     19.616000      6.089000
C          21.265000     21.864000      5.365000
C          22.784000     18.542000      1.762000
C          20.199000     17.725000      6.769000
C          22.742000     21.289000      7.686000
C          19.842000     19.998000      6.162000
C          26.171000     20.593000      5.086000
C          23.236000     22.282000      4.185000
O          27.992000      8.250000      4.385000
C          28.426000      9.521000      4.969000
H          29.317000      9.894000      4.449000
H          28.663000      9.468000      6.039000
H          27.633000     10.239000      4.727000
O          26.200000      8.007000      5.816000
C          26.917000      7.598000      4.916000
C          26.531000      6.272000      4.243000
H          25.606000      5.879000      4.683000
H          27.296000      5.500000      4.389000
C          26.276000      6.354000      2.763000
H          27.224000      6.580000      2.259000
H          25.945000      5.343000      2.494000
C          25.209000      7.424000      2.448000
H          24.303000      6.993000      2.892000
H          25.420000      8.311000      3.059000
C          25.079000      7.694000      0.923000
C          24.335000      6.478000      0.263000
C          22.900000      6.389000      0.244000
H          22.216000      7.088000      0.717000
C          22.282000      5.296000     -0.413000
H          21.214000      5.252000     -0.607000
C          23.144000      4.269000     -0.806000
H          22.678000      3.426000     -1.307000
C          24.500000      4.262000     -0.607000
H          25.087000      3.352000     -0.698000
C          25.153000      5.353000     -0.018000
H          26.230000      5.335000      0.117000
C          28.263000      9.504000     -3.114000
C          25.979000     10.081000     -3.876000
C          26.199000     14.568000     -3.259000
C          28.920000     11.454000      1.565000
C          24.478000     14.497000     -0.196000
C          26.883000      9.197000     -3.197000
C          27.417000     13.825000      1.830000
C          27.762000     13.017000     -4.152000
C          23.422000     10.648000     -0.739000
C          27.687000     11.437000      2.287000
C          24.728000      9.070000      0.488000
C          23.584000     11.126000      0.618000
C          25.538000     12.251000      2.326000
C          26.528000     14.713000      1.130000
C          24.909000      9.203000     -2.029000
C          26.499000     15.475000     -1.211000
C          26.103000      8.589000      0.372000
C          27.176000      9.332000      1.178000
C          25.194000     15.054000     -1.322000
C          29.864000     13.250000     -1.324000
C          28.417000     14.563000     -2.380000
C          28.759000     13.553000     -3.305000
C          27.732000     11.614000     -4.318000
C          28.398000      9.344000      0.504000
C          24.191000      9.488000     -0.868000
C          26.407000     11.280000     -4.425000
C          26.929000     12.648000      2.401000
C          24.799000     10.057000     -3.108000
C          23.749000     12.533000      0.756000
C          29.932000     10.997000     -0.375000
C          26.516000     13.555000     -4.098000
C          24.461000     10.322000      1.298000
C          29.634000     11.369000     -2.774000
C          24.712000     13.078000      1.605000
C          23.286000     11.494000     -1.851000
C          28.456000     14.720000      0.048000
C          28.625000     13.878000      1.174000
C          23.402000     12.862000     -1.608000
C          29.234000     10.407000      0.730000
C          26.746000     10.350000      2.110000
C          30.002000     12.353000     -0.200000
C          26.845000      8.378000     -0.897000
C          24.361000     12.377000     -3.543000
C          25.450000     10.868000      2.111000
C          23.681000     13.391000     -0.363000
C          29.738000     10.458000     -1.674000
C          24.967000     14.480000     -2.591000
C          28.670000     10.725000     -3.660000
C          27.144000     15.100000     -2.373000
C          23.929000     11.142000     -3.037000
C          24.003000     13.410000     -2.710000
C          26.175000      8.572000     -2.110000
C          28.212000      8.811000     -0.797000
C          29.065000     14.369000     -1.161000
C          25.621000     12.451000     -4.256000
C          25.193000     14.268000      1.022000
C          29.387000     12.656000      1.015000
C          27.144000     15.294000      0.051000
C          28.949000      9.365000     -1.883000
C          29.676000     12.737000     -2.607000
$end

--------------------------------------------------------------

             Standard Nuclear Orientation (Angstroms)
    I     Atom           X                Y                Z
 ----------------------------------------------------------------
    1      O      -7.1974822730    -7.3997524186     0.7045668454
    2      C      -8.2435338213    -7.4500579668    -0.3294039037
    3      H      -7.8501341667    -6.9165329385    -1.2039127692
    4      H      -9.1935796493    -6.9917077457    -0.0274337072
    5      H      -8.5036013285    -8.4943032001    -0.5418322077
    6      O      -7.1577811857    -5.2137468281     0.5640023339
    7      C      -6.6786646251    -6.2071797717     1.0058171232
    8      C      -5.5205463127    -6.3011182929     1.9474802949
    9      H      -4.7041740713    -6.8335495608     1.4424106874
   10      H      -5.8382862119    -7.0410133991     2.6932413747
   11      C      -5.0387424185    -4.9130913693     2.4595352400
   12      H      -5.9663408908    -4.3329010344     2.5320972787
   13      H      -4.6179633296    -4.9790662928     3.4704364557
   14      C      -4.0909555542    -4.3370717231     1.3872612885
   15      H      -3.2684886853    -5.0627513451     1.3612740635
   16      H      -4.5556493612    -4.4221772548     0.3966626240
   17      C      -3.5081408575    -2.9086362743     1.6019545534
   18      C      -2.2776410540    -2.9085806862     2.4687643541
   19      C      -1.0480579356    -3.2519221964     1.9446727950
   20      H      -0.9363619052    -3.3885217335     0.8734073922
   21      C       0.1335353406    -3.1950533779     2.7330516805
   22      H       1.0990051111    -3.5040033245     2.3431516256
   23      C       0.0728254172    -2.9947677499     4.1146112964
   24      H       0.9974555362    -3.0958865779     4.6753680403
   25      C      -1.1574678821    -2.6941668095     4.6619781500
   26      H      -1.3933174028    -2.5495583308     5.7121540359
   27      C      -2.3440706921    -2.6553173026     3.8461236978
   28      H      -3.2996842647    -2.3677358540     4.2737761389
   29      C      -4.5816442182     2.3866941978     2.5763809108
   30      C      -2.7164780908     2.4545281534     1.1020651808
   31      C      -4.7063715597     3.8963199265    -2.5747167634
   32      C      -8.1836262093    -0.4504255537     0.3751123558
   33      C      -4.9184949410     0.7795674997    -4.1482487717
   34      C      -3.3720091733     1.8350650617     2.1433516342
   35      C      -8.0084186778    -0.1597830292    -2.3943625482
   36      C      -5.0301002591     4.6604810416    -0.2800615563
   37      C      -2.4700533388    -0.7899218621    -1.2268693263
   38      C      -7.5506068593    -1.4054863428    -0.3764263269
   39      C      -3.5676818962    -1.9601403308     0.4217319856
   40      C      -3.4291154446    -1.4956252011    -1.9068293799
   41      C      -6.1930210571    -1.7518115703    -2.1690569711
   42      C      -7.2534082992     0.4461257411    -3.4459032704
   43      C      -2.3606753536     0.1507947173     0.9769026160
   44      C      -6.3305130184     2.6954141558    -3.5595735306
   45      C      -4.4346034959    -1.7489138224     1.6104288780
   46      C      -5.9261873971    -1.7329245823     1.3819933073
   47      C      -5.0807910617     2.1711552528    -3.9967149649
   48      C      -8.1050186553     3.0203648832     0.0527699982
   49      C      -6.9101301190     4.0170728706    -1.5995204042
   50      C      -6.4091169672     4.4850279763    -0.3687528222
   51      C      -4.3996148908     4.1610795241     0.8452540993
   52      C      -6.5563295348    -0.6784509776     2.1326299060
   53      C      -2.5396861881    -0.9699120108     0.1525188760
   54      C      -3.1870213882     3.6394546317     0.4668965053
   55      C      -7.4463777972    -1.2693463105    -1.7289022765
   56      C      -2.0652318060     1.4068729124     0.4296406330
   57      C      -4.0741892819    -0.9653311447    -3.0397494822
   58      C      -7.8547174703     1.3471532757     1.7748853350
   59      C      -4.1606950573     4.3537898722    -1.3482207774
   60      C      -4.1219086672    -2.1595584966    -0.9100168952
   61      C      -6.5188067680     3.3368024048     1.7796747852
   62      C      -5.4879368010    -1.0947651622    -3.1473356684
   63      C      -2.0327850930     0.4432189048    -1.8408818101
   64      C      -8.2481798317     2.1311290445    -2.2101494659
   65      C      -8.5943256404     0.8631966919    -1.6521748891
   66      C      -2.6917954707     0.9412400802    -2.9742856352
   67      C      -7.6655799337    -0.0390866829     1.6509185282
   68      C      -6.3756331707    -2.0212411608     0.1054894698
   69      C      -8.4857512028     1.7997182996     0.5900126298
   70      C      -4.2526070049    -0.4825918378     2.4244067087
   71      C      -2.3946758995     2.7358823486    -1.6204019294
   72      C      -5.5421346916    -2.2380688384    -1.0200131040
   73      C      -3.7228231701     0.2009481630    -3.6227721506
   74      C      -6.9055833338     2.1470693372     2.3676995433
   75      C      -4.0855683091     2.9197563364    -3.3382302724
   76      C      -5.1622196574     3.5149806667     1.8820950882
   77      C      -6.0524914363     3.8010560813    -2.7138608533
   78      C      -1.8495005459     1.5733539783    -0.9748226375
   79      C      -2.9111947748     2.2884463307    -2.8431358585
   80      C      -3.2016445263     0.4365623081     2.1090743055
   81      C      -5.5510850895     0.1061674351     2.7372600009
   82      C      -8.0201754148     3.1974958275    -1.3714898985
   83      C      -2.9470070895     3.7833894068    -0.8771763784
   84      C      -6.0181551562    -0.0033907161    -3.8179430901
   85      C      -8.6664907152     0.6894297392    -0.2801256013
   86      C      -7.4402008415     1.8511571336    -3.3697630568
   87      C      -5.7373341671     1.5193689719     2.8397621831
   88      C      -7.1456663113     3.8915891278     0.6792254202
   89      O       4.4142160090    -5.3759277898     0.4822205419
   90      C       3.2005111194    -5.2178438662     1.2864486899
   91      H       3.4490341766    -4.8101110643     2.2740722276
   92      H       2.6384336647    -6.1472256822     1.4420005307
   93      H       2.6221339636    -4.4294146198     0.7896628316
   94      O       3.2957911835    -6.2111517196    -1.3534267272
   95      C       4.3256695474    -5.9066910570    -0.7720281887
   96      C       5.6467852182    -6.0374445681    -1.5451762364
   97      H       5.4544951331    -6.3853994482    -2.5677347553
   98      H       6.3182388027    -6.7742481115    -1.0882346402
   99      C       6.4348295101    -4.7644596391    -1.6888584019
  100      H       6.7975956485    -4.4664818305    -0.6971901335
  101      H       7.2834020837    -5.0475696832    -2.3243238142
  102      C       5.5718541439    -3.6529459171    -2.3232279811
  103      H       5.4101836442    -4.0301880272    -3.3407170669
  104      H       4.5781592946    -3.6807822049    -1.8580326592
  105      C       6.2754452051    -2.2677067743    -2.2845351392
  106      C       7.4215131958    -2.2604104434    -3.3589032904
  107      C       7.1625055181    -1.9520594910    -4.7392444486
  108      H       6.1845585668    -1.7635087291    -5.1731273482
  109      C       8.2437826900    -1.9074615761    -5.6541612227
  110      H       8.1448372342    -1.5237261426    -6.6656714371
  111      C       9.4613660220    -2.3879670044    -5.1654615572
  112      H      10.2943101828    -2.3606295658    -5.8613514115
  113      C       9.6634049795    -2.8736352681    -3.8998816121
  114      H      10.5425490555    -3.4595550278    -3.6454140723
  115      C       8.6336706184    -2.8742176492    -2.9494828503
  116      H       8.8176774702    -3.2488718220    -1.9473582426
  117      C       8.1437205132     1.1757865818     1.5053495397
  118      C       7.6402783757     2.6509197250    -0.4183856874
  119      C       3.9348459893     4.6609879286     1.2524388536
  120      C       3.9540530839    -1.5581419613     2.5539255040
  121      C       1.7004228684     2.6214729575    -0.5354601926
  122      C       8.1011132632     1.3975228599     0.1072953042
  123      C       1.6525158584    -0.0598321938     1.9144966649
  124      C       6.0192299276     4.1085151414     2.2505051928
  125      C       4.6833341179     1.1158953474    -2.7849629239
  126      C       3.2328709795    -1.8407435416     1.3531362973
  127      C       5.4243632001    -1.0595151210    -2.1371093964
  128      C       3.5274335879     0.2801236634    -2.5368567835
  129      C       2.0903886667    -0.8940264370    -0.4020784727
  130      C       1.2051086080     1.2087759621     1.4052569383
  131      C       6.9140773489     0.9544272297    -1.8046534400
  132      C       2.0636880332     3.4917458321     1.7408995205
  133      C       6.1813482744    -1.5709495477    -0.9965610964
  134      C       5.3790385494    -2.0407175189     0.2235336369
  135      C       2.1417640927     3.6528004931     0.3768788003
  136      C       4.6000473796     1.5103982615     4.1755991059
  137      C       3.9202192999     3.4344465585     3.2987947189
  138      C       5.3296667998     3.5071060773     3.3282453426
  139      C       7.1704258512     3.4495086290     1.7633467360
  140      C       6.0718897359    -1.7961126289     1.4100536245
  141      C       5.8168723536     0.3742741841    -2.4404471503
  142      C       7.1758408687     3.6616231401     0.4092388704
  143      C       2.0727480401    -1.0609806984     1.0366466862
  144      C       6.9085611186     2.3154205703    -1.5737341945
  145      C       2.4222071051     0.9310912093    -1.9199016183
  146      C       5.7287944958    -0.5327983347     3.4458651704
  147      C       5.2878030990     4.6702226675     1.2533214336
  148      C       3.9210740962    -0.9221494789    -2.0100442536
  149      C       6.8533271093     1.6387941593     3.4011277035
  150      C       1.7166381365     0.3413685599    -0.8712860417
  151      C       4.6980077881     2.5045592644    -2.5796504571
  152      C       2.3186671591     1.6025680584     3.2741796596
  153      C       2.3001417971     0.1972436216     3.1006255233
  154      C       3.5460651813     3.0624467156    -2.0267319980
  155      C       5.3294413734    -1.5706494775     2.5404861950
  156      C       3.9385569920    -2.0932526164     0.1135293358
  157      C       4.6168617689     0.0828388819     3.9546455044
  158      C       7.2948816238    -0.8694824357    -0.3084961499
  159      C       5.3263399532     4.0806527740    -1.1942602813
  160      C       3.2430005680    -1.4891909442    -0.9349227410
  161      C       2.4481518862     2.3157842537    -1.6462210725
  162      C       6.8874332935     0.2303286049     3.1446154227
  163      C       3.3005445216     4.3803363034     0.0315013804
  164      C       7.6559349328     2.2016571438     2.3203715134
  165      C       3.2120833373     4.0390633330     2.2780454772
  166      C       5.8433707316     3.0843166399    -2.0356154276
  167      C       3.9523664220     4.0973290435    -1.2268277105
  168      C       7.7368206885     0.3563611213    -0.8183024238
  169      C       7.2291236103    -1.0299204472     1.1184283499
  170      C       3.4694148160     2.2091518413     3.7875985378
  171      C       6.0054323365     4.3820725057     0.0504986031
  172      C       1.2923485993     1.3610270841     0.0048560030
  173      C       3.4971494245    -0.5542947737     3.4193288030
  174      C       1.5759579729     2.2406976945     2.2291903619
  175      C       7.6530763556    -0.0368245467     2.0476783712
  176      C       5.7306891919     2.2742572750     3.8879004790
 ----------------------------------------------------------------

    9   -5804.2863271123      8.16E-06 Convergence criterion met
 Total energy in the final basis set = -5804.2863271123

                    Orbital Energies (a.u.)
 --------------------------------------------------------------

 Alpha MOs
 -- Occupied --
-19.199 -19.190 -19.135 -19.133 -10.319 -10.311 -10.251 -10.249
-10.238 -10.237 -10.236 -10.234 -10.232 -10.232 -10.231 -10.230
-10.230 -10.227 -10.225 -10.224 -10.223 -10.223 -10.222 -10.222
-10.222 -10.221 -10.221 -10.221 -10.220 -10.220 -10.219 -10.219
-10.219 -10.219 -10.218 -10.218 -10.218 -10.217 -10.217 -10.217
-10.217 -10.217 -10.217 -10.217 -10.216 -10.216 -10.216 -10.216
-10.215 -10.215 -10.215 -10.215 -10.215 -10.215 -10.215 -10.215
-10.214 -10.214 -10.214 -10.214 -10.213 -10.213 -10.213 -10.213
-10.213 -10.213 -10.213 -10.213 -10.213 -10.212 -10.212 -10.212
-10.212 -10.212 -10.212 -10.211 -10.211 -10.211 -10.211 -10.211
-10.211 -10.211 -10.211 -10.211 -10.211 -10.210 -10.210 -10.210
-10.210 -10.210 -10.210 -10.210 -10.210 -10.209 -10.209 -10.209
-10.209 -10.209 -10.209 -10.209 -10.208 -10.208 -10.208 -10.208
-10.208 -10.208 -10.208 -10.208 -10.208 -10.208 -10.207 -10.207
-10.207 -10.207 -10.207 -10.207 -10.206 -10.206 -10.206 -10.206
-10.206 -10.206 -10.206 -10.206 -10.206 -10.205 -10.205 -10.205
-10.204 -10.204 -10.204 -10.203 -10.203 -10.203 -10.201 -10.200
-10.200 -10.200 -10.200 -10.199 -10.199 -10.198 -10.197 -10.197
-10.196 -10.196 -10.195 -10.194  -1.108  -1.091  -1.016  -1.010
 -0.983  -0.979  -0.968  -0.963  -0.962  -0.959  -0.957  -0.957
 -0.940  -0.931  -0.926  -0.923  -0.923  -0.922  -0.921  -0.919
 -0.917  -0.914  -0.897  -0.892  -0.890  -0.885  -0.882  -0.882
 -0.873  -0.870  -0.857  -0.853  -0.841  -0.838  -0.838  -0.836
 -0.836  -0.831  -0.822  -0.816  -0.812  -0.805  -0.798  -0.796
 -0.795  -0.794  -0.792  -0.790  -0.788  -0.785  -0.781  -0.780
 -0.768  -0.768  -0.768  -0.766  -0.766  -0.764  -0.763  -0.761
 -0.755  -0.746  -0.742  -0.739  -0.735  -0.729  -0.716  -0.715
 -0.713  -0.710  -0.710  -0.710  -0.709  -0.708  -0.708  -0.706
 -0.706  -0.703  -0.703  -0.703  -0.702  -0.700  -0.670  -0.669
 -0.659  -0.657  -0.656  -0.653  -0.647  -0.644  -0.631  -0.628
 -0.627  -0.624  -0.623  -0.622  -0.620  -0.617  -0.616  -0.614
 -0.614  -0.613  -0.613  -0.612  -0.610  -0.608  -0.608  -0.607
 -0.606  -0.606  -0.602  -0.597  -0.569  -0.565  -0.562  -0.560
 -0.560  -0.558  -0.557  -0.556  -0.554  -0.553  -0.551  -0.549
 -0.538  -0.534  -0.532  -0.529  -0.528  -0.527  -0.523  -0.522
 -0.520  -0.518  -0.517  -0.516  -0.515  -0.514  -0.513  -0.510
 -0.509  -0.506  -0.503  -0.502  -0.493  -0.491  -0.487  -0.486
 -0.485  -0.481  -0.480  -0.480  -0.479  -0.477  -0.474  -0.472
 -0.471  -0.471  -0.469  -0.468  -0.467  -0.466  -0.466  -0.465
 -0.463  -0.462  -0.461  -0.460  -0.460  -0.459  -0.458  -0.457
 -0.456  -0.455  -0.453  -0.449  -0.448  -0.446  -0.444  -0.443
 -0.442  -0.441  -0.438  -0.438  -0.436  -0.435  -0.435  -0.433
 -0.430  -0.429  -0.427  -0.426  -0.424  -0.424  -0.423  -0.423
 -0.421  -0.420  -0.419  -0.418  -0.417  -0.416  -0.416  -0.415
 -0.414  -0.414  -0.413  -0.413  -0.411  -0.411  -0.410  -0.409
 -0.408  -0.407  -0.407  -0.402  -0.401  -0.400  -0.396  -0.396
 -0.393  -0.392  -0.389  -0.388  -0.388  -0.386  -0.386  -0.381
 -0.381  -0.377  -0.374  -0.372  -0.370  -0.369  -0.366  -0.365
 -0.364  -0.362  -0.361  -0.361  -0.360  -0.358  -0.357  -0.356
 -0.355  -0.354  -0.352  -0.352  -0.351  -0.350  -0.349  -0.349
 -0.348  -0.347  -0.347  -0.346  -0.344  -0.344  -0.344  -0.343
 -0.340  -0.339  -0.339  -0.337  -0.336  -0.334  -0.334  -0.332
 -0.331  -0.329  -0.328  -0.326  -0.325  -0.324  -0.322  -0.322
 -0.309  -0.309  -0.303  -0.303  -0.289  -0.281  -0.273  -0.272
 -0.270  -0.268  -0.267  -0.265  -0.265  -0.263  -0.263  -0.260
 -0.259  -0.258  -0.258  -0.257  -0.257  -0.256  -0.253  -0.250
 -0.249  -0.248  -0.243  -0.243  -0.222  -0.215  -0.211  -0.210
 -0.208  -0.206  -0.205  -0.201  -0.198  -0.196

          Ground-State Mulliken Net Atomic Charges

     Atom                 Charge (a.u.)
  ----------------------------------------
      1 O                    -0.472813
      2 C                    -0.084747
      3 H                     0.133697
      4 H                     0.131632
      5 H                     0.124415
      6 O                    -0.469599
      7 C                     0.611860
      8 C                    -0.283639
      9 H                     0.133149
     10 H                     0.133026
     11 C                    -0.177943
     12 H                     0.127544
     13 H                     0.102460
     14 C                    -0.184635
     15 H                     0.106231
     16 H                     0.121123
     17 C                     0.010979
     18 C                     0.112294
     19 C                    -0.122516
     20 H                     0.091052
     21 C                    -0.090836
     22 H                     0.079550
     23 C                    -0.080887
     24 H                     0.093500
     25 C                    -0.088793
     26 H                     0.089688
     27 C                    -0.123021
     28 H                     0.091140
     29 C                    -0.045836
     30 C                     0.025486
     31 C                     0.022475
     32 C                    -0.002901
     33 C                    -0.029305
     34 C                     0.005522
     35 C                    -0.011623
     36 C                    -0.014607
     37 C                    -0.003432
     38 C                     0.006916
     39 C                    -0.081626
     40 C                     0.016075
     41 C                    -0.013824
     42 C                    -0.002610
     43 C                     0.008110
     44 C                     0.000815
     45 C                    -0.065166
     46 C                     0.013143
     47 C                    -0.022317
     48 C                    -0.012342
     49 C                    -0.002935
     50 C                     0.007408
     51 C                     0.008708
     52 C                     0.002873
     53 C                     0.052811
     54 C                     0.025710
     55 C                    -0.002303
     56 C                    -0.009102
     57 C                     0.015383
     58 C                    -0.006021
     59 C                    -0.013928
     60 C                     0.008362
     61 C                     0.036266
     62 C                    -0.012767
     63 C                    -0.026441
     64 C                    -0.006417
     65 C                     0.009175
     66 C                     0.003544
     67 C                     0.002785
     68 C                     0.059257
     69 C                    -0.010342
     70 C                     0.008461
     71 C                     0.014240
     72 C                    -0.023245
     73 C                    -0.001915
     74 C                     0.014913
     75 C                    -0.001496
     76 C                    -0.003210
     77 C                     0.005502
     78 C                    -0.039454
     79 C                     0.016406
     80 C                    -0.010316
     81 C                    -0.002149
     82 C                     0.006509
     83 C                    -0.027302
     84 C                     0.044142
     85 C                     0.000727
     86 C                    -0.020157
     87 C                    -0.018753
     88 C                    -0.019374
     89 O                    -0.477267
     90 C                    -0.084099
     91 H                     0.127399
     92 H                     0.133666
     93 H                     0.134385
     94 O                    -0.473209
     95 C                     0.598347
     96 C                    -0.245558
     97 H                     0.130083
     98 H                     0.118758
     99 C                    -0.191195
    100 H                     0.108589
    101 H                     0.110739
    102 C                    -0.187211
    103 H                     0.108306
    104 H                     0.119735
    105 C                     0.027058
    106 C                     0.059694
    107 C                    -0.110848
    108 H                     0.100264
    109 C                    -0.083256
    110 H                     0.102045
    111 C                    -0.078148
    112 H                     0.083286
    113 C                    -0.090995
    114 H                     0.089002
    115 C                    -0.092397
    116 H                     0.104229
    117 C                    -0.011519
    118 C                     0.003146
    119 C                    -0.005705
    120 C                     0.007226
    121 C                    -0.012512
    122 C                    -0.001779
    123 C                     0.030802
    124 C                     0.001478
    125 C                    -0.004879
    126 C                    -0.066152
    127 C                    -0.124382
    128 C                    -0.026512
    129 C                    -0.046862
    130 C                    -0.000426
    131 C                     0.032669
    132 C                     0.001626
    133 C                    -0.068692
    134 C                     0.039560
    135 C                    -0.011030
    136 C                    -0.005495
    137 C                    -0.005149
    138 C                    -0.013914
    139 C                     0.010513
    140 C                     0.020819
    141 C                     0.052265
    142 C                    -0.009735
    143 C                     0.013716
    144 C                     0.009463
    145 C                    -0.012594
    146 C                    -0.016344
    147 C                     0.011804
    148 C                     0.067049
    149 C                    -0.006586
    150 C                     0.023169
    151 C                    -0.021023
    152 C                    -0.003893
    153 C                    -0.012626
    154 C                     0.020186
    155 C                    -0.010894
    156 C                    -0.025848
    157 C                     0.000887
    158 C                     0.030941
    159 C                    -0.011091
    160 C                     0.033124
    161 C                     0.028534
    162 C                     0.017325
    163 C                     0.008524
    164 C                    -0.011827
    165 C                     0.006256
    166 C                    -0.008300
    167 C                    -0.010473
    168 C                    -0.044230
    169 C                     0.005009
    170 C                     0.021763
    171 C                    -0.005595
    172 C                    -0.004035
    173 C                    -0.012733
    174 C                    -0.003892
    175 C                    -0.002028
    176 C                     0.007081
  ----------------------------------------
  Sum of atomic charges =     0.000000

                    Cartesian Multipole Moments
 -----------------------------------------------------------------
    Charge (ESU x 10^10)
                 0.0000
    Dipole Moment (Debye)
         X       2.6022      Y      -5.1718      Z       0.4366
       Tot       5.8060
    Quadrupole Moments (Debye-Ang)
        XX    -783.1881     XY       3.8690     YY    -791.4350
        XZ     -15.9909     YZ      -5.5892     ZZ    -791.2751

 Total job time:  864.89s(wall), 7371.11s(cpu)
        *  Thank you very much for using Q-Chem.  Have a nice day.  *
