 Q-Chem 4.4, Q-Chem, Inc., Pleasanton, CA (2016)
 Q-Chem 4.4.2 for Intel X86 Linux

User input:
--------------------------------------------------------------
$comment
SP
$end

$rem
MEM_STATIC 5000
MEM_TOTAL 20000
JOBTYPE SP
EXCHANGE B3LYP
BASIS 6-31g(d,p)
$end

$molecule
0 1
O          33.844000      3.264000     -3.637000
C          34.974000      2.627000     -2.974000
H          35.503000      1.938000     -3.643000
H          34.582000      1.998000     -2.166000
H          35.600000      3.409000     -2.526000
O          35.201000      3.876000     -5.353000
C          34.055000      3.824000     -4.846000
C          32.784000      4.489000     -5.475000
H          32.626000      5.429000     -4.933000
H          31.965000      3.839000     -5.142000
C          32.850000      4.643000     -6.950000
H          33.438000      5.561000     -7.070000
H          33.263000      3.772000     -7.474000
C          31.570000      5.061000     -7.590000
H          31.081000      5.945000     -7.163000
H          31.800000      5.438000     -8.595000
C          30.611000      3.870000     -7.773000
C          31.276000      2.693000     -8.488000
C          31.361000      1.465000     -7.871000
H          30.966000      1.304000     -6.872000
C          32.063000      0.374000     -8.471000
H          32.144000     -0.571000     -7.942000
C          32.543000      0.425000     -9.777000
H          33.108000     -0.417000    -10.167000
C          32.385000      1.684000    -10.472000
H          32.947000      1.852000    -11.385000
C          31.851000      2.776000     -9.753000
H          32.003000      3.736000    -10.239000
C          25.796000      2.233000     -9.660000
C          26.074000      0.820000     -7.807000
C          22.919000      2.642000     -5.246000
C          26.155000      7.034000     -8.400000
C          25.239000      4.613000     -3.531000
C          26.689000      1.496000     -8.849000
C          25.193000      7.320000     -5.796000
C          22.843000      2.088000     -7.599000
C          28.347000      2.521000     -4.945000
C          27.095000      7.146000     -7.361000
C          29.434000      3.665000     -6.781000
C          28.393000      3.899000     -4.601000
C          27.442000      6.539000     -5.268000
C          24.713000      6.641000     -4.692000
C          28.178000      1.554000     -7.164000
C          23.117000      4.836000     -4.644000
C          29.185000      4.122000     -8.162000
C          28.544000      5.467000     -8.454000
C          23.947000      4.111000     -3.752000
C          23.074000      5.389000     -8.585000
C          22.169000      4.303000     -6.853000
C          22.435000      3.401000     -7.913000
C          23.829000      1.511000     -8.358000
C          27.613000      5.372000     -9.498000
C          28.890000      2.376000     -6.263000
C          24.722000      0.817000     -7.552000
C          26.580000      7.281000     -6.089000
C          26.989000      0.872000     -6.750000
C          27.394000      4.533000     -3.873000
C          25.212000      5.552000     -9.838000
C          23.138000      1.693000     -6.263000
C          29.045000      4.628000     -5.678000
C          24.008000      3.509000     -9.762000
C          26.987000      5.891000     -4.151000
C          27.187000      1.827000     -4.534000
C          23.259000      6.479000     -6.391000
C          24.338000      7.244000     -6.892000
C          26.189000      2.394000     -3.739000
C          26.391000      6.105000     -9.447000
C          28.233000      6.348000     -7.341000
C          24.187000      6.159000     -9.040000
C          28.383000      3.254000     -9.043000
C          25.204000      1.044000     -5.159000
C          28.460000      5.897000     -6.018000
C          26.355000      3.730000     -3.402000
C          25.099000      4.221000    -10.207000
C          23.831000      2.769000     -4.172000
C          24.437000      2.198000     -9.406000
C          22.461000      3.952000     -5.486000
C          26.535000      1.027000     -5.443000
C          24.946000      1.883000     -4.073000
C          27.894000      2.084000     -8.446000
C          27.516000      4.013000     -9.874000
C          22.609000      5.551000     -7.261000
C          24.282000      0.843000     -6.231000
C          25.600000      5.898000     -3.888000
C          24.795000      7.066000     -8.173000
C          23.472000      6.161000     -5.062000
C          26.244000      3.458000    -10.181000
C          22.958000      4.102000     -9.009000
O          27.992000      8.250000      4.385000
C          28.426000      9.521000      4.969000
H          29.317000      9.894000      4.449000
H          28.663000      9.468000      6.039000
H          27.633000     10.239000      4.727000
O          26.200000      8.007000      5.816000
C          26.917000      7.598000      4.916000
C          26.531000      6.272000      4.243000
H          25.606000      5.879000      4.683000
H          27.296000      5.500000      4.389000
C          26.276000      6.354000      2.763000
H          27.224000      6.580000      2.259000
H          25.945000      5.343000      2.494000
C          25.209000      7.424000      2.448000
H          24.303000      6.993000      2.892000
H          25.420000      8.311000      3.059000
C          25.079000      7.694000      0.923000
C          24.335000      6.478000      0.263000
C          22.900000      6.389000      0.244000
H          22.216000      7.088000      0.717000
C          22.282000      5.296000     -0.413000
H          21.214000      5.252000     -0.607000
C          23.144000      4.269000     -0.806000
H          22.678000      3.426000     -1.307000
C          24.500000      4.262000     -0.607000
H          25.087000      3.352000     -0.698000
C          25.153000      5.353000     -0.018000
H          26.230000      5.335000      0.117000
C          28.263000      9.504000     -3.114000
C          25.979000     10.081000     -3.876000
C          26.199000     14.568000     -3.259000
C          28.920000     11.454000      1.565000
C          24.478000     14.497000     -0.196000
C          26.883000      9.197000     -3.197000
C          27.417000     13.825000      1.830000
C          27.762000     13.017000     -4.152000
C          23.422000     10.648000     -0.739000
C          27.687000     11.437000      2.287000
C          24.728000      9.070000      0.488000
C          23.584000     11.126000      0.618000
C          25.538000     12.251000      2.326000
C          26.528000     14.713000      1.130000
C          24.909000      9.203000     -2.029000
C          26.499000     15.475000     -1.211000
C          26.103000      8.589000      0.372000
C          27.176000      9.332000      1.178000
C          25.194000     15.054000     -1.322000
C          29.864000     13.250000     -1.324000
C          28.417000     14.563000     -2.380000
C          28.759000     13.553000     -3.305000
C          27.732000     11.614000     -4.318000
C          28.398000      9.344000      0.504000
C          24.191000      9.488000     -0.868000
C          26.407000     11.280000     -4.425000
C          26.929000     12.648000      2.401000
C          24.799000     10.057000     -3.108000
C          23.749000     12.533000      0.756000
C          29.932000     10.997000     -0.375000
C          26.516000     13.555000     -4.098000
C          24.461000     10.322000      1.298000
C          29.634000     11.369000     -2.774000
C          24.712000     13.078000      1.605000
C          23.286000     11.494000     -1.851000
C          28.456000     14.720000      0.048000
C          28.625000     13.878000      1.174000
C          23.402000     12.862000     -1.608000
C          29.234000     10.407000      0.730000
C          26.746000     10.350000      2.110000
C          30.002000     12.353000     -0.200000
C          26.845000      8.378000     -0.897000
C          24.361000     12.377000     -3.543000
C          25.450000     10.868000      2.111000
C          23.681000     13.391000     -0.363000
C          29.738000     10.458000     -1.674000
C          24.967000     14.480000     -2.591000
C          28.670000     10.725000     -3.660000
C          27.144000     15.100000     -2.373000
C          23.929000     11.142000     -3.037000
C          24.003000     13.410000     -2.710000
C          26.175000      8.572000     -2.110000
C          28.212000      8.811000     -0.797000
C          29.065000     14.369000     -1.161000
C          25.621000     12.451000     -4.256000
C          25.193000     14.268000      1.022000
C          29.387000     12.656000      1.015000
C          27.144000     15.294000      0.051000
C          28.949000      9.365000     -1.883000
C          29.676000     12.737000     -2.607000
$end

--------------------------------------------------------------

             Standard Nuclear Orientation (Angstroms)
    I     Atom           X                Y                Z
 ----------------------------------------------------------------
    1      O       3.6911439331    -6.6554173203    -2.7261603733
    2      C       3.8301601583    -7.7635548051    -3.6615446814
    3      H       4.8352219587    -8.2004669029    -3.6286570539
    4      H       3.7238132389    -7.3647394960    -4.6773230440
    5      H       3.0114202558    -8.4724198300    -3.4846849953
    6      O       4.5035042895    -7.9665889167    -1.0583628148
    7      C       4.0977954103    -6.8478230884    -1.4543834288
    8      C       3.9021702970    -5.6033229768    -0.5236539905
    9      H       2.8300342344    -5.5492489008    -0.3002076708
   10      H       4.0864742399    -4.7532349759    -1.1926326503
   11      C       4.7730030118    -5.6051631383     0.6785706127
   12      H       4.2267250937    -6.2577463352     1.3703679872
   13      H       5.8059801850    -5.9195288667     0.4838442703
   14      C       4.7671277205    -4.3313721047     1.4532614439
   15      H       3.7817284831    -3.9373820711     1.7301480568
   16      H       5.1759817286    -4.5385851548     2.4507358305
   17      C       5.6821816036    -3.2719815241     0.8113743910
   18      C       7.0927073123    -3.8028523127     0.5518123928
   19      C       7.6025101250    -3.8210749848    -0.7271195938
   20      H       7.0218228574    -3.4665852494    -1.5739290910
   21      C       8.8763757576    -4.4015985067    -1.0158128406
   22      H       9.2341931999    -4.4339384857    -2.0406776139
   23      C       9.7504350281    -4.8160440281    -0.0143677341
   24      H      10.6872612399    -5.2909602542    -0.2920370106
   25      C       9.2625251543    -4.7236050132     1.3444806694
   26      H       9.7966545904    -5.2493375896     2.1293042188
   27      C       7.9247473871    -4.3165441114     1.5425540593
   28      H       7.5491824745    -4.5195661978     2.5418703400
   29      C       7.6963059887     1.7495786762     1.2012450308
   30      C       7.5412643127     1.4901979602    -1.1260163905
   31      C       4.1926979652     4.3527973380    -1.7779812810
   32      C       3.3310899794     0.9429810578     3.4507719753
   33      C       1.8101274471     1.7970551577    -1.7803549021
   34      C       7.7890110992     0.8777214033     0.0923673738
   35      C       1.3001616131     1.7432304018     1.7120980673
   36      C       6.1582680426     4.5943100686    -0.3896344685
   37      C       4.5934130668    -1.0563951197    -2.1633257549
   38      C       2.6468669880    -0.0553712269     2.7360716090
   39      C       5.0652186619    -2.1351640376    -0.0479397140
   40      C       3.3468401200    -1.2302138578    -1.5036448211
   41      C       1.7409129494    -0.4603261018     0.7650906783
   42      C       1.0261951717     2.2183583906     0.4434559652
   43      C       6.7677855685    -0.6961798862    -1.1484562021
   44      C       2.1836547239     3.9490518735    -0.7700235167
   45      C       5.6191773047    -1.8525355052     1.2904406261
   46      C       4.7545485726    -1.3069876831     2.4129221313
   47      C       2.2077706710     3.1347645034    -1.9304301264
   48      C       4.3847349429     4.1511565297     2.5395895388
   49      C       3.9560324198     5.0494833180     0.5377233774
   50      C       5.3539082670     4.9116137073     0.7245256422
   51      C       7.1829417056     3.6981619154    -0.2218001101
   52      C       5.4303211054    -0.3186964998     3.1425343715
   53      C       5.6268132382    -1.5172515686    -1.2842959380
   54      C       7.2470552624     2.8231222443    -1.2983297315
   55      C       1.6540506212     0.3807884908     1.8843003003
   56      C       6.8872686820     0.5206032585    -1.8937102288
   57      C       2.2992178321    -0.3240845295    -1.6102195945
   58      C       5.2964963323     2.0745481007     3.5515236283
   59      C       5.5924925528     4.2632538959    -1.6538519758
   60      C       3.5819654746    -1.8819553177    -0.2244172662
   61      C       6.6488714617     3.4326207412     2.1529667963
   62      C       1.4376661630    -0.0132363790    -0.4929912612
   63      C       4.7265206766     0.1326349657    -2.9147556054
   64      C       2.1371823016     3.7664634059     1.6249971023
   65      C       2.0034953308     2.6570324897     2.4920367992
   66      C       3.6842469924     1.0396693636    -3.1159325632
   67      C       4.7375521176     0.8364640549     3.6103476061
   68      C       3.3328486444    -1.1253796908     2.1732580925
   69      C       4.2200077948     3.0051042300     3.3751271460
   70      C       6.7725449777    -0.9392251933     1.3820718706
   71      C       5.5357999799     2.2015538491    -2.9401458260
   72      C       2.8108601629    -1.3835926732     0.8824780644
   73      C       2.4847775018     0.7501182353    -2.4807522068
   74      C       6.5184790602     2.3125928220     2.9427675824
   75      C       3.4714810277     3.3793098477    -2.5084039225
   76      C       7.4258489029     3.0920832702     1.0084851290
   77      C       3.3367491150     4.7162917353    -0.7203010888
   78      C       5.8621213491     0.8926322305    -2.7591912453
   79      C       4.1681732032     2.3351578923    -3.1883956185
   80      C       7.1985759269    -0.3896647740     0.1651450133
   81      C       6.6792333443    -0.0939770923     2.5201314415
   82      C       3.3420757648     4.5326973669     1.6662434289
   83      C       6.3096634238     3.1908136943    -2.2603154584
   84      C       1.1274339733     1.3533154777    -0.6641023692
   85      C       3.0287377113     2.2825146257     3.3227644507
   86      C       1.5111966759     3.5112349075     0.4184589097
   87      C       7.1751641594     1.2325057588     2.3986659224
   88      C       5.6102849998     4.3915076477     2.0012036194
   89      O      -5.8834104370    -1.6432987132    -5.3078574279
   90      C      -7.1733548153    -2.2071880030    -4.9042172792
   91      H      -7.0212205234    -3.0971262528    -4.2811000601
   92      H      -7.8218472276    -2.4941343056    -5.7414731604
   93      H      -7.6201769444    -1.4627441452    -4.2340752588
   94      O      -6.8213840015     0.0860900894    -6.5109758601
   95      C      -5.8531132519    -0.5484407721    -6.1221412663
   96      C      -4.4587717709    -0.0233357309    -6.4966776866
   97      H      -4.5461699416     0.9061801897    -7.0729030878
   98      H      -3.9107993235    -0.7306277551    -7.1307038606
   99      C      -3.5613910449     0.3003843771    -5.3338956243
  100      H      -3.3054253749    -0.6353589743    -4.8213900574
  101      H      -2.6637538094     0.7246685418    -5.8010929499
  102      C      -4.2467602740     1.2931879236    -4.3709708412
  103      H      -4.3068260910     2.2066241779    -4.9757512204
  104      H      -5.2906415984     0.9806162439    -4.2397392686
  105      C      -3.4472671567     1.4797575891    -3.0513392581
  106      C      -2.1768651194     2.3517623217    -3.3570816498
  107      C      -2.2332192843     3.7883424313    -3.3809311120
  108      H      -3.1302066924     4.3888730405    -3.2586094986
  109      C      -1.0442308075     4.5249230903    -3.6089164943
  110      H      -0.9833091054     5.6016092238    -3.4776476243
  111      C       0.0598158708     3.7693145395    -4.0118540207
  112      H       0.9740508473     4.3265251216    -4.1921226399
  113      C       0.0605184894     2.4097599791    -4.1850501628
  114      H       0.8514409925     1.9029417414    -4.7314262861
  115      C      -1.0785637013     1.6420105627    -3.9081682451
  116      H      -1.0534728599     0.5643735499    -4.0368030703
  117      C      -1.8116750226    -1.6260904640     1.1187771962
  118      C      -1.9490354081     0.6407158482     2.1051596107
  119      C      -5.6675764683     0.0308213740     4.6276066595
  120      C      -6.3022239702    -2.6777985978    -1.0848720842
  121      C      -7.8096100154     1.5914792961     2.3200343133
  122      C      -1.6586044194    -0.2235115722     0.9967942348
  123      C      -8.3789982626    -1.3850326318     0.3174972308
  124      C      -3.7768897963    -1.3548486105     4.2387087259
  125      C      -4.6922874342     2.9787023177     0.1793105541
  126      C      -6.8847791280    -1.4863332530    -1.6167572411
  127      C      -4.2127124517     1.7415288886    -1.8057986979
  128      C      -5.9323576737     2.7091039401    -0.5176252507
  129      C      -7.7169088413     0.5857523561    -1.0723866238
  130      C      -8.6570494057    -0.5349724641     1.4439741604
  131      C      -2.6239378699     1.6807099227     0.1583386144
  132      C      -7.6716120006    -0.4461655600     3.6984790849
  133      C      -3.6494172144     0.4172571823    -2.0596587451
  134      C      -4.6347521586    -0.7519458079    -2.1825140064
  135      C      -7.4083042546     0.8923221051     3.5204150481
  136      C      -5.6288764036    -3.6120009367     2.2523336398
  137      C      -6.0385498953    -2.2220964026     3.9355588228
  138      C      -4.6429726703    -2.4339515573     3.9486203162
  139      C      -2.6283915349    -1.2041502801     3.4293220713
  140      C      -4.0813773628    -1.9345402245    -1.6896136299
  141      C      -3.6734999510     2.3126777257    -0.5077740891
  142      C      -2.4341819586     0.1470785824     3.3064676788
  143      C      -7.9304233229    -0.8345646909    -0.8847005772
  144      C      -2.5519380752     1.7776063501     1.5335055540
  145      C      -7.0525404191     2.4251453392     0.3133236827
  146      C      -4.5803672201    -3.5484329984     0.0437545470
  147      C      -4.3292002042    -0.1603491758     4.5748639191
  148      C      -5.7044978149     1.8653009511    -1.5730973727
  149      C      -3.2923305814    -3.1576473220     2.0859683391
  150      C      -7.9298282721     1.3790644187     0.0282346949
  151      C      -4.5948961619     3.1038251002     1.5741636752
  152      C      -7.7627661116    -2.3988850452     2.2275839356
  153      C      -7.8693122918    -2.5579009764     0.8244578382
  154      C      -5.7604322519     2.8663412251     2.3015260552
  155      C      -4.9415535497    -2.8634688710    -1.1631827254
  156      C      -6.0491911033    -0.4534923043    -2.1941749649
  157      C      -5.6961968855    -3.7356536532     0.8145551595
  158      C      -2.5808360375    -0.2389445560    -1.2640586277
  159      C      -4.0261017253     2.0504480959     3.4085703301
  160      C      -6.5561896664     0.7951175552    -1.8310401749
  161      C      -6.9530108997     2.4819785673     1.7203819114
  162      C      -3.3365326929    -3.2450947966     0.6572849898
  163      C      -6.1615112617     1.2297613667     4.0887529561
  164      C      -2.3171143030    -2.1007384573     2.3327979605
  165      C      -6.5614662375    -0.9982121780     4.3065209552
  166      C      -3.4860786918     2.5531686217     2.2154516453
  167      C      -5.3791952286     2.2811418816     3.4797064576
  168      C      -1.9828124687     0.4751373054    -0.2198556271
  169      C      -2.8399153795    -1.6395424519    -1.0707158530
  170      C      -6.6426252877    -2.9145881549     2.8872033996
  171      C      -3.4892784313     0.8270797828     3.9712742678
  172      C      -8.3807449945     0.8351442531     1.2481424631
  173      C      -6.7852638705    -3.2104469916     0.1186025285
  174      C      -8.3141543873    -1.1389320458     2.6267310373
  175      C      -2.4609541735    -2.3614301027     0.0975082796
  176      C      -4.4143903505    -3.3175422342     2.8711386974
 ----------------------------------------------------------------

    9   -5804.2268184184      8.83E-06 Convergence criterion met
 Total energy in the final basis set = -5804.2268184184

                    Orbital Energies (a.u.)
 --------------------------------------------------------------

 Alpha MOs
 -- Occupied --
-19.197 -19.196 -19.132 -19.128 -10.318 -10.317 -10.248 -10.247
-10.245 -10.238 -10.237 -10.236 -10.235 -10.235 -10.235 -10.234
-10.233 -10.232 -10.231 -10.230 -10.228 -10.227 -10.226 -10.226
-10.225 -10.224 -10.224 -10.224 -10.223 -10.223 -10.223 -10.222
-10.222 -10.222 -10.222 -10.222 -10.222 -10.221 -10.221 -10.220
-10.220 -10.220 -10.220 -10.220 -10.220 -10.219 -10.219 -10.219
-10.219 -10.219 -10.219 -10.218 -10.218 -10.218 -10.218 -10.218
-10.217 -10.217 -10.217 -10.217 -10.217 -10.216 -10.216 -10.216
-10.216 -10.216 -10.216 -10.216 -10.216 -10.216 -10.216 -10.216
-10.215 -10.215 -10.215 -10.215 -10.215 -10.215 -10.215 -10.214
-10.214 -10.214 -10.214 -10.213 -10.213 -10.213 -10.213 -10.213
-10.213 -10.213 -10.213 -10.213 -10.213 -10.213 -10.213 -10.213
-10.213 -10.212 -10.212 -10.212 -10.212 -10.212 -10.212 -10.212
-10.212 -10.212 -10.211 -10.211 -10.211 -10.211 -10.211 -10.211
-10.211 -10.211 -10.211 -10.211 -10.210 -10.210 -10.210 -10.210
-10.210 -10.209 -10.209 -10.209 -10.209 -10.208 -10.208 -10.208
-10.208 -10.207 -10.205 -10.205 -10.205 -10.204 -10.204 -10.203
-10.203 -10.202 -10.200 -10.200 -10.199 -10.199 -10.198 -10.197
-10.195 -10.194 -10.193 -10.188  -1.091  -1.088  -1.008  -0.989
 -0.986  -0.984  -0.969  -0.969  -0.967  -0.964  -0.964  -0.961
 -0.941  -0.937  -0.932  -0.928  -0.927  -0.927  -0.924  -0.923
 -0.922  -0.922  -0.900  -0.898  -0.894  -0.891  -0.886  -0.886
 -0.875  -0.874  -0.857  -0.853  -0.847  -0.843  -0.840  -0.839
 -0.838  -0.837  -0.824  -0.823  -0.812  -0.812  -0.800  -0.799
 -0.799  -0.797  -0.796  -0.795  -0.793  -0.789  -0.788  -0.783
 -0.773  -0.770  -0.770  -0.769  -0.767  -0.767  -0.765  -0.763
 -0.755  -0.747  -0.744  -0.739  -0.735  -0.733  -0.718  -0.717
 -0.716  -0.716  -0.714  -0.713  -0.712  -0.711  -0.711  -0.711
 -0.710  -0.709  -0.708  -0.706  -0.705  -0.704  -0.675  -0.670
 -0.662  -0.660  -0.659  -0.658  -0.648  -0.648  -0.633  -0.632
 -0.627  -0.627  -0.627  -0.625  -0.622  -0.621  -0.618  -0.616
 -0.616  -0.614  -0.614  -0.613  -0.613  -0.612  -0.609  -0.609
 -0.608  -0.607  -0.605  -0.603  -0.569  -0.566  -0.564  -0.563
 -0.561  -0.561  -0.560  -0.559  -0.559  -0.558  -0.555  -0.555
 -0.538  -0.538  -0.535  -0.533  -0.530  -0.529  -0.528  -0.527
 -0.524  -0.523  -0.520  -0.519  -0.518  -0.517  -0.516  -0.515
 -0.508  -0.507  -0.501  -0.500  -0.495  -0.491  -0.489  -0.487
 -0.486  -0.486  -0.482  -0.481  -0.480  -0.479  -0.476  -0.475
 -0.473  -0.473  -0.472  -0.471  -0.470  -0.469  -0.468  -0.468
 -0.467  -0.466  -0.465  -0.464  -0.463  -0.462  -0.461  -0.460
 -0.457  -0.456  -0.455  -0.454  -0.453  -0.447  -0.446  -0.445
 -0.443  -0.443  -0.442  -0.442  -0.439  -0.439  -0.436  -0.435
 -0.433  -0.431  -0.430  -0.429  -0.428  -0.427  -0.426  -0.424
 -0.424  -0.423  -0.423  -0.422  -0.422  -0.419  -0.419  -0.418
 -0.418  -0.418  -0.417  -0.417  -0.415  -0.414  -0.414  -0.413
 -0.413  -0.412  -0.409  -0.407  -0.404  -0.401  -0.397  -0.397
 -0.395  -0.394  -0.391  -0.390  -0.388  -0.388  -0.386  -0.384
 -0.381  -0.379  -0.376  -0.374  -0.374  -0.373  -0.370  -0.368
 -0.367  -0.364  -0.364  -0.362  -0.361  -0.360  -0.360  -0.358
 -0.357  -0.357  -0.356  -0.355  -0.353  -0.352  -0.351  -0.350
 -0.349  -0.349  -0.348  -0.347  -0.346  -0.346  -0.345  -0.345
 -0.344  -0.342  -0.342  -0.340  -0.340  -0.338  -0.337  -0.335
 -0.334  -0.331  -0.330  -0.329  -0.328  -0.326  -0.322  -0.321
 -0.309  -0.308  -0.301  -0.296  -0.290  -0.289  -0.275  -0.273
 -0.271  -0.270  -0.269  -0.268  -0.266  -0.264  -0.264  -0.263
 -0.262  -0.261  -0.260  -0.259  -0.258  -0.257  -0.257  -0.253
 -0.251  -0.248  -0.245  -0.241  -0.224  -0.223  -0.214  -0.212
 -0.211  -0.209  -0.208  -0.207  -0.202  -0.199

          Ground-State Mulliken Net Atomic Charges

     Atom                 Charge (a.u.)
  ----------------------------------------
      1 O                    -0.462073
      2 C                    -0.081610
      3 H                     0.138951
      4 H                     0.120462
      5 H                     0.131924
      6 O                    -0.494657
      7 C                     0.589108
      8 C                    -0.256061
      9 H                     0.137852
     10 H                     0.123506
     11 C                    -0.158052
     12 H                     0.111610
     13 H                     0.132085
     14 C                    -0.206843
     15 H                     0.104691
     16 H                     0.107434
     17 C                     0.028516
     18 C                     0.105043
     19 C                    -0.120043
     20 H                     0.094171
     21 C                    -0.086127
     22 H                     0.086951
     23 C                    -0.088596
     24 H                     0.096383
     25 C                    -0.094750
     26 H                     0.096593
     27 C                    -0.125538
     28 H                     0.086809
     29 C                    -0.017361
     30 C                     0.028360
     31 C                     0.015804
     32 C                    -0.012580
     33 C                     0.004755
     34 C                    -0.047424
     35 C                     0.013524
     36 C                     0.006029
     37 C                    -0.002262
     38 C                    -0.007224
     39 C                    -0.046910
     40 C                    -0.018649
     41 C                    -0.001357
     42 C                     0.013331
     43 C                    -0.007323
     44 C                    -0.000304
     45 C                    -0.078881
     46 C                     0.017273
     47 C                    -0.010045
     48 C                    -0.002300
     49 C                    -0.032829
     50 C                     0.009745
     51 C                    -0.002632
     52 C                     0.004348
     53 C                    -0.007849
     54 C                     0.020332
     55 C                     0.011247
     56 C                    -0.023472
     57 C                     0.002704
     58 C                     0.005609
     59 C                    -0.013842
     60 C                     0.004881
     61 C                    -0.014264
     62 C                    -0.023394
     63 C                    -0.006806
     64 C                    -0.005011
     65 C                    -0.005931
     66 C                     0.003132
     67 C                     0.006517
     68 C                    -0.013216
     69 C                    -0.023533
     70 C                     0.034056
     71 C                    -0.000115
     72 C                     0.009831
     73 C                    -0.001824
     74 C                    -0.000192
     75 C                    -0.016428
     76 C                     0.024045
     77 C                    -0.000836
     78 C                     0.029345
     79 C                    -0.016802
     80 C                     0.055994
     81 C                    -0.018399
     82 C                     0.014556
     83 C                    -0.025735
     84 C                     0.030951
     85 C                     0.023636
     86 C                    -0.014373
     87 C                     0.009774
     88 C                     0.006159
     89 O                    -0.474416
     90 C                    -0.086030
     91 H                     0.127678
     92 H                     0.131854
     93 H                     0.133124
     94 O                    -0.472527
     95 C                     0.598096
     96 C                    -0.244960
     97 H                     0.129792
     98 H                     0.118339
     99 C                    -0.191513
    100 H                     0.108260
    101 H                     0.110693
    102 C                    -0.187600
    103 H                     0.108523
    104 H                     0.120518
    105 C                     0.028822
    106 C                     0.059903
    107 C                    -0.111767
    108 H                     0.099724
    109 C                    -0.085118
    110 H                     0.102525
    111 C                    -0.073346
    112 H                     0.086252
    113 C                    -0.098398
    114 H                     0.094332
    115 C                    -0.093716
    116 H                     0.104687
    117 C                    -0.011919
    118 C                     0.011304
    119 C                    -0.005551
    120 C                     0.009780
    121 C                    -0.019055
    122 C                     0.000457
    123 C                     0.017726
    124 C                     0.000856
    125 C                    -0.004914
    126 C                    -0.059157
    127 C                    -0.125150
    128 C                    -0.026860
    129 C                    -0.037991
    130 C                    -0.004217
    131 C                     0.034964
    132 C                    -0.000367
    133 C                    -0.069407
    134 C                     0.042348
    135 C                    -0.010691
    136 C                    -0.006408
    137 C                    -0.004899
    138 C                    -0.014366
    139 C                     0.010389
    140 C                     0.021567
    141 C                     0.052009
    142 C                    -0.016737
    143 C                     0.006368
    144 C                     0.007253
    145 C                    -0.011974
    146 C                    -0.016237
    147 C                     0.011467
    148 C                     0.067987
    149 C                    -0.007076
    150 C                     0.017147
    151 C                    -0.021777
    152 C                    -0.003712
    153 C                    -0.016444
    154 C                     0.020034
    155 C                    -0.010608
    156 C                    -0.023374
    157 C                     0.000923
    158 C                     0.020687
    159 C                    -0.011619
    160 C                     0.034003
    161 C                     0.030713
    162 C                     0.016522
    163 C                     0.007521
    164 C                    -0.013264
    165 C                     0.005915
    166 C                    -0.007389
    167 C                    -0.010640
    168 C                    -0.035528
    169 C                     0.006524
    170 C                     0.022897
    171 C                    -0.004909
    172 C                    -0.006824
    173 C                    -0.006580
    174 C                    -0.002554
    175 C                    -0.003613
    176 C                     0.007146
  ----------------------------------------
  Sum of atomic charges =     0.000000

                    Cartesian Multipole Moments
 -----------------------------------------------------------------
    Charge (ESU x 10^10)
                 0.0000
    Dipole Moment (Debye)
         X       2.4281      Y      -0.9650      Z      -1.8968
       Tot       3.2287
    Quadrupole Moments (Debye-Ang)
        XX    -819.5810     XY       0.5755     YY    -810.4256
        XZ     -12.4795     YZ       9.7487     ZZ    -802.5786

 Total job time:  891.28s(wall), 7570.31s(cpu)
        *  Thank you very much for using Q-Chem.  Have a nice day.  *
