 Q-Chem 4.4, Q-Chem, Inc., Pleasanton, CA (2016)
 Q-Chem 4.4.2 for Intel X86 Linux

User input:
--------------------------------------------------------------
$comment
SP
$end

$rem
MEM_STATIC 5000
MEM_TOTAL 20000
JOBTYPE SP
EXCHANGE B3LYP
BASIS 6-31g(d,p)
$end

$molecule
0 1
O         -10.618000     14.819000     -1.190000
C          -9.819000     13.711000     -1.609000
H          -9.554000     13.155000     -0.702000
H          -8.965000     14.018000     -2.225000
H         -10.271000     12.885000     -2.172000
O         -12.485000     13.561000     -0.714000
C         -11.928000     14.634000     -0.842000
C         -12.789000     15.875000     -0.771000
H         -13.842000     15.646000     -0.975000
H         -12.485000     16.505000     -1.617000
C         -12.496000     16.793000      0.476000
H         -12.688000     16.226000      1.395000
H         -11.437000     17.082000      0.482000
C         -13.344000     18.053000      0.497000
H         -13.229000     18.691000     -0.388000
H         -14.394000     17.781000      0.333000
C         -13.263000     19.011000      1.768000
C         -14.132000     18.454000      2.911000
C         -13.510000     17.679000      3.900000
H         -12.458000     17.411000      3.884000
C         -14.289000     16.970000      4.839000
H         -13.838000     16.242000      5.507000
C         -15.683000     17.100000      4.875000
H         -16.327000     16.491000      5.503000
C         -16.235000     18.034000      4.049000
H         -17.314000     18.141000      4.110000
C         -15.535000     18.590000      3.004000
H         -16.122000     19.268000      2.391000
C         -12.880000     24.314000      3.331000
C         -11.407000     23.102000      4.883000
C          -7.423000     24.745000      3.249000
C         -11.549000     23.221000     -1.417000
C          -6.700000     21.799000      1.374000
C         -12.527000     23.174000      4.133000
C          -8.743000     22.772000     -1.555000
C          -9.589000     25.837000      3.567000
C          -9.830000     19.847000      3.235000
C         -10.980000     21.900000     -1.395000
C         -11.874000     19.580000      2.041000
C          -9.497000     19.612000      1.958000
C          -9.381000     20.576000     -0.629000
C          -7.557000     22.748000     -0.764000
C         -11.732000     20.987000      4.107000
C          -6.843000     24.233000      1.088000
C         -13.006000     20.450000      1.525000
C         -12.789000     21.190000      0.119000
C          -6.545000     23.107000      1.925000
C         -10.319000     26.094000      0.161000
C          -8.448000     25.980000      1.436000
C          -9.541000     26.325000      2.264000
C         -10.807000     25.398000      4.102000
C         -13.175000     22.524000      0.197000
C         -11.200000     19.903000      3.384000
C         -10.535000     24.268000      4.930000
C          -9.582000     21.650000     -1.488000
C         -10.875000     21.827000      4.847000
C          -8.279000     20.105000      1.410000
C         -12.378000     24.820000     -0.136000
C          -8.586000     25.014000      4.026000
C         -10.690000     19.481000      1.131000
C         -11.880000     25.879000      1.998000
C          -8.196000     20.573000      0.184000
C          -9.020000     20.641000      4.066000
C          -8.404000     24.830000     -0.695000
C          -9.285000     24.055000     -1.496000
C          -7.785000     21.183000      3.543000
C         -12.619000     23.546000     -0.611000
C         -11.638000     20.909000     -0.632000
C         -11.189000     25.352000     -0.631000
C         -13.352000     21.669000      2.354000
C          -8.647000     22.738000      4.873000
C         -10.628000     20.123000     -0.135000
C          -7.387000     20.855000      2.208000
C         -12.721000     25.080000      1.248000
C          -6.967000     23.437000      3.197000
C         -11.971000     25.419000      3.261000
C          -7.339000     25.241000      1.910000
C          -9.536000     21.670000      4.870000
C          -7.530000     22.427000      4.025000
C         -12.731000     21.861000      3.610000
C         -13.510000     22.807000      1.558000
C          -8.926000     25.844000      0.154000
C          -9.174000     24.013000      4.789000
C          -7.262000     21.587000      0.076000
C         -10.679000     24.330000     -1.420000
C          -7.333000     24.022000     -0.223000
C         -13.348000     24.077000      2.028000
C         -10.698000     26.409000      1.502000
O          -5.489000     27.485000      1.799000
C          -5.397000     28.268000      2.962000
H          -6.179000     28.030000      3.693000
H          -5.458000     29.327000      2.682000
H          -4.407000     28.092000      3.401000
O          -3.864000     28.486000      0.583000
C          -4.776000     27.709000      0.686000
C          -5.186000     26.798000     -0.532000
H          -6.022000     27.310000     -1.024000
H          -5.451000     25.794000     -0.177000
C          -4.137000     26.650000     -1.670000
H          -3.766000     27.624000     -2.012000
H          -3.194000     26.111000     -1.517000
C          -4.837000     25.842000     -2.719000
H          -5.384000     24.996000     -2.284000
H          -5.631000     26.483000     -3.122000
C          -3.888000     25.419000     -3.889000
C          -3.291000     26.592000     -4.594000
C          -2.174000     27.342000     -4.206000
H          -1.651000     27.195000     -3.266000
C          -1.632000     28.386000     -4.985000
H          -0.809000     28.998000     -4.627000
C          -2.146000     28.679000     -6.212000
H          -1.713000     29.469000     -6.819000
C          -3.281000     28.005000     -6.644000
H          -3.670000     28.296000     -7.615000
C          -3.806000     26.965000     -5.883000
H          -4.574000     26.351000     -6.345000
C          -3.182000     22.176000     -8.204000
C          -0.939000     22.455000     -7.226000
C          -0.594000     18.214000     -5.676000
C          -6.410000     20.570000     -4.678000
C          -1.373000     19.072000     -2.442000
C          -2.192000     23.011000     -7.575000
C          -5.033000     18.950000     -2.794000
C          -1.574000     19.021000     -7.746000
C          -1.037000     22.937000     -3.306000
C          -5.966000     21.133000     -3.472000
C          -3.087000     24.167000     -3.702000
C          -1.921000     22.585000     -2.298000
C          -4.243000     21.088000     -1.896000
C          -3.725000     18.362000     -2.497000
C          -1.473000     23.732000     -5.538000
C          -2.011000     17.451000     -4.084000
C          -4.167000     24.130000     -4.691000
C          -5.328000     23.214000     -4.545000
C          -1.000000     18.255000     -3.482000
C          -4.844000     18.375000     -6.873000
C          -2.814000     17.484000     -6.386000
C          -2.707000     18.282000     -7.552000
C          -1.685000     20.315000     -8.141000
C          -5.768000     22.645000     -5.744000
C          -1.715000     23.824000     -4.175000
C          -0.663000     21.099000     -7.560000
C          -5.255000     20.335000     -2.557000
C          -0.431000     22.931000     -6.052000
C          -1.813000     21.243000     -1.834000
C          -5.957000     20.516000     -6.867000
C          -0.503000     19.003000     -6.848000
C          -3.182000     23.154000     -2.613000
C          -4.040000     20.117000     -8.359000
C          -2.969000     20.509000     -1.628000
C          -0.029000     22.112000     -3.802000
C          -4.459000     17.596000     -4.585000
C          -5.452000     18.437000     -4.123000
C           0.103000     20.843000     -3.329000
C          -6.313000     21.332000     -5.806000
C          -5.422000     22.449000     -3.389000
C          -5.902000     19.195000     -6.371000
C          -3.915000     23.930000     -6.116000
C           0.569000     20.783000     -5.474000
C          -4.383000     22.410000     -2.408000
C          -0.827000     20.391000     -2.360000
C          -5.015000     20.975000     -7.808000
C          -0.049000     18.684000     -4.477000
C          -2.943000     20.841000     -8.469000
C          -1.730000     17.451000     -5.465000
C           0.279000     22.111000     -5.142000
C           0.480000     19.960000     -4.373000
C          -2.545000     23.828000     -6.532000
C          -4.864000     23.090000     -6.736000
C          -4.141000     17.538000     -5.989000
C           0.039000     20.288000     -6.688000
C          -2.704000     19.163000     -1.962000
C          -6.144000     19.232000     -5.026000
C          -3.361000     17.571000     -3.615000
C          -4.514000     22.248000     -7.799000
C          -3.932000     18.840000     -7.832000
$end

--------------------------------------------------------------

             Standard Nuclear Orientation (Angstroms)
    I     Atom           X                Y                Z
 ----------------------------------------------------------------
    1      O       3.2979505005    -7.2085020911     0.0542321865
    2      C       2.4718304677    -8.2532847005    -0.4630501259
    3      H       2.8753687040    -8.5128468520    -1.4488464442
    4      H       1.4074202573    -7.9886577325    -0.4581032259
    5      H       2.5001946926    -9.2539787667    -0.0143231972
    6      O       5.0978591151    -8.5697508334     0.5038540729
    7      C       4.5352029800    -7.4937254069     0.5634305388
    8      C       5.1800170713    -6.4200932002     1.4107626298
    9      H       5.8695136858    -6.8495249631     2.1476810647
   10      H       4.3749191384    -5.9885577733     2.0195536396
   11      C       5.7061097410    -5.1808877515     0.5915078716
   12      H       6.4687257180    -5.5167456910    -0.1216052443
   13      H       4.8825440787    -4.7437908888     0.0120909816
   14      C       6.3080594350    -4.0999140288     1.4725852671
   15      H       5.6227573432    -3.6991688979     2.2297235524
   16      H       7.0229391200    -4.5597507871     2.1660383597
   17      C       7.0102637211    -2.8483205073     0.7796287046
   18      C       8.4352509266    -3.2194477688     0.3284801484
   19      C       8.6279492387    -3.6134494438    -1.0031579559
   20      H       7.8233442359    -3.7149916412    -1.7250194188
   21      C       9.8610628752    -4.1682602276    -1.4067155770
   22      H       9.9776566180    -4.6250776733    -2.3851493869
   23      C      10.9478659508    -4.2449380292    -0.5267089920
   24      H      11.8736986865    -4.7632906476    -0.7594004370
   25      C      10.7976609577    -3.6469270905     0.6894971489
   26      H      11.6597314485    -3.6917305875     1.3484646105
   27      C       9.5650784710    -3.2772010683     1.1744755835
   28      H       9.5905159455    -2.8745873157     2.1830771407
   29      C       7.4515244502     2.6730478280     0.9563988230
   30      C       7.3721968423     2.1336138868    -1.4415367795
   31      C       3.1880901109     3.8859188293    -2.2566068677
   32      C       3.4507880582     0.6177013716     3.2540875021
   33      C       1.5814150883     0.7026189099    -2.2069380161
   34      C       7.7494044940     1.8421860317    -0.1786558696
   35      C       1.2305793647     0.5764150267     1.4755347774
   36      C       5.0000112711     4.6836814289    -0.8193662672
   37      C       5.2701994665    -1.1581876811    -2.1787663704
   38      C       3.0935392939    -0.5525897969     2.4977291867
   39      C       6.0900060689    -2.0259319508    -0.1172625463
   40      C       4.2104321123    -1.6584294367    -1.5280019423
   41      C       2.4209243416    -1.3806452733     0.5590579268
   42      C       0.8265090142     0.9340954505     0.1558208438
   43      C       7.2309528929    -0.1333900802    -1.2939930220
   44      C       1.3877206390     2.9326849125    -1.1990247836
   45      C       6.5863097258    -1.4972976146     1.2164572214
   46      C       5.4848127034    -1.1167617809     2.3180114819
   47      C       1.7494912057     2.1158417376    -2.3211380954
   48      C       3.3719235346     3.9497143279     2.1823678345
   49      C       2.7555897557     4.4481922863     0.0584765006
   50      C       4.1065685121     4.8243722165     0.2390396751
   51      C       6.2986923543     4.2174684423    -0.5774098758
   52      C       5.7647977198     0.1190431417     2.8916233575
   53      C       6.4144343780    -1.2730790535    -1.4173443849
   54      C       6.6748738412     3.3905903839    -1.6779679913
   55      C       1.9732076164    -0.6044666887     1.6215335918
   56      C       7.0040213181     0.9868755564    -2.1193147556
   57      C       2.9007667885    -1.1439616415    -1.7447428642
   58      C       4.8262330747     2.3469372314     3.3079145198
   59      C       4.5640039243     4.1659491966    -2.0176441686
   60      C       4.6045711204    -2.1743883965    -0.2230958943
   61      C       5.7545657643     3.9781124256     1.7584285071
   62      C       2.0306335574    -0.9974434139    -0.7698636054
   63      C       5.1397673025    -0.0657068826    -3.0543062927
   64      C       1.4175635541     2.8125321215     1.2416496534
   65      C       1.6207282092     1.7351583010     2.1451853604
   66      C       3.8305888580     0.5045017783    -3.2854596691
   67      C       4.7710469145     0.9726295276     3.4304495064
   68      C       4.1353166384    -1.4034239421     2.0641450289
   69      C       3.5707545840     2.9078121839     3.0821645538
   70      C       7.3210400391    -0.1735939498     1.1864909943
   71      C       5.2648552348     2.1992510760    -3.2595024306
   72      C       3.7163738238    -1.8750642222     0.8447405168
   73      C       2.6884809228    -0.0895728231    -2.6602574358
   74      C       5.9607904906     2.8968622285     2.5930250405
   75      C       2.8696808690     2.6921288264    -2.8850851758
   76      C       6.6540801864     3.8474741814     0.7640153870
   77      C       2.2436137320     4.0304844467    -1.1921548247
   78      C       5.9984748508     1.0445408711    -3.0157800442
   79      C       3.8809867816     1.8540538211    -3.4305607818
   80      C       7.6370834920     0.4239528060    -0.0557229207
   81      C       6.8773790087     0.6862687364     2.1951658928
   82      C       2.3103686215     3.9190369205     1.2468690033
   83      C       5.5525343335     3.3161109069    -2.4977446907
   84      C       1.1942361197     0.0841389698    -0.9768294803
   85      C       2.7258884326     1.8071748473     3.0385338354
   86      C       0.9369087822     2.3226893714    -0.0040285035
   87      C       6.9902226002     2.0435774418     2.1242899292
   88      C       4.5039220238     4.5357673465     1.5371792730
   89      O       0.6409952957     6.4240331308    -1.6079622851
   90      C       1.2744464589     7.4825797662    -2.2805250291
   91      H       2.3536175251     7.3240552361    -2.3936125311
   92      H       1.0898607998     8.4133238850    -1.7298477010
   93      H       0.8035373669     7.5757076098    -3.2671195922
   94      O      -1.4330843252     7.3144745546    -1.4448985031
   95      C      -0.6285324146     6.4612797348    -1.1787466244
   96      C      -1.0466189859     5.2185347457    -0.3056295012
   97      H      -0.7444754523     5.4559803145     0.7217131325
   98      H      -0.5665619796     4.3103474659    -0.6916439251
   99      C      -2.5716243388     4.9447402935    -0.1762298431
  100      H      -3.1232705801     5.8435645628     0.1255686948
  101      H      -3.1711361119     4.6110942259    -1.0320598119
  102      C      -2.6642123560     3.7998138542     0.7849339868
  103      H      -1.9243825670     3.0204601513     0.5626510833
  104      H      -2.3438617371     4.1895086737     1.7592231782
  105      C      -4.1192373480     3.2401429687     0.9194730975
  106      C      -5.0861616336     4.2704129800     1.4021366756
  107      C      -5.7331069624     5.2540424173     0.6440681617
  108      H      -5.5268658217     5.4323949060    -0.4068328715
  109      C      -6.6986752556     6.1339335273     1.1769945224
  110      H      -7.1322156487     6.9338115651     0.5834670571
  111      C      -7.1024107437     6.0231147158     2.4732548537
  112      H      -7.8618129644     6.6879037760     2.8750032484
  113      C      -6.4735249190     5.0981262475     3.2966769526
  114      H      -6.8095948332     5.0695781553     4.3287065158
  115      C      -5.5327056762     4.2200218887     2.7673964150
  116      H      -5.2077294229     3.3999726577     3.4015680742
  117      C      -7.2568274016    -0.8522181055     2.6638410329
  118      C      -8.3679973680     0.0018316897     0.6386807299
  119      C      -7.4322604977    -3.6009390398    -1.9404752522
  120      C      -2.4463477023    -1.9723224033     1.6457313018
  121      C      -4.8108296190    -2.0733368314    -3.5517767887
  122      C      -7.6565311870     0.2549760688     1.8347910077
  123      C      -2.2196379362    -2.8311366268    -1.0526062997
  124      C      -8.0422462985    -3.5062546640     0.4080351675
  125      C      -5.8125262433     1.4480450957    -2.0044920067
  126      C      -2.0447617712    -1.0598790110     0.6584538353
  127      C      -4.5526261084     2.2128236861    -0.0809584464
  128      C      -4.4724352752     1.2359844428    -2.2884118486
  129      C      -2.3586082673    -0.4409653087    -1.5715632511
  130      C      -3.0049612493    -3.1198302199    -2.2545798032
  131      C      -6.9430655629     1.5718768413     0.1192997781
  132      C      -5.2894913380    -4.1367583708    -2.4364187701
  133      C      -4.3533963292     1.7623124362     1.2986201519
  134      C      -3.3233056496     0.7498253788     1.6480141278
  135      C      -5.7210277146    -3.0628992870    -3.2680100302
  136      C      -4.9419315605    -4.3930474026     1.6221159573
  137      C      -6.1451668067    -4.8138447002    -0.2559427682
  138      C      -7.0117731797    -4.3332247398     0.7568784637
  139      C      -8.2735690414    -2.3879600541     1.1419894944
  140      C      -3.7231931836    -0.1659588644     2.6259666727
  141      C      -5.8911302144     1.9712081744    -0.6923426978
  142      C      -8.7259733898    -1.3369054436     0.3129445551
  143      C      -1.9665249255    -1.4813276253    -0.6816245435
  144      C      -8.0316728460     0.8326588282    -0.3906530750
  145      C      -4.1923491938     0.0890082433    -3.0846036501
  146      C      -4.1898260127    -2.5144204206     2.9365678991
  147      C      -8.2899689883    -3.1328568319    -0.9159650318
  148      C      -3.7337524609     1.5090183112    -1.1081969502
  149      C      -6.5949311915    -2.9875227851     2.7089778480
  150      C      -3.1367999594    -0.7335886141    -2.7286848055
  151      C      -6.8623400951     0.6853778429    -2.5133481141
  152      C      -3.7372569181    -4.4949871834    -0.5058824655
  153      C      -2.7214730955    -3.7234580258     0.0229842329
  154      C      -6.5985534303    -0.3859656406    -3.3096858162
  155      C      -3.2792151214    -1.5178911744     2.6266803935
  156      C      -2.4747058593     0.3001283843     0.6439981872
  157      C      -3.8496487320    -3.6411570449     2.1562948717
  158      C      -5.4472563858     1.2455147896     2.1174726227
  159      C      -8.3236070777    -0.9206037251    -2.0606329621
  160      C      -2.6437966255     0.6698357197    -0.7264498413
  161      C      -5.2430969100    -0.7104181930    -3.5658755169
  162      C      -5.5369562318    -2.1743270578     3.1670080803
  163      C      -7.1080750000    -2.7638860777    -3.0127495183
  164      C      -7.5433602754    -2.1588602340     2.3172054024
  165      C      -6.3874333077    -4.4469430460    -1.6091153805
  166      C      -7.9547705935     0.3887718982    -1.7329088021
  167      C      -7.5111026732    -1.4389804811    -3.0447940930
  168      C      -6.7597718420     1.2483175936     1.5363914566
  169      C      -5.0730333034     0.1420199115     2.9129958082
  170      C      -4.8754205457    -4.8608618973     0.2981220436
  171      C      -8.6676505870    -1.7831022163    -0.9941192883
  172      C      -3.4868268602    -2.0644324451    -3.0446481991
  173      C      -2.8064827399    -3.2989488004     1.3416438850
  174      C      -3.9593671756    -4.1058277629    -1.9009992989
  175      C      -5.9790250557    -0.8807554147     3.2204735748
  176      C      -6.2778253774    -4.0563383614     1.8860567300
 ----------------------------------------------------------------

    9   -5804.2407262436      7.84E-06 Convergence criterion met
 Total energy in the final basis set = -5804.2407262436

                    Orbital Energies (a.u.)
 --------------------------------------------------------------

 Alpha MOs
 -- Occupied --
-19.198 -19.194 -19.134 -19.133 -10.319 -10.317 -10.251 -10.248
-10.248 -10.246 -10.243 -10.241 -10.235 -10.235 -10.233 -10.232
-10.232 -10.231 -10.230 -10.225 -10.225 -10.225 -10.225 -10.224
-10.223 -10.223 -10.223 -10.222 -10.222 -10.222 -10.222 -10.222
-10.222 -10.221 -10.221 -10.221 -10.221 -10.221 -10.221 -10.220
-10.220 -10.220 -10.220 -10.220 -10.220 -10.220 -10.219 -10.219
-10.219 -10.219 -10.219 -10.219 -10.219 -10.219 -10.219 -10.219
-10.219 -10.218 -10.218 -10.218 -10.218 -10.218 -10.217 -10.217
-10.217 -10.217 -10.217 -10.217 -10.217 -10.216 -10.216 -10.216
-10.216 -10.216 -10.216 -10.216 -10.216 -10.216 -10.215 -10.215
-10.215 -10.215 -10.215 -10.215 -10.215 -10.215 -10.214 -10.214
-10.214 -10.214 -10.214 -10.214 -10.214 -10.214 -10.213 -10.213
-10.213 -10.213 -10.213 -10.212 -10.212 -10.212 -10.212 -10.211
-10.211 -10.211 -10.211 -10.211 -10.210 -10.210 -10.210 -10.210
-10.210 -10.209 -10.209 -10.208 -10.208 -10.208 -10.208 -10.208
-10.208 -10.207 -10.206 -10.206 -10.206 -10.206 -10.206 -10.204
-10.204 -10.204 -10.203 -10.203 -10.203 -10.202 -10.202 -10.201
-10.201 -10.200 -10.199 -10.198 -10.198 -10.197 -10.195 -10.192
-10.192 -10.191 -10.189 -10.188  -1.106  -1.095  -1.020  -1.014
 -0.985  -0.984  -0.968  -0.967  -0.966  -0.966  -0.963  -0.957
 -0.937  -0.935  -0.931  -0.930  -0.928  -0.926  -0.925  -0.923
 -0.921  -0.917  -0.900  -0.896  -0.893  -0.890  -0.889  -0.887
 -0.879  -0.873  -0.861  -0.854  -0.843  -0.842  -0.842  -0.837
 -0.836  -0.831  -0.824  -0.822  -0.806  -0.805  -0.800  -0.799
 -0.798  -0.797  -0.796  -0.794  -0.794  -0.787  -0.783  -0.782
 -0.775  -0.771  -0.770  -0.769  -0.766  -0.766  -0.766  -0.763
 -0.753  -0.749  -0.745  -0.745  -0.738  -0.733  -0.720  -0.718
 -0.717  -0.716  -0.715  -0.712  -0.711  -0.711  -0.708  -0.708
 -0.708  -0.706  -0.706  -0.705  -0.704  -0.699  -0.677  -0.672
 -0.661  -0.659  -0.657  -0.656  -0.650  -0.646  -0.636  -0.635
 -0.633  -0.628  -0.624  -0.623  -0.621  -0.619  -0.619  -0.618
 -0.617  -0.615  -0.614  -0.611  -0.610  -0.609  -0.608  -0.607
 -0.606  -0.605  -0.604  -0.600  -0.576  -0.570  -0.569  -0.566
 -0.565  -0.564  -0.561  -0.560  -0.557  -0.556  -0.554  -0.553
 -0.541  -0.537  -0.536  -0.534  -0.533  -0.530  -0.529  -0.524
 -0.523  -0.522  -0.522  -0.520  -0.517  -0.515  -0.511  -0.510
 -0.510  -0.507  -0.500  -0.500  -0.496  -0.491  -0.487  -0.487
 -0.485  -0.485  -0.482  -0.482  -0.481  -0.479  -0.478  -0.477
 -0.474  -0.473  -0.473  -0.470  -0.470  -0.469  -0.468  -0.467
 -0.466  -0.466  -0.465  -0.464  -0.462  -0.461  -0.460  -0.458
 -0.457  -0.456  -0.455  -0.453  -0.452  -0.450  -0.449  -0.446
 -0.445  -0.443  -0.441  -0.439  -0.438  -0.434  -0.433  -0.433
 -0.432  -0.431  -0.429  -0.428  -0.427  -0.426  -0.426  -0.425
 -0.423  -0.422  -0.421  -0.421  -0.420  -0.419  -0.419  -0.419
 -0.419  -0.418  -0.417  -0.416  -0.415  -0.415  -0.414  -0.413
 -0.412  -0.411  -0.409  -0.408  -0.402  -0.401  -0.399  -0.398
 -0.395  -0.393  -0.393  -0.391  -0.388  -0.387  -0.385  -0.382
 -0.381  -0.378  -0.375  -0.372  -0.370  -0.369  -0.368  -0.367
 -0.366  -0.365  -0.365  -0.363  -0.363  -0.361  -0.360  -0.359
 -0.358  -0.357  -0.356  -0.355  -0.355  -0.354  -0.351  -0.350
 -0.349  -0.349  -0.348  -0.347  -0.347  -0.346  -0.345  -0.344
 -0.343  -0.342  -0.341  -0.340  -0.339  -0.336  -0.335  -0.334
 -0.331  -0.331  -0.330  -0.328  -0.327  -0.327  -0.326  -0.321
 -0.320  -0.309  -0.300  -0.298  -0.290  -0.288  -0.273  -0.272
 -0.271  -0.271  -0.269  -0.268  -0.266  -0.265  -0.264  -0.262
 -0.261  -0.260  -0.259  -0.258  -0.257  -0.256  -0.255  -0.253
 -0.251  -0.250  -0.250  -0.246  -0.224  -0.217  -0.216  -0.214
 -0.210  -0.209  -0.206  -0.205  -0.201  -0.198

          Ground-State Mulliken Net Atomic Charges

     Atom                 Charge (a.u.)
  ----------------------------------------
      1 O                    -0.462138
      2 C                    -0.093966
      3 H                     0.125475
      4 H                     0.128632
      5 H                     0.131259
      6 O                    -0.461463
      7 C                     0.588207
      8 C                    -0.241985
      9 H                     0.135123
     10 H                     0.122485
     11 C                    -0.191200
     12 H                     0.117638
     13 H                     0.122272
     14 C                    -0.189991
     15 H                     0.106241
     16 H                     0.109576
     17 C                    -0.006501
     18 C                     0.090328
     19 C                    -0.105803
     20 H                     0.095349
     21 C                    -0.101347
     22 H                     0.090056
     23 C                    -0.069904
     24 H                     0.094057
     25 C                    -0.084348
     26 H                     0.085141
     27 C                    -0.108978
     28 H                     0.090917
     29 C                    -0.036581
     30 C                    -0.011198
     31 C                    -0.042620
     32 C                    -0.012971
     33 C                    -0.031429
     34 C                     0.019276
     35 C                     0.000292
     36 C                    -0.003099
     37 C                     0.048687
     38 C                    -0.017096
     39 C                    -0.072193
     40 C                     0.002400
     41 C                     0.000259
     42 C                    -0.020885
     43 C                     0.019571
     44 C                    -0.022146
     45 C                    -0.085840
     46 C                     0.000213
     47 C                    -0.004496
     48 C                    -0.018282
     49 C                     0.019900
     50 C                     0.003682
     51 C                    -0.017462
     52 C                     0.021617
     53 C                    -0.012300
     54 C                    -0.028461
     55 C                    -0.003120
     56 C                     0.016233
     57 C                     0.010271
     58 C                    -0.016346
     59 C                     0.017711
     60 C                     0.011160
     61 C                     0.056113
     62 C                     0.026180
     63 C                    -0.021980
     64 C                    -0.031227
     65 C                     0.022432
     66 C                     0.003072
     67 C                     0.008566
     68 C                     0.008676
     69 C                     0.018830
     70 C                     0.026327
     71 C                    -0.020169
     72 C                     0.015641
     73 C                    -0.027970
     74 C                    -0.024935
     75 C                     0.034283
     76 C                    -0.003962
     77 C                     0.041827
     78 C                     0.009619
     79 C                    -0.008750
     80 C                    -0.012225
     81 C                     0.023953
     82 C                     0.001218
     83 C                     0.028844
     84 C                    -0.001206
     85 C                    -0.011198
     86 C                     0.016927
     87 C                     0.003434
     88 C                    -0.017337
     89 O                    -0.447947
     90 C                    -0.085265
     91 H                     0.127931
     92 H                     0.125603
     93 H                     0.126978
     94 O                    -0.460206
     95 C                     0.583800
     96 C                    -0.275062
     97 H                     0.132921
     98 H                     0.131165
     99 C                    -0.172035
    100 H                     0.129956
    101 H                     0.102504
    102 C                    -0.185579
    103 H                     0.111594
    104 H                     0.107502
    105 C                    -0.007040
    106 C                     0.107810
    107 C                    -0.128128
    108 H                     0.091992
    109 C                    -0.080339
    110 H                     0.091326
    111 C                    -0.076161
    112 H                     0.087321
    113 C                    -0.081810
    114 H                     0.088943
    115 C                    -0.122747
    116 H                     0.089446
    117 C                    -0.020240
    118 C                    -0.009176
    119 C                     0.004034
    120 C                    -0.008413
    121 C                     0.013471
    122 C                     0.002110
    123 C                    -0.035300
    124 C                     0.002033
    125 C                     0.019777
    126 C                     0.010620
    127 C                    -0.049445
    128 C                    -0.005044
    129 C                    -0.003436
    130 C                    -0.019594
    131 C                    -0.011918
    132 C                    -0.015091
    133 C                    -0.066702
    134 C                     0.030865
    135 C                    -0.019109
    136 C                    -0.005329
    137 C                    -0.000469
    138 C                    -0.000797
    139 C                     0.002695
    140 C                     0.011331
    141 C                     0.017554
    142 C                    -0.012206
    143 C                     0.008060
    144 C                     0.003722
    145 C                    -0.015415
    146 C                    -0.000980
    147 C                    -0.021716
    148 C                     0.030148
    149 C                    -0.027759
    150 C                     0.012342
    151 C                     0.034215
    152 C                    -0.001526
    153 C                    -0.004188
    154 C                    -0.012947
    155 C                    -0.009160
    156 C                    -0.014377
    157 C                    -0.025544
    158 C                    -0.000145
    159 C                    -0.003404
    160 C                    -0.025692
    161 C                    -0.008505
    162 C                     0.017045
    163 C                     0.012780
    164 C                     0.043681
    165 C                     0.012835
    166 C                    -0.012647
    167 C                    -0.002992
    168 C                     0.012213
    169 C                    -0.004043
    170 C                    -0.011973
    171 C                     0.012037
    172 C                     0.001385
    173 C                     0.030074
    174 C                     0.008179
    175 C                    -0.010480
    176 C                     0.013220
  ----------------------------------------
  Sum of atomic charges =     0.000000

                    Cartesian Multipole Moments
 -----------------------------------------------------------------
    Charge (ESU x 10^10)
                 0.0000
    Dipole Moment (Debye)
         X       2.9352      Y       1.0090      Z       1.0599
       Tot       3.2797
    Quadrupole Moments (Debye-Ang)
        XX    -790.7331     XY      -0.3653     YY    -816.0878
        XZ      -5.3956     YZ       4.6544     ZZ    -801.2419

 Total job time:  851.09s(wall), 7285.06s(cpu)
        *  Thank you very much for using Q-Chem.  Have a nice day.  *
