 Q-Chem 4.4, Q-Chem, Inc., Pleasanton, CA (2016)
 Q-Chem 4.4.2 for Intel X86 Linux

User input:
--------------------------------------------------------------
$comment
SP
$end

$rem
MEM_STATIC 5000
MEM_TOTAL 20000
JOBTYPE SP
EXCHANGE B3LYP
BASIS 6-31g(d,p)
$end

$molecule
0 1
O          -9.110000     33.346000    -13.472000
C          -8.065000     33.719000    -14.353000
H          -8.282000     33.494000    -15.405000
H          -7.133000     33.241000    -14.030000
H          -7.714000     34.757000    -14.303000
O          -7.977000     34.032000    -11.619000
C          -8.986000     33.520000    -12.150000
C         -10.190000     33.064000    -11.302000
H         -11.011000     33.775000    -11.459000
H          -9.902000     33.233000    -10.257000
C         -10.724000     31.676000    -11.607000
H         -11.710000     31.477000    -11.171000
H         -10.937000     31.683000    -12.683000
C          -9.885000     30.527000    -11.135000
H          -8.943000     30.545000    -11.696000
H          -9.534000     30.691000    -10.109000
C         -10.543000     29.061000    -11.315000
C         -10.968000     28.763000    -12.735000
C          -9.947000     28.257000    -13.427000
H          -8.948000     28.167000    -13.011000
C         -10.120000     27.794000    -14.774000
H          -9.251000     27.381000    -15.276000
C         -11.355000     28.076000    -15.404000
H         -11.461000     27.854000    -16.461000
C         -12.444000     28.597000    -14.684000
H         -13.419000     28.721000    -15.146000
C         -12.266000     28.853000    -13.292000
H         -13.062000     29.162000    -12.621000
C         -13.820000     25.238000     -9.107000
C         -11.985000     23.935000     -9.957000
C         -10.214000     22.865000     -5.958000
C         -12.136000     28.913000     -6.041000
C          -7.753000     25.243000     -6.207000
C         -12.815000     25.022000    -10.052000
C          -9.815000     27.970000     -4.751000
C         -12.532000     22.944000     -6.582000
C          -8.578000     26.001000    -10.024000
C         -10.909000     29.261000     -6.530000
C          -9.885000     27.968000    -10.391000
C          -8.152000     26.994000     -9.181000
C          -8.882000     28.419000     -6.907000
C          -8.960000     26.836000     -4.707000
C         -10.863000     25.598000    -10.905000
C          -9.480000     24.507000     -4.565000
C         -11.323000     28.466000    -10.158000
C         -11.681000     29.101000     -8.879000
C          -8.509000     24.233000     -5.564000
C         -13.296000     25.881000     -4.822000
C         -11.811000     24.098000     -4.586000
C         -12.843000     23.718000     -5.434000
C         -13.131000     23.240000     -7.848000
C         -12.904000     28.629000     -8.421000
C          -9.745000     26.477000    -10.672000
C         -12.164000     23.054000     -8.890000
C          -9.766000     28.698000     -5.931000
C         -10.737000     24.282000    -10.523000
C          -7.590000     26.648000     -7.963000
C         -13.855000     27.515000     -6.429000
C         -11.264000     22.474000     -6.818000
C          -8.985000     28.117000     -9.293000
C         -14.306000     25.146000     -6.862000
C          -7.964000     27.395000     -6.817000
C          -8.513000     24.608000     -9.665000
C         -11.000000     26.225000     -3.871000
C         -11.084000     27.579000     -4.276000
C          -7.897000     24.268000     -8.394000
C         -13.129000     28.541000     -6.996000
C         -10.666000     29.355000     -7.940000
C         -13.312000     27.172000     -5.197000
C         -12.388000     27.430000    -10.225000
C          -9.725000     22.954000     -8.748000
C          -9.351000     28.835000     -8.130000
C          -7.477000     25.300000     -7.539000
C         -14.360000     26.509000     -7.244000
C          -8.964000     23.235000     -6.442000
C         -13.965000     24.382000     -7.999000
C         -10.505000     23.656000     -4.800000
C          -9.630000     23.767000     -9.912000
C          -8.695000     23.238000     -7.875000
C         -12.177000     26.108000    -10.664000
C         -13.304000     27.614000     -9.204000
C         -12.108000     25.390000     -4.150000
C         -10.994000     22.512000     -8.240000
C          -8.050000     26.538000     -5.760000
C         -12.239000     28.061000     -4.948000
C          -9.647000     25.801000     -4.054000
C         -14.051000     26.556000     -8.617000
C         -13.717000     24.875000     -5.632000
O          -5.489000     27.485000      1.799000
C          -5.397000     28.268000      2.962000
H          -6.179000     28.030000      3.693000
H          -5.458000     29.327000      2.682000
H          -4.407000     28.092000      3.401000
O          -3.864000     28.486000      0.583000
C          -4.776000     27.709000      0.686000
C          -5.186000     26.798000     -0.532000
H          -6.022000     27.310000     -1.024000
H          -5.451000     25.794000     -0.177000
C          -4.137000     26.650000     -1.670000
H          -3.766000     27.624000     -2.012000
H          -3.194000     26.111000     -1.517000
C          -4.837000     25.842000     -2.719000
H          -5.384000     24.996000     -2.284000
H          -5.631000     26.483000     -3.122000
C          -3.888000     25.419000     -3.889000
C          -3.291000     26.592000     -4.594000
C          -2.174000     27.342000     -4.206000
H          -1.651000     27.195000     -3.266000
C          -1.632000     28.386000     -4.985000
H          -0.809000     28.998000     -4.627000
C          -2.146000     28.679000     -6.212000
H          -1.713000     29.469000     -6.819000
C          -3.281000     28.005000     -6.644000
H          -3.670000     28.296000     -7.615000
C          -3.806000     26.965000     -5.883000
H          -4.574000     26.351000     -6.345000
C          -3.182000     22.176000     -8.204000
C          -0.939000     22.455000     -7.226000
C          -0.594000     18.214000     -5.676000
C          -6.410000     20.570000     -4.678000
C          -1.373000     19.072000     -2.442000
C          -2.192000     23.011000     -7.575000
C          -5.033000     18.950000     -2.794000
C          -1.574000     19.021000     -7.746000
C          -1.037000     22.937000     -3.306000
C          -5.966000     21.133000     -3.472000
C          -3.087000     24.167000     -3.702000
C          -1.921000     22.585000     -2.298000
C          -4.243000     21.088000     -1.896000
C          -3.725000     18.362000     -2.497000
C          -1.473000     23.732000     -5.538000
C          -2.011000     17.451000     -4.084000
C          -4.167000     24.130000     -4.691000
C          -5.328000     23.214000     -4.545000
C          -1.000000     18.255000     -3.482000
C          -4.844000     18.375000     -6.873000
C          -2.814000     17.484000     -6.386000
C          -2.707000     18.282000     -7.552000
C          -1.685000     20.315000     -8.141000
C          -5.768000     22.645000     -5.744000
C          -1.715000     23.824000     -4.175000
C          -0.663000     21.099000     -7.560000
C          -5.255000     20.335000     -2.557000
C          -0.431000     22.931000     -6.052000
C          -1.813000     21.243000     -1.834000
C          -5.957000     20.516000     -6.867000
C          -0.503000     19.003000     -6.848000
C          -3.182000     23.154000     -2.613000
C          -4.040000     20.117000     -8.359000
C          -2.969000     20.509000     -1.628000
C          -0.029000     22.112000     -3.802000
C          -4.459000     17.596000     -4.585000
C          -5.452000     18.437000     -4.123000
C           0.103000     20.843000     -3.329000
C          -6.313000     21.332000     -5.806000
C          -5.422000     22.449000     -3.389000
C          -5.902000     19.195000     -6.371000
C          -3.915000     23.930000     -6.116000
C           0.569000     20.783000     -5.474000
C          -4.383000     22.410000     -2.408000
C          -0.827000     20.391000     -2.360000
C          -5.015000     20.975000     -7.808000
C          -0.049000     18.684000     -4.477000
C          -2.943000     20.841000     -8.469000
C          -1.730000     17.451000     -5.465000
C           0.279000     22.111000     -5.142000
C           0.480000     19.960000     -4.373000
C          -2.545000     23.828000     -6.532000
C          -4.864000     23.090000     -6.736000
C          -4.141000     17.538000     -5.989000
C           0.039000     20.288000     -6.688000
C          -2.704000     19.163000     -1.962000
C          -6.144000     19.232000     -5.026000
C          -3.361000     17.571000     -3.615000
C          -4.514000     22.248000     -7.799000
C          -3.932000     18.840000     -7.832000
$end

--------------------------------------------------------------

             Standard Nuclear Orientation (Angstroms)
    I     Atom           X                Y                Z
 ----------------------------------------------------------------
    1      O      -9.6441682753     1.2271959835    -5.8966544513
    2      C      -9.5387667001     1.0931038499    -7.3031482507
    3      H     -10.0169366189     0.1843642297    -7.6903998890
    4      H      -8.4822810875     1.1382598358    -7.5916549010
    5      H      -9.8863329007     1.9350920557    -7.9142117479
    6      O      -8.4607266291     3.1728959235    -5.8565095481
    7      C      -9.0807344039     2.2640013125    -5.2634775547
    8      C      -9.2602066118     2.2872987380    -3.7324965109
    9      H     -10.3047615008     2.5411638888    -3.5118869712
   10      H      -8.7039640079     3.1641743709    -3.3786416113
   11      C      -8.9441106899     0.9893648550    -3.0112642296
   12      H      -9.3069294911     0.9596156048    -1.9771605116
   13      H      -9.5660965800     0.2315286651    -3.5032112409
   14      C      -7.4921193681     0.6367140314    -2.8918297367
   15      H      -7.1080905049     0.4445621082    -3.9007937948
   16      H      -6.8984175447     1.5087500812    -2.5920893943
   17      C      -7.1597609302    -0.6557312676    -1.9787892021
   18      C      -7.8984487148    -1.9024343705    -2.4099512715
   19      C      -7.2110760401    -2.5439105838    -3.3551327745
   20      H      -6.2955466264    -2.1457777294    -3.7822780928
   21      C      -7.6494463299    -3.8136804052    -3.8593381787
   22      H      -7.0365346652    -4.2884747522    -4.6187087203
   23      C      -8.9322004153    -4.2613211829    -3.4646120832
   24      H      -9.3387775688    -5.1509641751    -3.9347177785
   25      C      -9.6623414848    -3.6026966045    -2.4601870321
   26      H     -10.6016830017    -4.0030106474    -2.0902800415
   27      C      -9.0794540977    -2.4501335204    -1.8546091005
   28      H      -9.5074424973    -1.9228433231    -1.0071841908
   29      C      -6.1788098102    -2.5105444052     3.1032109085
   30      C      -4.5396814548    -3.6807358101     1.7873673348
   31      C      -0.9495144229    -1.4334260766     3.3149934816
   32      C      -5.8392701970     2.4947940358     2.3461528248
   33      C      -0.7778466786     0.5541045731     0.5232810856
   34      C      -5.7835104217    -3.1172575146     1.9093333619
   35      C      -3.1398326408     3.1112956679     1.8233214770
   36      C      -2.8477512549    -2.2207153585     4.5582205390
   37      C      -3.4612734352    -1.6213425702    -1.4493639835
   38      C      -5.4230545171     2.6397993584     1.0532908971
   39      C      -5.6651293706    -0.6972700129    -1.4830674720
   40      C      -3.3828858070    -0.2643987394    -1.6246717694
   41      C      -3.7155818430     2.1534347783    -0.2912568196
   42      C      -1.8738533412     2.4843876067     1.6710070137
   43      C      -5.1674719136    -2.9210303777    -0.2005672204
   44      C      -0.8001874535     0.8151457172     3.0035527262
   45      C      -6.8333654097    -0.4466209983    -0.5122242157
   46      C      -6.8871111594     0.8035487226     0.2632866246
   47      C      -0.4177650122     0.1243035733     1.8235492480
   48      C      -4.3157768523     0.9290343815     5.0390972605
   49      C      -2.1562004902     0.0813070768     4.7991006910
   50      C      -3.0085603545    -0.9504294086     5.1699517211
   51      C      -3.9853645910    -2.9698210304     4.1179370056
   52      C      -7.2415446638     0.5495260617     1.5816668348
   53      C      -4.8193725085    -1.9295749642    -1.1868212278
   54      C      -3.6761459882    -3.6272374240     2.8819610588
   55      C      -4.0518298703     2.8483064849     0.8114505648
   56      C      -4.1424287173    -3.5844069328     0.4341563350
   57      C      -2.2622435481     0.4098005911    -1.1678346096
   58      C      -6.3603262897     0.9170327258     3.8624241716
   59      C      -1.8129517273    -2.4844148104     3.6956241463
   60      C      -4.6573302072     0.3129017569    -1.5242844817
   61      C      -5.4689681944    -1.1550923191     4.8188913924
   62      C      -2.4509842607     1.6478579624    -0.5024085141
   63      C      -2.4427220373    -2.3665538766    -0.7559895113
   64      C      -2.5367422600     2.2355312503     3.8464301438
   65      C      -3.5655823761     2.9183609389     3.1538778844
   66      C      -1.2655493682    -1.6425169374    -0.3081814969
   67      C      -6.7168025738     1.4039439770     2.6226326196
   68      C      -5.9324698182     1.8030675177     0.0062183696
   69      C      -5.2482211888     1.5993248090     4.3399404098
   70      C      -6.9804057310    -1.4292532007     0.5944930466
   71      C      -1.8950875978    -3.1571300097     1.2739451917
   72      C      -4.8161555415     1.5430699839    -0.8434690541
   73      C      -1.2088317927    -0.2506393369    -0.4868120144
   74      C      -6.4725565136    -0.4448482307     4.1153483443
   75      C      -0.5283425743    -1.2650771715     2.0004863801
   76      C      -5.2887675600    -2.4053200126     4.1886498152
   77      C      -1.1022808483    -0.1405661248     3.9120710011
   78      C      -2.8185682021    -3.3400031771     0.2068786623
   79      C      -0.9768294405    -2.1777617325     0.9556297282
   80      C      -6.2548290085    -2.6337083594     0.6825395715
   81      C      -7.2629700630    -0.7780668833     1.7825447198
   82      C      -2.9240440949     1.2465019230     4.7816030040
   83      C      -2.2764391560    -3.3644251051     2.6433935231
   84      C      -1.5426141889     1.7288503553     0.5111979407
   85      C      -4.9295791952     2.6004794495     3.3913584863
   86      C      -1.4477597035     2.0560169440     2.9377136834
   87      C      -6.8932393565    -1.2783058263     3.0612167671
   88      C      -4.3686374705    -0.4141132859     5.2354059425
   89      O       2.9675967340     7.9616651909     2.8358544004
   90      C       3.0823945608     9.3222315382     3.1672192650
   91      H       3.0109375236     9.5003116988     4.2468999346
   92      H       2.2970658577     9.8818821685     2.6441016874
   93      H       4.0523172635     9.6725387480     2.7926103896
   94      O       2.9524110386     8.1585284587     0.5814595263
   95      C       2.8324052186     7.5039322084     1.5830504369
   96      C       2.5520264492     5.9564183994     1.4928630961
   97      H       1.4666738647     5.8395065505     1.5998462107
   98      H       3.1161971277     5.4270045467     2.2711293861
   99      C       2.8525888341     5.2766630307     0.1272336107
  100      H       2.3838624092     5.8127109573    -0.7071698643
  101      H       3.8776009469     5.1657337110    -0.2472311469
  102      C       2.3887321998     3.8636222116     0.3044839038
  103      H       2.7035146820     3.4496988861     1.2707806851
  104      H       1.2954665968     3.9067484214     0.3859483212
  105      C       2.7683636900     2.9468979922    -0.9054444565
  106      C       2.1772690912     3.4227484771    -2.1913435549
  107      C       2.6684269034     4.4258192290    -3.0359417257
  108      H       3.5236949233     5.0485178809    -2.7920134511
  109      C       2.0829898868     4.7493443251    -4.2781719828
  110      H       2.4417509837     5.5795088582    -4.8799645745
  111      C       1.0221285462     4.0398778384    -4.7544119646
  112      H       0.5869852456     4.2770834650    -5.7210669179
  113      C       0.4548326886     3.0583958617    -3.9519198841
  114      H      -0.4072647711     2.5425915560    -4.3637170286
  115      C       1.0415844369     2.7287392654    -2.7339728760
  116      H       0.6757209180     1.8372380828    -2.2323420088
  117      C       3.2533366063    -2.1517138076    -2.7503479731
  118      C       5.0462657848    -0.8833476669    -3.8648103071
  119      C       8.4482425061    -2.8177710280    -1.5861776803
  120      C       3.5473821927    -1.5215368304     2.2444803693
  121      C       8.8364793696    -0.1695351876     0.5673961103
  122      C       3.7141531361    -0.9488116390    -3.3934968661
  123      C       6.2622160807    -1.1634764163     3.0004265979
  124      C       6.3984182438    -3.8111526047    -2.4275827768
  125      C       6.4199053050     2.0814500952    -1.6441309745
  126      C       4.0496133233    -0.2253514635     2.4347653824
  127      C       4.1296066350     2.3217205489    -0.8897980827
  128      C       6.4675915871     2.3454946639    -0.2841932979
  129      C       5.9413634627     1.1179048275     2.1674192642
  130      C       7.6276656753    -1.1458725521     2.4712248325
  131      C       4.6761718938     1.0700159649    -2.9633503614
  132      C       8.6307449241    -2.5530025638     0.6546062289
  133      C       2.9815518176     1.4322353578    -0.6982876893
  134      C       2.7924474303     0.6613606082     0.5580103053
  135      C       9.1121588635    -1.3866458038    -0.0078086920
  136      C       4.9351445125    -4.2852619219     0.6556615117
  137      C       7.0531161226    -4.2249468761    -0.1582846500
  138      C       6.1457164134    -4.4177231954    -1.2293925150
  139      C       5.3907663673    -3.1695487708    -3.0723805870
  140      C       2.2995323251    -0.6336849265     0.3713186826
  141      C       5.0565842632     2.0086522503    -2.0151703400
  142      C       5.8821607526    -2.0296448615    -3.7475484444
  143      C       5.4034435159    -0.0517661010     2.7761770568
  144      C       5.6289886711     0.3406506335    -3.7061339115
  145      C       7.5316635780     1.7153512997     0.4219186896
  146      C       2.9252726513    -2.9500181972     0.6406516057
  147      C       7.5325913153    -3.0239633672    -2.6461086290
  148      C       5.1373571115     2.3107600327     0.2081244302
  149      C       3.8081545661    -3.8890479460    -1.4567030747
  150      C       7.2656507643     1.1162298471     1.6416804155
  151      C       7.3715601115     1.3407680397    -2.3430216825
  152      C       6.6594001277    -3.2340149714     2.0383517960
  153      C       5.6936327049    -2.5019917619     2.7003255913
  154      C       8.4131325135     0.7734034366    -1.6761346317
  155      C       2.6709795294    -1.7163861658     1.2166724553
  156      C       3.6849566745     0.8734452659     1.6014873520
  157      C       3.9550265878    -3.5532763105     1.3954817050
  158      C       2.6440019533     0.3762944106    -1.6496960165
  159      C       7.8227263755    -0.6273995214    -3.2607332134
  160      C       4.8461385467     1.6955632902     1.4629896482
  161      C       8.4709859577     0.9311053892    -0.2690283553
  162      C       2.8837897175    -3.0816692300    -0.7609450452
  163      C       9.0706530177    -1.5744853225    -1.4366055915
  164      C       4.0820652365    -3.2433063809    -2.5736971552
  165      C       8.2150384115    -3.4306590080    -0.3666818115
  166      C       6.9928363311     0.4949177658    -3.3586843295
  167      C       8.7284633375    -0.4929807990    -2.2316447028
  168      C       3.4534045630     0.2739766457    -2.8306949539
  169      C       2.2179772336    -0.8166356241    -1.0283894331
  170      C       6.2927654265    -4.1619542139     0.9990194343
  171      C       7.2185866623    -1.8959541116    -3.4204374979
  172      C       8.0881972651    -0.0249111612     1.7629711950
  173      C       4.3597668808    -2.6661783129     2.3537094639
  174      C       7.8476976718    -2.3984655542     1.8461666820
  175      C       2.4825479077    -2.0713500261    -1.5915298490
  176      C       4.8618148488    -4.4302102986    -0.7376305354
 ----------------------------------------------------------------

    9   -5804.2631590118      8.80E-06 Convergence criterion met
 Total energy in the final basis set = -5804.2631590118

                    Orbital Energies (a.u.)
 --------------------------------------------------------------

 Alpha MOs
 -- Occupied --
-19.208 -19.193 -19.135 -19.132 -10.325 -10.317 -10.252 -10.251
-10.248 -10.242 -10.241 -10.240 -10.233 -10.233 -10.231 -10.230
-10.227 -10.226 -10.225 -10.224 -10.222 -10.222 -10.222 -10.222
-10.221 -10.221 -10.221 -10.221 -10.221 -10.220 -10.220 -10.220
-10.219 -10.219 -10.219 -10.219 -10.219 -10.219 -10.219 -10.219
-10.219 -10.218 -10.218 -10.218 -10.218 -10.218 -10.218 -10.218
-10.217 -10.217 -10.217 -10.217 -10.217 -10.217 -10.217 -10.217
-10.216 -10.216 -10.216 -10.216 -10.216 -10.216 -10.216 -10.215
-10.215 -10.215 -10.215 -10.215 -10.215 -10.215 -10.214 -10.214
-10.214 -10.214 -10.214 -10.214 -10.214 -10.214 -10.214 -10.213
-10.213 -10.213 -10.213 -10.213 -10.213 -10.213 -10.212 -10.212
-10.212 -10.212 -10.212 -10.212 -10.212 -10.212 -10.212 -10.212
-10.212 -10.211 -10.211 -10.211 -10.211 -10.211 -10.210 -10.210
-10.210 -10.209 -10.209 -10.209 -10.209 -10.209 -10.209 -10.209
-10.209 -10.209 -10.208 -10.208 -10.208 -10.208 -10.208 -10.208
-10.207 -10.207 -10.206 -10.206 -10.206 -10.206 -10.205 -10.205
-10.205 -10.204 -10.204 -10.203 -10.203 -10.202 -10.202 -10.201
-10.200 -10.199 -10.198 -10.198 -10.197 -10.196 -10.196 -10.194
-10.190 -10.189 -10.189 -10.187  -1.109  -1.105  -1.020  -1.002
 -0.985  -0.983  -0.967  -0.966  -0.966  -0.964  -0.962  -0.955
 -0.936  -0.935  -0.929  -0.928  -0.927  -0.923  -0.922  -0.921
 -0.920  -0.916  -0.894  -0.892  -0.892  -0.889  -0.888  -0.885
 -0.880  -0.871  -0.858  -0.853  -0.844  -0.840  -0.840  -0.838
 -0.836  -0.829  -0.826  -0.821  -0.814  -0.806  -0.801  -0.797
 -0.796  -0.795  -0.794  -0.792  -0.791  -0.787  -0.786  -0.781
 -0.775  -0.771  -0.770  -0.770  -0.766  -0.764  -0.764  -0.762
 -0.753  -0.749  -0.748  -0.743  -0.737  -0.732  -0.723  -0.716
 -0.715  -0.715  -0.714  -0.713  -0.710  -0.710  -0.710  -0.707
 -0.707  -0.706  -0.705  -0.704  -0.702  -0.698  -0.677  -0.670
 -0.663  -0.658  -0.655  -0.655  -0.651  -0.645  -0.638  -0.634
 -0.628  -0.625  -0.623  -0.622  -0.620  -0.620  -0.617  -0.617
 -0.616  -0.615  -0.614  -0.614  -0.613  -0.609  -0.608  -0.607
 -0.605  -0.605  -0.602  -0.598  -0.584  -0.571  -0.569  -0.564
 -0.564  -0.563  -0.563  -0.558  -0.555  -0.555  -0.552  -0.551
 -0.541  -0.537  -0.534  -0.533  -0.529  -0.528  -0.527  -0.524
 -0.522  -0.520  -0.519  -0.518  -0.517  -0.514  -0.510  -0.509
 -0.508  -0.506  -0.505  -0.499  -0.494  -0.494  -0.489  -0.487
 -0.486  -0.484  -0.484  -0.481  -0.481  -0.480  -0.477  -0.476
 -0.475  -0.474  -0.471  -0.471  -0.468  -0.468  -0.467  -0.466
 -0.465  -0.464  -0.464  -0.464  -0.462  -0.461  -0.459  -0.458
 -0.457  -0.456  -0.454  -0.454  -0.451  -0.447  -0.447  -0.446
 -0.444  -0.442  -0.439  -0.439  -0.437  -0.435  -0.433  -0.432
 -0.432  -0.431  -0.429  -0.428  -0.427  -0.426  -0.425  -0.423
 -0.423  -0.422  -0.421  -0.420  -0.419  -0.419  -0.419  -0.418
 -0.418  -0.417  -0.415  -0.415  -0.414  -0.413  -0.412  -0.411
 -0.411  -0.409  -0.408  -0.407  -0.402  -0.402  -0.399  -0.397
 -0.396  -0.394  -0.391  -0.389  -0.387  -0.385  -0.384  -0.383
 -0.381  -0.377  -0.374  -0.372  -0.369  -0.369  -0.367  -0.366
 -0.365  -0.365  -0.364  -0.363  -0.361  -0.359  -0.359  -0.358
 -0.356  -0.355  -0.355  -0.354  -0.354  -0.353  -0.352  -0.351
 -0.349  -0.349  -0.346  -0.346  -0.345  -0.344  -0.343  -0.343
 -0.343  -0.341  -0.340  -0.339  -0.338  -0.337  -0.336  -0.335
 -0.333  -0.331  -0.329  -0.329  -0.328  -0.327  -0.326  -0.320
 -0.314  -0.308  -0.301  -0.299  -0.291  -0.286  -0.274  -0.272
 -0.270  -0.267  -0.267  -0.267  -0.266  -0.265  -0.264  -0.262
 -0.261  -0.260  -0.258  -0.258  -0.255  -0.255  -0.254  -0.254
 -0.249  -0.248  -0.247  -0.244  -0.223  -0.215  -0.212  -0.212
 -0.209  -0.208  -0.205  -0.203  -0.202  -0.196

          Ground-State Mulliken Net Atomic Charges

     Atom                 Charge (a.u.)
  ----------------------------------------
      1 O                    -0.436800
      2 C                    -0.092674
      3 H                     0.126733
      4 H                     0.127641
      5 H                     0.130861
      6 O                    -0.491137
      7 C                     0.594959
      8 C                    -0.258535
      9 H                     0.132587
     10 H                     0.136605
     11 C                    -0.192498
     12 H                     0.099761
     13 H                     0.128678
     14 C                    -0.173116
     15 H                     0.110095
     16 H                     0.114764
     17 C                    -0.010619
     18 C                     0.116364
     19 C                    -0.104327
     20 H                     0.096441
     21 C                    -0.091562
     22 H                     0.094255
     23 C                    -0.088416
     24 H                     0.091669
     25 C                    -0.093492
     26 H                     0.100050
     27 C                    -0.114216
     28 H                     0.092349
     29 C                    -0.009749
     30 C                     0.036070
     31 C                    -0.017899
     32 C                    -0.013205
     33 C                     0.007135
     34 C                     0.005833
     35 C                    -0.035356
     36 C                     0.022191
     37 C                     0.009304
     38 C                    -0.027144
     39 C                    -0.091479
     40 C                     0.021006
     41 C                     0.035998
     42 C                     0.008245
     43 C                    -0.011504
     44 C                     0.022477
     45 C                    -0.083707
     46 C                     0.028701
     47 C                    -0.023949
     48 C                     0.024257
     49 C                     0.010245
     50 C                    -0.025169
     51 C                    -0.008166
     52 C                    -0.003545
     53 C                     0.014549
     54 C                    -0.014147
     55 C                     0.033337
     56 C                     0.002088
     57 C                    -0.040156
     58 C                     0.001680
     59 C                    -0.002001
     60 C                     0.054254
     61 C                    -0.006756
     62 C                    -0.017922
     63 C                    -0.033428
     64 C                    -0.005507
     65 C                    -0.004194
     66 C                    -0.029886
     67 C                    -0.002372
     68 C                    -0.023096
     69 C                     0.001161
     70 C                     0.043633
     71 C                     0.026628
     72 C                    -0.021531
     73 C                     0.037410
     74 C                    -0.009614
     75 C                     0.013077
     76 C                    -0.014401
     77 C                     0.016912
     78 C                     0.009348
     79 C                     0.012323
     80 C                    -0.020217
     81 C                     0.026841
     82 C                    -0.016291
     83 C                    -0.037548
     84 C                     0.002358
     85 C                     0.014919
     86 C                    -0.028353
     87 C                    -0.006895
     88 C                     0.008305
     89 O                    -0.450924
     90 C                    -0.083253
     91 H                     0.127569
     92 H                     0.125583
     93 H                     0.126593
     94 O                    -0.458315
     95 C                     0.580995
     96 C                    -0.267579
     97 H                     0.135971
     98 H                     0.127534
     99 C                    -0.170483
    100 H                     0.132199
    101 H                     0.103875
    102 C                    -0.185830
    103 H                     0.107810
    104 H                     0.110342
    105 C                    -0.005329
    106 C                     0.108334
    107 C                    -0.129825
    108 H                     0.091073
    109 C                    -0.080055
    110 H                     0.090768
    111 C                    -0.075990
    112 H                     0.087334
    113 C                    -0.082781
    114 H                     0.089246
    115 C                    -0.125148
    116 H                     0.091859
    117 C                    -0.020917
    118 C                    -0.008839
    119 C                     0.004321
    120 C                    -0.007837
    121 C                     0.013967
    122 C                     0.001146
    123 C                    -0.031951
    124 C                     0.002173
    125 C                     0.020043
    126 C                     0.006443
    127 C                    -0.051012
    128 C                    -0.005928
    129 C                    -0.008524
    130 C                    -0.019995
    131 C                    -0.010696
    132 C                    -0.014231
    133 C                    -0.068780
    134 C                     0.049320
    135 C                    -0.019432
    136 C                    -0.005359
    137 C                    -0.000405
    138 C                    -0.001937
    139 C                     0.001655
    140 C                     0.007308
    141 C                     0.017931
    142 C                    -0.012763
    143 C                     0.003544
    144 C                     0.002458
    145 C                    -0.015128
    146 C                    -0.001163
    147 C                    -0.022570
    148 C                     0.032831
    149 C                    -0.028921
    150 C                     0.014063
    151 C                     0.034268
    152 C                     0.000164
    153 C                    -0.004454
    154 C                    -0.013183
    155 C                     0.000002
    156 C                    -0.024582
    157 C                    -0.024671
    158 C                    -0.003283
    159 C                    -0.003422
    160 C                    -0.030831
    161 C                    -0.008734
    162 C                     0.017200
    163 C                     0.011949
    164 C                     0.044386
    165 C                     0.012208
    166 C                    -0.012786
    167 C                    -0.002111
    168 C                     0.011248
    169 C                     0.001783
    170 C                    -0.011009
    171 C                     0.011113
    172 C                     0.000531
    173 C                     0.030393
    174 C                     0.007578
    175 C                    -0.011174
    176 C                     0.013516
  ----------------------------------------
  Sum of atomic charges =     0.000000

                    Cartesian Multipole Moments
 -----------------------------------------------------------------
    Charge (ESU x 10^10)
                 0.0000
    Dipole Moment (Debye)
         X      -5.7806      Y      -0.2079      Z      -1.0822
       Tot       5.8847
    Quadrupole Moments (Debye-Ang)
        XX    -776.9512     XY      25.1340     YY    -805.9773
        XZ      25.6573     YZ      31.5259     ZZ    -790.7812

 Total job time:  854.13s(wall), 7254.59s(cpu)
        *  Thank you very much for using Q-Chem.  Have a nice day.  *
