 Q-Chem 4.4, Q-Chem, Inc., Pleasanton, CA (2016)
 Q-Chem 4.4.2 for Intel X86 Linux

User input:
--------------------------------------------------------------
$comment
SP
$end

$rem
MEM_STATIC 5000
MEM_TOTAL 20000
JOBTYPE SP
EXCHANGE B3LYP
BASIS 6-31g(d,p)
$end

$molecule
0 1
O         -24.126000      5.409000     -2.171000
C         -24.983000      6.199000     -2.980000
H         -24.396000      7.010000     -3.426000
H         -25.795000      6.601000     -2.361000
H         -25.415000      5.558000     -3.759000
O         -25.685000      3.854000     -1.845000
C         -24.574000      4.336000     -1.548000
C         -23.717000      3.735000     -0.487000
H         -23.650000      4.453000      0.341000
H         -22.734000      3.794000     -0.971000
C         -24.066000      2.277000     -0.147000
H         -25.109000      2.101000      0.144000
H         -24.073000      1.726000     -1.096000
C         -22.923000      1.696000      0.769000
H         -22.000000      1.793000      0.184000
H         -22.843000      2.171000      1.755000
C         -23.222000      0.131000      1.050000
C         -24.573000     -0.144000      1.643000
C         -25.689000     -0.662000      0.882000
H         -25.583000     -0.957000     -0.158000
C         -26.851000     -0.926000      1.559000
H         -27.732000     -1.311000      1.053000
C         -27.003000     -0.540000      2.863000
H         -28.000000     -0.565000      3.293000
C         -25.943000     -0.138000      3.659000
H         -26.087000      0.238000      4.668000
C         -24.712000      0.096000      3.052000
H         -23.918000      0.530000      3.652000
C         -21.213000     -4.531000      3.003000
C         -22.664000     -5.323000      1.262000
C         -19.223000     -6.557000     -1.469000
C         -17.902000     -1.131000      1.403000
C         -19.333000     -3.659000     -3.471000
C         -22.408000     -4.435000      2.251000
C         -17.139000     -1.646000     -1.288000
C         -19.454000     -6.901000      0.909000
C         -22.832000     -2.523000     -1.693000
C         -18.496000     -0.424000      0.324000
C         -22.667000     -0.853000      0.032000
C         -21.872000     -1.570000     -2.105000
C         -19.270000     -0.569000     -1.759000
C         -17.454000     -2.574000     -2.291000
C         -23.420000     -3.320000      0.543000
C         -17.713000     -5.046000     -2.327000
C         -22.106000     -0.756000      1.427000
C         -20.658000     -0.356000      1.560000
C         -18.892000     -4.931000     -3.047000
C         -17.103000     -4.398000      1.623000
C         -17.375000     -5.876000     -0.005000
C         -18.172000     -6.274000      1.080000
C         -20.459000     -6.392000      1.702000
C         -20.075000     -1.101000      2.602000
C         -23.223000     -2.229000     -0.383000
C         -21.668000     -6.284000      0.969000
C         -18.142000     -0.692000     -0.994000
C         -23.239000     -4.653000      0.176000
C         -20.805000     -2.015000     -2.923000
C         -18.255000     -2.760000      2.949000
C         -19.966000     -6.973000     -0.354000
C         -21.668000     -0.593000     -1.111000
C         -18.987000     -5.040000      3.010000
C         -19.544000     -1.512000     -2.754000
C         -22.678000     -3.861000     -2.090000
C         -16.499000     -3.725000     -0.592000
C         -16.510000     -2.345000     -0.186000
C         -21.605000     -4.310000     -2.894000
C         -18.672000     -1.450000      2.581000
C         -19.859000     -0.025000      0.426000
C         -17.195000     -3.117000      2.068000
C         -22.209000     -1.973000      2.281000
C         -21.929000     -5.913000     -1.384000
C         -20.318000     -0.207000     -0.891000
C         -20.678000     -3.341000     -3.377000
C         -19.176000     -3.713000      3.399000
C         -19.826000     -5.822000     -2.474000
C         -20.262000     -5.508000      2.767000
C         -17.882000     -6.071000     -1.344000
C         -22.855000     -4.896000     -1.174000
C         -21.165000     -5.563000     -2.439000
C         -22.867000     -3.147000      1.843000
C         -20.989000     -2.108000      2.983000
C         -16.704000     -4.728000      0.371000
C         -21.294000     -6.562000     -0.284000
C         -18.642000     -2.485000     -3.045000
C         -16.926000     -2.116000      1.170000
C         -17.046000     -3.841000     -1.895000
C         -20.536000     -3.368000      3.449000
C         -17.995000     -5.344000      2.110000
O         -13.336000     -2.169000      6.429000
C         -14.631000     -1.830000      7.009000
H         -15.398000     -2.609000      6.921000
H         -15.068000     -0.949000      6.523000
H         -14.515000     -1.631000      8.082000
O         -14.130000     -2.189000      4.211000
C         -13.199000     -2.243000      5.054000
C         -11.774000     -2.615000      4.586000
H         -11.120000     -2.252000      5.388000
H         -11.498000     -1.951000      3.757000
C         -11.656000     -4.136000      4.325000
H         -10.584000     -4.211000      4.101000
H         -11.889000     -4.749000      5.205000
C         -12.477000     -4.548000      3.102000
H         -13.535000     -4.508000      3.391000
H         -12.205000     -3.780000      2.367000
C         -12.161000     -5.933000      2.585000
C         -12.219000     -6.977000      3.666000
C         -13.482000     -7.472000      4.063000
H         -14.336000     -7.089000      3.513000
C         -13.536000     -8.546000      4.980000
H         -14.502000     -9.013000      5.152000
C         -12.396000     -8.800000      5.722000
H         -12.468000     -9.459000      6.582000
C         -11.140000     -8.338000      5.429000
H         -10.270000     -8.685000      5.979000
C         -11.059000     -7.356000      4.376000
H         -10.088000     -6.921000      4.160000
C          -8.584000     -8.934000     -0.449000
C         -10.787000     -9.997000     -0.727000
C         -11.477000     -8.759000     -5.098000
C          -9.087000     -3.986000     -1.569000
C         -13.654000     -6.087000     -4.336000
C          -9.890000     -9.319000      0.052000
C         -11.028000     -3.682000     -3.596000
C          -9.502000     -9.520000     -3.948000
C         -13.872000     -7.434000     -0.493000
C         -10.409000     -3.561000     -1.288000
C         -12.547000     -6.290000      1.155000
C         -14.026000     -6.072000     -0.769000
C         -12.589000     -3.880000     -1.725000
C         -11.893000     -4.384000     -4.449000
C         -12.053000     -8.620000      0.585000
C         -11.674000     -6.483000     -5.649000
C         -11.099000     -6.090000      1.493000
C         -10.343000     -5.007000      0.742000
C         -12.868000     -6.966000     -5.180000
C          -8.021000     -6.357000     -3.921000
C          -9.473000     -7.453000     -5.281000
C          -8.829000     -8.420000     -4.468000
C          -9.209000     -9.936000     -2.619000
C          -9.093000     -5.450000      0.344000
C         -12.957000     -7.599000      0.581000
C         -10.428000    -10.305000     -2.077000
C         -11.396000     -3.427000     -2.260000
C         -12.092000     -9.575000     -0.452000
C         -14.172000     -5.655000     -2.136000
C          -7.706000     -5.754000     -1.596000
C         -10.848000     -9.728000     -4.275000
C         -13.209000     -5.342000      0.139000
C          -7.624000     -8.106000     -2.336000
C         -13.440000     -4.532000     -2.611000
C         -13.882000     -8.376000     -1.504000
C          -9.786000     -5.052000     -4.994000
C          -9.748000     -4.096000     -3.939000
C         -14.123000     -7.935000     -2.879000
C          -8.503000     -4.920000     -0.761000
C         -11.009000     -4.147000     -0.084000
C          -7.871000     -5.349000     -2.920000
C         -10.123000     -7.268000      1.267000
C         -12.695000     -9.702000     -2.802000
C         -12.410000     -4.313000     -0.402000
C         -14.202000     -6.608000     -3.163000
C          -7.497000     -7.121000     -1.286000
C         -12.788000     -8.351000     -4.882000
C          -8.326000     -9.217000     -1.830000
C         -10.829000     -7.629000     -5.600000
C         -13.047000     -9.452000     -1.454000
C         -13.415000     -8.826000     -3.682000
C         -10.651000     -8.478000      0.786000
C          -8.949000     -6.804000      0.642000
C          -8.944000     -6.215000     -4.929000
C         -11.405000    -10.171000     -3.102000
C         -13.128000     -4.819000     -3.955000
C          -8.782000     -4.253000     -2.894000
C         -11.150000     -5.213000     -5.294000
C          -8.156000     -7.639000     -0.185000
C          -7.878000     -7.735000     -3.684000
$end

--------------------------------------------------------------

             Standard Nuclear Orientation (Angstroms)
    I     Atom           X                Y                Z
 ----------------------------------------------------------------
    1      O      11.2876485312     3.3577087175    -4.8946328725
    2      C      12.3064162481     4.3029549018    -5.1803809958
    3      H      12.1117881755     4.7422553424    -6.1654398956
    4      H      13.2812891187     3.7994918501    -5.1643547138
    5      H      12.2933596202     5.0753310168    -4.4008871462
    6      O      11.9764544092     3.0846902418    -2.7956356419
    7      C      11.2606899539     2.7103263974    -3.7455761434
    8      C      10.3603300893     1.5281876714    -3.6303756798
    9      H      10.7354677145     0.7497605539    -4.3078120126
   10      H       9.4653003433     1.9123979273    -4.1356778003
   11      C      10.0335220301     1.1247029462    -2.1834611803
   12      H      10.9033845182     0.9299730916    -1.5439883228
   13      H       9.6681690925     2.0287322630    -1.6799741144
   14      C       8.8735555644     0.0586963883    -2.2177221906
   15      H       8.0363960500     0.5518989630    -2.7271121864
   16      H       9.1441829957    -0.8947899024    -2.6887271660
   17      C       8.4460842652    -0.2987973177    -0.6988233991
   18      C       9.5775614729    -0.7687233932     0.1680121169
   19      C      10.2241186817     0.0640879312     1.1586129820
   20      H       9.8669017667     1.0647524191     1.3842845536
   21      C      11.2050754670    -0.5076931352     1.9261149022
   22      H      11.7381849215     0.0573900548     2.6856524576
   23      C      11.6771910249    -1.7593026776     1.6378503481
   24      H      12.5936238562    -2.0861285681     2.1204160980
   25      C      11.0303933025    -2.6292262125     0.7754665879
   26      H      11.4546606644    -3.5896067584     0.4964335921
   27      C       9.9835648966    -2.1360343447     0.0012068962
   28      H       9.5610465621    -2.7821133110    -0.7622406962
   29      C       4.7640272917    -2.7666926283     2.4533953718
   30      C       5.4575947404    -0.9463415253     3.8566173984
   31      C       1.5305083453     1.3269636432     3.3752920869
   32      C       3.2349068228    -1.2793648159    -2.0778701877
   33      C       2.7229100148     3.5269183476     0.8939848594
   34      C       5.7652605406    -1.8919476374     2.9382646141
   35      C       1.9965103034     1.2773521675    -1.9420492484
   36      C       1.8658394390    -1.0332721248     3.7540019720
   37      C       6.5386172574     2.1983965685     1.5024165490
   38      C       3.9512432809    -0.0987807938    -2.4095469058
   39      C       7.3784626326     0.5862267194    -0.0747068208
   40      C       6.0864438303     2.5758380906     0.2168699380
   41      C       4.3080190259     2.0370578923    -1.8900335038
   42      C       1.7204056227     2.2400759872    -0.9605468021
   43      C       6.9602348945    -0.0161229486     2.4504623689
   44      C       0.7990751567     2.1298362099     1.3455664571
   45      C       7.1020390020    -0.8485142561    -0.4424884268
   46      C       6.0323492749    -1.1002020028    -1.4753534548
   47      C       1.7989837796     2.9725200734     1.8057106216
   48      C       1.0481880804    -1.8069209378     0.4321169996
   49      C       0.4030539003    -0.2667143546     1.8882823647
   50      C       1.0516179222    -1.2899204113     2.5976849832
   51      C       3.0810225352    -1.6822696665     3.7633418704
   52      C       5.3035394946    -2.2455976375    -1.1044314359
   53      C       7.1786953252     0.9587796892     1.4071954390
   54      C       4.1024321369    -0.8241154676     4.2438913438
   55      C       3.3547004687     1.1543591974    -2.3198761988
   56      C       6.1392653918     0.2366723271     3.5488441896
   57      C       4.8433902722     3.2477870184     0.1223157730
   58      C       2.9804296524    -2.8911329035    -0.4948948241
   59      C       2.1270157400     0.2672278701     4.0749127121
   60      C       6.4815707204     1.6367763603    -0.7558678516
   61      C       2.5751138645    -3.0360290790     1.8615154141
   62      C       3.9899594539     2.9866178685    -0.9145726075
   63      C       5.7353550124     2.4833657005     2.6182710913
   64      C       0.5577017181     0.3764823263    -0.4141355127
   65      C       1.2559733620     0.0709344320    -1.6341413305
   66      C       4.4869003774     3.1405313064     2.5242477385
   67      C       3.9077480709    -2.3921026751    -1.4522152416
   68      C       5.3450030834    -0.0332466028    -2.1257989848
   69      C       1.7765262313    -2.1498167846    -0.6630523829
   70      C       6.7338985352    -1.7703351783     0.6691467580
   71      C       4.2145829197     1.5633445171     4.0711834300
   72      C       5.5021073101     1.3077677132    -1.7317268262
   73      C       4.0623916789     3.5929086701     1.2409994828
   74      C       3.4030283831    -3.3102588497     0.7718702504
   75      C       2.2767865742     2.4369838802     3.0220458859
   76      C       3.4479566871    -2.6975589411     2.8750643141
   77      C       0.5935792382     1.1001178037     2.3166104476
   78      C       5.5240323116     1.5202525792     3.6028348687
   79      C       3.5764507495     2.5567970823     3.4192169170
   80      C       6.7143581372    -1.3504764887     2.0205981458
   81      C       5.6865303587    -2.6007305542     0.2077440895
   82      C       0.3915391974    -0.6281856685     0.5545931577
   83      C       3.4916782090     0.3617862183     4.3321286999
   84      C       2.7120080392     3.1156040615    -0.4727392185
   85      C       1.8935541719    -1.2163142600    -1.6608717542
   86      C       0.8243282930     1.7171757348    -0.0374055641
   87      C       4.7627777145    -3.1971937653     1.1026617897
   88      C       1.4531084853    -2.2652315632     1.6786080089
   89      O      -0.6372890051    -6.8046845318    -3.3676056289
   90      C       0.7276512861    -7.2246060851    -3.0693609467
   91      H       1.0295889630    -7.1134155113    -2.0208647400
   92      H       1.4594655639    -6.6363532991    -3.6365756528
   93      H       0.8495900626    -8.2873404704    -3.3145395779
   94      O      -0.2216578033    -4.5241248342    -2.9472983962
   95      C      -0.9605238435    -5.4593348082    -3.3470299050
   96      C      -2.4411216740    -5.1661079262    -3.6785130270
   97      H      -2.7488176061    -6.0033207501    -4.3165466474
   98      H      -2.4777692731    -4.3252886100    -4.3827806119
   99      C      -3.2808035710    -5.0251881445    -2.3860108309
  100      H      -4.2840910948    -4.9174028017    -2.8181930430
  101      H      -3.2520392985    -5.9174440307    -1.7476456923
  102      C      -2.9008402087    -3.7565922380    -1.6206310106
  103      H      -1.9180689798    -3.9327474656    -1.1649830683
  104      H      -2.8743012037    -3.0013940303    -2.4162467144
  105      C      -3.8827988281    -3.3723317615    -0.5373622738
  106      C      -4.1825098104    -4.5119391427     0.3971586429
  107      C      -3.2541724478    -4.8116754700     1.4199738145
  108      H      -2.3946588158    -4.1521311487     1.4888403862
  109      C      -3.5914045101    -5.7910378313     2.3814335908
  110      H      -2.9384431427    -5.8958178381     3.2436931821
  111      C      -4.6187193187    -6.6612699698     2.0620587181
  112      H      -4.7550407495    -7.5532973329     2.6660195206
  113      C      -5.5434264755    -6.4663249629     1.0702209701
  114      H      -6.4003218342    -7.1249900243     0.9620559055
  115      C      -5.2891707998    -5.3611707120     0.1793325746
  116      H      -5.9667330481    -5.2154684454    -0.6563720677
  117      C      -8.7843951892    -0.9354158623     0.4833629648
  118      C      -7.3766000003    -0.5091087672     2.4574037361
  119      C      -6.7341133246     3.9850846037     1.7475996670
  120      C      -6.1898259951     0.5722894845    -3.6379412321
  121      C      -3.4926121212     3.6371321268     0.3943975305
  122      C      -7.7546295887    -1.3263030638     1.4276362323
  123      C      -4.5938538605     2.8028180159    -2.9699281963
  124      C      -8.6790846758     2.5895116891     1.4798148970
  125      C      -3.4532261614    -0.2481497532     1.6327898184
  126      C      -4.7980607468     0.4578276669    -3.3988638680
  127      C      -3.8846518494    -1.9388256437    -0.0212210368
  128      C      -2.7214307559     0.1364026021     0.5051679977
  129      C      -3.0855697973     1.0914498292    -2.0908012919
  130      C      -4.2641056534     3.6885105839    -1.9328877945
  131      C      -5.4668144518    -1.5860064028     1.8145665552
  132      C      -5.5752226077     4.7106450295    -0.1637141154
  133      C      -5.0217678880    -2.4078894134    -0.8802287752
  134      C      -5.2762723337    -1.6641845431    -2.1804428164
  135      C      -4.6930697527     4.3332633355     0.8152013035
  136      C      -8.5117633643     2.6323036317    -2.0085703208
  137      C      -7.9112907239     4.0534763823    -0.3415908306
  138      C      -8.8245124945     3.1136305664     0.2001746539
  139      C      -8.9658016966     1.2118132695     1.6916790388
  140      C      -6.6275182797    -1.4275344093    -2.3682834601
  141      C      -4.2010843666    -1.4187001372     1.3353912584
  142      C      -7.9999744898     0.7724875327     2.5805303782
  143      C      -3.9888298438     1.5323364100    -3.0418130222
  144      C      -6.0018835719    -0.6195585288     2.6912617950
  145      C      -2.5679615172     1.5368959447     0.2241705064
  146      C      -8.2238925190     0.3350388161    -2.7214263678
  147      C      -7.6338657262     3.0367048565     2.2980108506
  148      C      -2.9893312159    -0.7970238780    -0.5349268777
  149      C      -9.4754118098     0.8970183936    -0.6710345957
  150      C      -2.7490160536     2.0119490718    -1.1040319560
  151      C      -4.0045459079     0.6904475946     2.4840633090
  152      C      -6.4898821517     3.9679917427    -2.3208404478
  153      C      -5.9512636742     2.9838533204    -3.1982039423
  154      C      -3.7575502643     2.1102366130     2.2264215124
  155      C      -7.0357129250    -0.3541777463    -3.0971919630
  156      C      -4.3948624089    -0.7166565127    -2.6171797807
  157      C      -8.0540223124     1.6939613075    -2.9835327878
  158      C      -6.4516009560    -2.3652425244    -0.2927812110
  159      C      -5.8196534831     1.7650610401     3.1186020651
  160      C      -3.2808141434    -0.2698597036    -1.8104889641
  161      C      -3.1087787573     2.4926424421     1.0947469507
  162      C      -9.0021139605    -0.0892081190    -1.6155982048
  163      C      -5.3678494355     3.9328185992     1.9974641308
  164      C      -9.3113351814     0.3889813583     0.6320917338
  165      C      -6.8414986637     4.4959813592     0.4528947222
  166      C      -5.2295176228     0.4806917618     3.0434806740
  167      C      -4.8900575019     2.7727956086     2.6937510899
  168      C      -6.6072059238    -1.9184742431     1.0302570336
  169      C      -7.3441323409    -1.8323412231    -1.2433604713
  170      C      -7.7594306551     3.7365709957    -1.6880300217
  171      C      -7.2060254146     1.8985712366     2.9336455971
  172      C      -3.3206732086     3.2938463363    -0.9775546831
  173      C      -6.7437487619     1.8374402512    -3.5261284159
  174      C      -5.4037923150     4.3935035197    -1.5361331175
  175      C      -8.5282817278    -1.1507254204    -0.8649517941
  176      C      -9.2460937343     2.2864583408    -0.8611157716
 ----------------------------------------------------------------

    9   -5804.2672419988      8.00E-06 Convergence criterion met
 Total energy in the final basis set = -5804.2672419988

                    Orbital Energies (a.u.)
 --------------------------------------------------------------

 Alpha MOs
 -- Occupied --
-19.203 -19.194 -19.138 -19.121 -10.324 -10.312 -10.251 -10.247
-10.240 -10.236 -10.236 -10.234 -10.233 -10.233 -10.229 -10.229
-10.225 -10.225 -10.222 -10.222 -10.221 -10.221 -10.220 -10.220
-10.219 -10.219 -10.218 -10.218 -10.218 -10.217 -10.217 -10.217
-10.217 -10.216 -10.216 -10.216 -10.216 -10.216 -10.216 -10.216
-10.215 -10.215 -10.215 -10.215 -10.215 -10.215 -10.214 -10.214
-10.214 -10.214 -10.214 -10.214 -10.214 -10.213 -10.213 -10.213
-10.213 -10.213 -10.213 -10.213 -10.213 -10.212 -10.212 -10.212
-10.212 -10.212 -10.212 -10.212 -10.212 -10.212 -10.212 -10.212
-10.212 -10.212 -10.211 -10.211 -10.211 -10.211 -10.211 -10.211
-10.211 -10.211 -10.211 -10.211 -10.210 -10.210 -10.210 -10.210
-10.210 -10.209 -10.209 -10.209 -10.209 -10.209 -10.209 -10.209
-10.209 -10.208 -10.208 -10.208 -10.208 -10.208 -10.208 -10.208
-10.208 -10.207 -10.207 -10.207 -10.207 -10.207 -10.206 -10.206
-10.206 -10.206 -10.205 -10.205 -10.205 -10.205 -10.205 -10.205
-10.205 -10.204 -10.204 -10.204 -10.204 -10.204 -10.204 -10.203
-10.203 -10.202 -10.202 -10.202 -10.201 -10.201 -10.201 -10.201
-10.201 -10.200 -10.200 -10.200 -10.200 -10.199 -10.196 -10.194
-10.194 -10.193 -10.190 -10.190  -1.108  -1.082  -0.999  -0.992
 -0.982  -0.978  -0.964  -0.961  -0.960  -0.959  -0.958  -0.956
 -0.932  -0.928  -0.927  -0.924  -0.923  -0.921  -0.919  -0.919
 -0.919  -0.918  -0.895  -0.894  -0.889  -0.884  -0.882  -0.881
 -0.872  -0.871  -0.854  -0.852  -0.839  -0.837  -0.836  -0.836
 -0.834  -0.832  -0.818  -0.816  -0.805  -0.804  -0.796  -0.795
 -0.793  -0.793  -0.790  -0.790  -0.789  -0.786  -0.781  -0.781
 -0.769  -0.767  -0.765  -0.765  -0.764  -0.762  -0.760  -0.760
 -0.755  -0.748  -0.746  -0.742  -0.732  -0.729  -0.713  -0.712
 -0.711  -0.711  -0.709  -0.709  -0.708  -0.708  -0.706  -0.706
 -0.704  -0.704  -0.703  -0.702  -0.702  -0.701  -0.669  -0.668
 -0.657  -0.655  -0.653  -0.652  -0.645  -0.644  -0.628  -0.627
 -0.626  -0.626  -0.621  -0.620  -0.619  -0.618  -0.616  -0.614
 -0.611  -0.611  -0.610  -0.609  -0.608  -0.608  -0.607  -0.605
 -0.605  -0.604  -0.600  -0.600  -0.569  -0.563  -0.560  -0.559
 -0.559  -0.557  -0.556  -0.555  -0.554  -0.553  -0.551  -0.550
 -0.534  -0.532  -0.530  -0.529  -0.526  -0.526  -0.523  -0.520
 -0.519  -0.519  -0.517  -0.516  -0.512  -0.512  -0.511  -0.510
 -0.506  -0.504  -0.499  -0.497  -0.496  -0.488  -0.485  -0.482
 -0.481  -0.480  -0.479  -0.476  -0.476  -0.476  -0.475  -0.471
 -0.471  -0.469  -0.468  -0.467  -0.467  -0.464  -0.464  -0.463
 -0.463  -0.462  -0.461  -0.460  -0.460  -0.459  -0.459  -0.457
 -0.455  -0.453  -0.450  -0.448  -0.446  -0.445  -0.442  -0.440
 -0.440  -0.438  -0.437  -0.437  -0.436  -0.435  -0.432  -0.430
 -0.429  -0.428  -0.426  -0.426  -0.426  -0.425  -0.422  -0.421
 -0.421  -0.420  -0.418  -0.417  -0.417  -0.416  -0.416  -0.415
 -0.414  -0.414  -0.414  -0.413  -0.412  -0.411  -0.411  -0.408
 -0.408  -0.406  -0.406  -0.405  -0.401  -0.398  -0.393  -0.393
 -0.390  -0.387  -0.386  -0.386  -0.384  -0.382  -0.382  -0.377
 -0.376  -0.374  -0.369  -0.369  -0.368  -0.365  -0.364  -0.364
 -0.363  -0.362  -0.361  -0.360  -0.358  -0.357  -0.356  -0.356
 -0.355  -0.354  -0.354  -0.353  -0.352  -0.352  -0.351  -0.351
 -0.348  -0.347  -0.346  -0.345  -0.344  -0.343  -0.342  -0.341
 -0.340  -0.340  -0.339  -0.338  -0.335  -0.335  -0.331  -0.331
 -0.328  -0.327  -0.326  -0.325  -0.325  -0.323  -0.322  -0.321
 -0.311  -0.307  -0.300  -0.294  -0.284  -0.281  -0.268  -0.268
 -0.267  -0.265  -0.264  -0.264  -0.262  -0.261  -0.261  -0.259
 -0.259  -0.258  -0.258  -0.256  -0.256  -0.252  -0.252  -0.251
 -0.248  -0.244  -0.241  -0.239  -0.220  -0.217  -0.208  -0.207
 -0.207  -0.206  -0.202  -0.202  -0.199  -0.194

          Ground-State Mulliken Net Atomic Charges

     Atom                 Charge (a.u.)
  ----------------------------------------
      1 O                    -0.446254
      2 C                    -0.080379
      3 H                     0.123483
      4 H                     0.126132
      5 H                     0.136827
      6 O                    -0.504229
      7 C                     0.585806
      8 C                    -0.263128
      9 H                     0.135432
     10 H                     0.129621
     11 C                    -0.180406
     12 H                     0.139186
     13 H                     0.116751
     14 C                    -0.177984
     15 H                     0.113778
     16 H                     0.108403
     17 C                    -0.004230
     18 C                     0.061038
     19 C                    -0.096778
     20 H                     0.100864
     21 C                    -0.081059
     22 H                     0.091305
     23 C                    -0.076506
     24 H                     0.084524
     25 C                    -0.087271
     26 H                     0.089600
     27 C                    -0.098606
     28 H                     0.090002
     29 C                     0.002648
     30 C                    -0.008342
     31 C                    -0.002020
     32 C                    -0.008071
     33 C                    -0.017679
     34 C                     0.010784
     35 C                    -0.020432
     36 C                    -0.028904
     37 C                    -0.001081
     38 C                    -0.008436
     39 C                    -0.086684
     40 C                    -0.016278
     41 C                    -0.003078
     42 C                     0.001641
     43 C                    -0.007865
     44 C                    -0.014721
     45 C                    -0.090501
     46 C                     0.040880
     47 C                     0.002809
     48 C                     0.001086
     49 C                     0.002049
     50 C                    -0.017112
     51 C                    -0.001530
     52 C                    -0.004022
     53 C                     0.023768
     54 C                    -0.006608
     55 C                     0.023442
     56 C                    -0.008741
     57 C                     0.017177
     58 C                     0.005848
     59 C                     0.006244
     60 C                     0.027935
     61 C                    -0.022286
     62 C                     0.006877
     63 C                     0.015845
     64 C                    -0.008839
     65 C                    -0.033402
     66 C                    -0.025196
     67 C                    -0.031407
     68 C                    -0.014047
     69 C                     0.023329
     70 C                     0.055847
     71 C                    -0.007908
     72 C                    -0.011061
     73 C                    -0.010534
     74 C                    -0.004666
     75 C                     0.036800
     76 C                     0.010552
     77 C                    -0.028810
     78 C                    -0.005512
     79 C                     0.003274
     80 C                    -0.005603
     81 C                     0.005194
     82 C                     0.018372
     83 C                     0.022998
     84 C                    -0.001337
     85 C                     0.023330
     86 C                     0.034179
     87 C                    -0.017733
     88 C                     0.025683
     89 O                    -0.463163
     90 C                    -0.090057
     91 H                     0.130553
     92 H                     0.134075
     93 H                     0.127107
     94 O                    -0.478246
     95 C                     0.582559
     96 C                    -0.249721
     97 H                     0.116234
     98 H                     0.134429
     99 C                    -0.196871
    100 H                     0.107775
    101 H                     0.127536
    102 C                    -0.160778
    103 H                     0.130577
    104 H                     0.110490
    105 C                     0.005997
    106 C                     0.091310
    107 C                    -0.112483
    108 H                     0.095571
    109 C                    -0.084218
    110 H                     0.096365
    111 C                    -0.082663
    112 H                     0.082413
    113 C                    -0.083370
    114 H                     0.097714
    115 C                    -0.118080
    116 H                     0.091613
    117 C                    -0.035501
    118 C                     0.002889
    119 C                     0.035215
    120 C                    -0.002091
    121 C                    -0.022064
    122 C                     0.012644
    123 C                     0.014567
    124 C                    -0.012206
    125 C                     0.018779
    126 C                    -0.035975
    127 C                    -0.083697
    128 C                    -0.000807
    129 C                     0.008645
    130 C                    -0.013351
    131 C                     0.003132
    132 C                     0.012578
    133 C                    -0.092254
    134 C                     0.031869
    135 C                     0.000312
    136 C                     0.024560
    137 C                    -0.016720
    138 C                     0.005137
    139 C                     0.007158
    140 C                     0.015828
    141 C                     0.035153
    142 C                    -0.004363
    143 C                     0.011773
    144 C                    -0.015620
    145 C                    -0.008231
    146 C                    -0.012382
    147 C                     0.001084
    148 C                     0.009739
    149 C                    -0.017374
    150 C                    -0.004907
    151 C                    -0.019637
    152 C                    -0.023081
    153 C                    -0.001968
    154 C                     0.004564
    155 C                     0.027216
    156 C                    -0.019129
    157 C                    -0.013348
    158 C                    -0.014872
    159 C                    -0.011627
    160 C                     0.021679
    161 C                     0.030150
    162 C                    -0.014109
    163 C                    -0.029819
    164 C                     0.017414
    165 C                    -0.015792
    166 C                     0.016585
    167 C                    -0.010310
    168 C                     0.017884
    169 C                     0.008791
    170 C                     0.012423
    171 C                    -0.000071
    172 C                     0.001953
    173 C                    -0.011915
    174 C                     0.011072
    175 C                     0.018185
    176 C                    -0.022490
  ----------------------------------------
  Sum of atomic charges =     0.000000

                    Cartesian Multipole Moments
 -----------------------------------------------------------------
    Charge (ESU x 10^10)
                 0.0000
    Dipole Moment (Debye)
         X       3.1846      Y      -5.1504      Z      -3.1928
       Tot       6.8456
    Quadrupole Moments (Debye-Ang)
        XX    -789.6734     XY       6.0143     YY    -772.6150
        XZ     -24.2717     YZ       0.1604     ZZ    -791.3596

 Total job time:  834.93s(wall), 7092.75s(cpu)
        *  Thank you very much for using Q-Chem.  Have a nice day.  *
