 Q-Chem 4.4, Q-Chem, Inc., Pleasanton, CA (2016)
 Q-Chem 4.4.2 for Intel X86 Linux

User input:
--------------------------------------------------------------
$comment
SP
$end

$rem
MEM_STATIC 5000
MEM_TOTAL 20000
JOBTYPE SP
EXCHANGE B3LYP
BASIS 6-31g(d,p)
$end

$molecule
0 1
O          -6.316000      6.198000    -14.394000
C          -5.888000      7.471000    -14.921000
H          -5.536000      8.073000    -14.074000
H          -6.702000      7.877000    -15.535000
H          -4.969000      7.401000    -15.516000
O          -7.251000      5.596000    -16.335000
C          -6.982000      5.287000    -15.165000
C          -7.415000      4.043000    -14.444000
H          -6.502000      3.482000    -14.209000
H          -8.023000      3.526000    -15.198000
C          -8.255000      4.272000    -13.132000
H          -8.879000      5.140000    -13.379000
H          -8.920000      3.413000    -12.979000
C          -7.404000      4.425000    -11.914000
H          -6.639000      3.652000    -11.771000
H          -6.860000      5.346000    -12.162000
C          -8.205000      4.747000    -10.648000
C          -8.604000      6.204000    -10.569000
C          -9.790000      6.623000    -11.238000
H         -10.437000      5.902000    -11.730000
C         -10.179000      7.930000    -11.270000
H         -11.003000      8.312000    -11.865000
C          -9.406000      8.922000    -10.669000
H          -9.662000      9.977000    -10.668000
C          -8.222000      8.572000     -9.966000
H          -7.563000      9.344000     -9.579000
C          -7.811000      7.197000     -9.948000
H          -6.844000      6.921000     -9.537000
C          -8.922000      4.083000     -5.284000
C         -11.180000      4.355000     -6.078000
C         -12.271000     -0.120000     -5.448000
C          -6.438000      0.449000     -7.733000
C         -11.745000     -1.047000     -8.801000
C          -9.829000      4.706000     -6.126000
C          -8.198000     -1.579000     -8.442000
C         -10.954000      1.411000     -4.114000
C         -11.444000      2.870000     -9.801000
C          -6.919000      0.411000     -9.021000
C          -9.190000      3.665000    -10.136000
C         -10.695000      1.875000    -10.460000
C          -8.721000     -0.135000    -10.315000
C          -9.526000     -2.045000     -8.407000
C         -10.651000      4.543000     -8.250000
C         -11.099000     -1.786000     -6.571000
C          -7.966000      3.967000     -9.380000
C          -7.023000      2.876000     -9.134000
C         -12.029000     -1.189000     -7.444000
C          -7.937000     -0.171000     -4.611000
C         -10.083000     -0.785000     -4.604000
C          -9.974000      0.398000     -3.890000
C         -10.624000      2.810000     -4.220000
C          -6.646000      2.864000     -7.790000
C         -10.601000      3.938000     -9.537000
C         -11.603000      3.363000     -5.141000
C          -7.767000     -0.636000     -9.411000
C         -11.711000      4.223000     -7.337000
C         -11.028000      0.525000    -10.209000
C          -6.533000      1.504000     -5.704000
C         -12.122000      1.124000     -4.814000
C          -9.368000      2.260000    -10.701000
C          -8.288000      2.159000     -4.099000
C         -10.089000     -0.492000    -10.136000
C         -12.443000      2.472000     -8.851000
C          -8.705000     -1.817000     -6.239000
C          -7.655000     -1.560000     -7.149000
C         -12.857000      1.160000     -8.699000
C          -6.334000      1.649000     -7.097000
C          -7.240000      1.608000     -9.687000
C          -6.926000      0.136000     -5.554000
C          -8.163000      4.544000     -7.934000
C         -13.004000      2.219000     -6.755000
C          -8.376000      1.231000    -10.400000
C         -12.102000      0.211000     -9.417000
C          -7.213000      2.530000     -5.011000
C         -12.778000     -0.164000     -6.764000
C          -9.287000      3.181000     -4.263000
C         -11.245000     -1.142000     -5.296000
C         -12.547000      3.183000     -7.681000
C         -13.221000      1.022000     -7.406000
C          -9.521000      4.858000     -7.462000
C          -7.297000      3.899000     -7.098000
C          -8.846000     -1.109000     -5.085000
C         -12.466000      2.307000     -5.471000
C         -10.490000     -1.473000     -9.268000
C          -6.787000     -0.522000     -6.765000
C          -9.835000     -2.203000     -7.040000
C          -7.632000      3.679000     -5.698000
C          -8.586000      0.812000     -3.872000
O         -13.336000     -2.169000      6.429000
C         -14.631000     -1.830000      7.009000
H         -15.398000     -2.609000      6.921000
H         -15.068000     -0.949000      6.523000
H         -14.515000     -1.631000      8.082000
O         -14.130000     -2.189000      4.211000
C         -13.199000     -2.243000      5.054000
C         -11.774000     -2.615000      4.586000
H         -11.120000     -2.252000      5.388000
H         -11.498000     -1.951000      3.757000
C         -11.656000     -4.136000      4.325000
H         -10.584000     -4.211000      4.101000
H         -11.889000     -4.749000      5.205000
C         -12.477000     -4.548000      3.102000
H         -13.535000     -4.508000      3.391000
H         -12.205000     -3.780000      2.367000
C         -12.161000     -5.933000      2.585000
C         -12.219000     -6.977000      3.666000
C         -13.482000     -7.472000      4.063000
H         -14.336000     -7.089000      3.513000
C         -13.536000     -8.546000      4.980000
H         -14.502000     -9.013000      5.152000
C         -12.396000     -8.800000      5.722000
H         -12.468000     -9.459000      6.582000
C         -11.140000     -8.338000      5.429000
H         -10.270000     -8.685000      5.979000
C         -11.059000     -7.356000      4.376000
H         -10.088000     -6.921000      4.160000
C          -8.584000     -8.934000     -0.449000
C         -10.787000     -9.997000     -0.727000
C         -11.477000     -8.759000     -5.098000
C          -9.087000     -3.986000     -1.569000
C         -13.654000     -6.087000     -4.336000
C          -9.890000     -9.319000      0.052000
C         -11.028000     -3.682000     -3.596000
C          -9.502000     -9.520000     -3.948000
C         -13.872000     -7.434000     -0.493000
C         -10.409000     -3.561000     -1.288000
C         -12.547000     -6.290000      1.155000
C         -14.026000     -6.072000     -0.769000
C         -12.589000     -3.880000     -1.725000
C         -11.893000     -4.384000     -4.449000
C         -12.053000     -8.620000      0.585000
C         -11.674000     -6.483000     -5.649000
C         -11.099000     -6.090000      1.493000
C         -10.343000     -5.007000      0.742000
C         -12.868000     -6.966000     -5.180000
C          -8.021000     -6.357000     -3.921000
C          -9.473000     -7.453000     -5.281000
C          -8.829000     -8.420000     -4.468000
C          -9.209000     -9.936000     -2.619000
C          -9.093000     -5.450000      0.344000
C         -12.957000     -7.599000      0.581000
C         -10.428000    -10.305000     -2.077000
C         -11.396000     -3.427000     -2.260000
C         -12.092000     -9.575000     -0.452000
C         -14.172000     -5.655000     -2.136000
C          -7.706000     -5.754000     -1.596000
C         -10.848000     -9.728000     -4.275000
C         -13.209000     -5.342000      0.139000
C          -7.624000     -8.106000     -2.336000
C         -13.440000     -4.532000     -2.611000
C         -13.882000     -8.376000     -1.504000
C          -9.786000     -5.052000     -4.994000
C          -9.748000     -4.096000     -3.939000
C         -14.123000     -7.935000     -2.879000
C          -8.503000     -4.920000     -0.761000
C         -11.009000     -4.147000     -0.084000
C          -7.871000     -5.349000     -2.920000
C         -10.123000     -7.268000      1.267000
C         -12.695000     -9.702000     -2.802000
C         -12.410000     -4.313000     -0.402000
C         -14.202000     -6.608000     -3.163000
C          -7.497000     -7.121000     -1.286000
C         -12.788000     -8.351000     -4.882000
C          -8.326000     -9.217000     -1.830000
C         -10.829000     -7.629000     -5.600000
C         -13.047000     -9.452000     -1.454000
C         -13.415000     -8.826000     -3.682000
C         -10.651000     -8.478000      0.786000
C          -8.949000     -6.804000      0.642000
C          -8.944000     -6.215000     -4.929000
C         -11.405000    -10.171000     -3.102000
C         -13.128000     -4.819000     -3.955000
C          -8.782000     -4.253000     -2.894000
C         -11.150000     -5.213000     -5.294000
C          -8.156000     -7.639000     -0.185000
C          -7.878000     -7.735000     -3.684000
$end

--------------------------------------------------------------

             Standard Nuclear Orientation (Angstroms)
    I     Atom           X                Y                Z
 ----------------------------------------------------------------
    1      O      13.2822711800    -1.5341007916     1.2507684836
    2      C      14.6151688119    -1.0668415651     1.5448683277
    3      H      14.5157012677    -0.1484640877     2.1368193533
    4      H      15.1727183409    -1.0103849228     0.6012692761
    5      H      15.1472145941    -1.7102933374     2.2564743299
    6      O      14.0299000782    -3.0553037467    -0.2090611640
    7      C      13.0552428833    -2.5553127607     0.3712787073
    8      C      11.6076423379    -2.8716585844     0.1278778423
    9      H      11.2219382962    -3.3124080113     1.0555024080
   10      H      11.6549416718    -3.6123874482    -0.6811663612
   11      C      10.7058996720    -1.6543511308    -0.3015493668
   12      H      11.3678600350    -1.0642328828    -0.9475972994
   13      H       9.8769512754    -2.0236716221    -0.9179598878
   14      C      10.1285171651    -0.9172137428     0.8622340804
   15      H       9.6308682220    -1.5389318274     1.6165650109
   16      H      11.0440738265    -0.5408047950     1.3373691179
   17      C       9.3307613105     0.3275774489     0.4595909563
   18      C      10.2206868232     1.5073310427     0.1363185640
   19      C      10.7565727974     1.6163954997    -1.1792228329
   20      H      10.4730636536     0.9125919759    -1.9569098941
   21      C      11.6202124919     2.6129089819    -1.5280513838
   22      H      12.1460127693     2.6670036722    -2.4764884311
   23      C      12.0410875813     3.5558943109    -0.5918693351
   24      H      12.7303910518     4.3656679862    -0.8102481810
   25      C      11.5295613664     3.5192080276     0.7331061545
   26      H      11.9234813471     4.1870089494     1.4939628937
   27      C      10.6321379247     2.4600447784     1.0973510967
   28      H      10.3339829857     2.3285420512     2.1336892004
   29      C       5.0278945954     3.5768182374     1.2690681522
   30      C       5.3492937204     3.7279218790    -1.1135468591
   31      C       1.5849139493     1.1828686287    -2.0958680347
   32      C       4.6394446271    -1.1842526686     2.8675435040
   33      C       3.3510607638    -1.8242267657    -2.5613964640
   34      C       5.8774495688     3.6566277425     0.1774506413
   35      C       3.3867507387    -2.7276000996     0.9279812521
   36      C       1.9765467410     2.8820819837    -0.4173854668
   37      C       6.8351214173     0.2454492398    -2.4553182156
   38      C       5.4139462345    -1.9652637715     2.0417602895
   39      C       8.0387695544     0.1065250364    -0.3680479342
   40      C       6.7335155105    -1.0652602158    -1.9483429078
   41      C       5.5934257475    -2.8295867177    -0.0654864803
   42      C       2.7914581321    -2.7521004823    -0.3475544957
   43      C       7.0792119180     2.3031545489    -1.2144928096
   44      C       1.4131487951    -1.0071441826    -1.3312703510
   45      C       7.9536780955     0.5625649609     1.0268366599
   46      C       7.1955171341    -0.2561509693     1.9728504981
   47      C       2.2617021188    -0.9616091657    -2.4543561977
   48      C       1.7719320652     0.7723534619     2.2953991540
   49      C       0.9413740153     0.7991642859     0.2237294154
   50      C       1.2949368991     2.0965299033     0.5598867329
   51      C       3.0884962063     3.7406417397    -0.0952356074
   52      C       6.3281574660     0.5487321183     2.7134309607
   53      C       7.5549009103     1.0034416715    -1.5451896780
   54      C       3.9304093122     3.7333078844    -1.2799801101
   55      C       4.7949797573    -2.7910263314     1.0918078199
   56      C       6.0288229728     2.9097616591    -1.9814868627
   57      C       5.5550671465    -1.7916506014    -2.2311970418
   58      C       3.9572386094     0.9405991727     3.3759632143
   59      C       2.0437772419     2.4620021144    -1.7423782831
   60      C       7.4143524260    -1.2355398306    -0.7339702520
   61      C       2.9816566043     2.8539807188     2.1625853627
   62      C       4.9674191763    -2.6717465422    -1.3359652293
   63      C       5.7159289491     0.8078213520    -3.1553545194
   64      C       1.6045352898    -1.3226679752     1.0575027538
   65      C       2.6069744157    -1.9701623565     1.8141505087
   66      C       4.6174724628     0.0601088193    -3.5428636369
   67      C       5.0578590156     0.0744284086     3.1773230148
   68      C       6.6513457945    -1.4839239418     1.5763998945
   69      C       2.8249084860     0.1470154594     3.0066037938
   70      C       7.3213902996     1.9796614369     1.2607249259
   71      C       3.9871830004     2.1424224277    -3.1082014348
   72      C       6.6705746209    -1.9838619398     0.2761359788
   73      C       4.5898900336    -1.2582744651    -3.0456164901
   74      C       4.0697691791     2.2812712089     2.9455443923
   75      C       2.3697639723     0.3845200216    -2.9546409634
   76      C       3.6245872243     3.6899788112     1.1842559666
   77      C       0.9552648733     0.3330837812    -1.0950325067
   78      C       5.3851822612     2.1170383885    -2.9067697658
   79      C       3.5603453817     0.9001794222    -3.5305057829
   80      C       6.9637223572     2.8099778907     0.0996081232
   81      C       6.4530284887     1.8889415735     2.3107700067
   82      C       1.2759091403    -0.0182946683     1.2660120586
   83      C       3.2609232259     2.9442656581    -2.2276117608
   84      C       3.6079644603    -2.7091447720    -1.5004956143
   85      C       3.2274931441    -1.1591227734     2.7813605699
   86      C       1.6793875807    -1.8888935737    -0.2620739610
   87      C       5.2700211587     2.7353788609     2.3790530633
   88      C       1.8283564304     2.1062430890     1.9065987502
   89      O      -8.2504191717     7.8513856591     0.1829162934
   90      C      -8.6535955325     8.7579131218    -0.8866643634
   91      H      -9.2789644895     8.3073001921    -1.6668794974
   92      H      -7.7828500419     9.1580911103    -1.4205050401
   93      H      -9.2344808476     9.5893354831    -0.4675043608
   94      O      -6.8785934790     6.5315544435    -1.2050677955
   95      C      -7.3267470573     6.8539735732    -0.0756740311
   96      C      -6.9999947026     5.9704670044     1.1493492510
   97      H      -7.1795844355     6.6231795525     2.0121370913
   98      H      -5.9121310494     5.8340843436     1.1969459081
   99      C      -7.8608266605     4.6842113111     1.1501439420
  100      H      -7.5603441517     4.2512221899     2.1130643347
  101      H      -8.9403397831     4.8817519812     1.1594767723
  102      C      -7.4554520844     3.7521689965     0.0071292540
  103      H      -7.8227199372     4.2003910919    -0.9249095208
  104      H      -6.3605954115     3.7535430234     0.0800674317
  105      C      -8.0077586807     2.3502160398     0.1290117002
  106      C      -9.4950245115     2.3358519538     0.3519355025
  107      C     -10.3486984497     2.5175749965    -0.7598291052
  108      H      -9.8588369428     2.6087777772    -1.7243096684
  109      C     -11.7428738233     2.3717630306    -0.5801212910
  110      H     -12.3666232414     2.3599530688    -1.4698550648
  111      C     -12.2223878746     2.4391051011     0.7161083646
  112      H     -13.2904744167     2.5558662791     0.8730254315
  113      C     -11.4649300819     2.3045113021     1.8496740670
  114      H     -11.9266752272     2.2356038234     2.8304146953
  115      C     -10.0360902436     2.2882512413     1.6551327422
  116      H      -9.4033783732     2.2468308296     2.5364284012
  117      C      -7.3476091636    -2.5825309777     2.6266696986
  118      C      -8.3055708359    -3.0540902199     0.4084714849
  119      C      -4.5477116224    -4.9299066350    -1.4554469438
  120      C      -3.2086911133     0.3169660533     1.9540722406
  121      C      -3.6091877312    -2.0451501369    -3.2601380124
  122      C      -8.2042142846    -2.2437287185     1.5058206027
  123      C      -1.9543889778    -0.3977410892    -0.4717360480
  124      C      -5.5091423295    -5.1328235164     0.7438078697
  125      C      -7.2462104202    -0.4035683111    -2.4187955914
  126      C      -3.3501579836     1.0917772501     0.7763945538
  127      C      -7.3405227417     1.2262722003    -0.6538621385
  128      C      -6.1321071075     0.4193866719    -2.6097272666
  129      C      -3.6740474652     1.0412682751    -1.4456933038
  130      C      -2.0154733141    -1.2813806379    -1.5598940566
  131      C      -8.4837429495    -0.9246764843    -0.4002811598
  132      C      -2.6127749171    -3.6274067100    -1.7419777307
  133      C      -7.1666792084     1.2830939711     0.8352643546
  134      C      -5.7511722742     1.3950001817     1.3758595073
  135      C      -3.4950591563    -3.4040126063    -2.7669438744
  136      C      -3.0435611702    -3.1721249886     2.2521943685
  137      C      -3.1381709579    -4.5487025045     0.4479761636
  138      C      -4.2567058859    -4.8372001859     1.2704375320
  139      C      -6.6640054613    -4.6086547403     1.3893187069
  140      C      -5.5547496127     0.5449254266     2.4510078919
  141      C      -7.9345071084    -0.0033199916    -1.2423709437
  142      C      -7.5216789851    -4.2498202753     0.3638822372
  143      C      -2.7673108331     0.7527210497    -0.4410778656
  144      C      -8.4418466863    -2.2890687146    -0.7546729554
  145      C      -4.9231206907    -0.1609377554    -3.1249644962
  146      C      -4.1704054696    -1.2614509657     3.2258502129
  147      C      -5.6773261218    -5.2099562138    -0.6445990444
  148      C      -6.0983283449     1.3699560172    -1.5513653648
  149      C      -5.2876820248    -3.4527506407     3.0357796116
  150      C      -3.6747992511     0.1683988176    -2.5284672160
  151      C      -7.2078341193    -1.7475950014    -2.7377070455
  152      C      -1.7163378893    -2.5742295817     0.2899052855
  153      C      -1.7701573615    -1.1969284291     0.6484439854
  154      C      -5.9941046949    -2.2956790600    -3.3456969705
  155      C      -4.3117975201     0.0616192105     2.7184217976
  156      C      -4.7024998745     1.6030893181     0.5259082679
  157      C      -3.0030282316    -1.8176538804     2.7042232371
  158      C      -7.6534102307     0.0809775650     1.6774906056
  159      C      -7.0182935607    -3.8142648796    -1.9994665757
  160      C      -4.8577146652     1.5737836748    -0.9116349656
  161      C      -4.8850729332    -1.5191787522    -3.4678518871
  162      C      -5.3013308486    -2.0771683415     3.4789963166
  163      C      -4.6541139612    -4.2128687174    -2.6413542619
  164      C      -6.5434922752    -3.7593237250     2.4771074725
  165      C      -3.2913667586    -4.5954892308    -0.9469485831
  166      C      -7.8400442136    -2.6628278992    -1.9502045760
  167      C      -5.9311075331    -3.6190757478    -2.9160383102
  168      C      -8.2642740065    -0.9906061777     1.0045873958
  169      C      -6.6803112289    -0.2555214741     2.6387625387
  170      C      -2.4184203056    -3.5431708771     1.0861408328
  171      C      -6.9003628452    -4.6262971864    -0.8589592855
  172      C      -2.8890632528    -0.9982301420    -2.6159018292
  173      C      -2.4233996586    -0.8212183219     1.8657962009
  174      C      -1.8736573974    -2.5959308702    -1.1069471142
  175      C      -6.5458849846    -1.5731229754     3.1445874775
  176      C      -4.1439319713    -4.0301086518     2.4211622166
 ----------------------------------------------------------------

    9   -5804.2741277572      9.78E-06 Convergence criterion met
 Total energy in the final basis set = -5804.2741277572

                    Orbital Energies (a.u.)
 --------------------------------------------------------------

 Alpha MOs
 -- Occupied --
-19.203 -19.188 -19.137 -19.130 -10.324 -10.317 -10.251 -10.245
-10.238 -10.237 -10.236 -10.234 -10.234 -10.234 -10.229 -10.226
-10.226 -10.225 -10.224 -10.224 -10.223 -10.222 -10.222 -10.222
-10.221 -10.221 -10.221 -10.221 -10.221 -10.220 -10.220 -10.220
-10.220 -10.220 -10.220 -10.219 -10.219 -10.219 -10.219 -10.219
-10.218 -10.218 -10.218 -10.218 -10.217 -10.217 -10.217 -10.217
-10.217 -10.217 -10.217 -10.217 -10.217 -10.216 -10.216 -10.216
-10.216 -10.216 -10.215 -10.215 -10.215 -10.215 -10.215 -10.215
-10.214 -10.214 -10.214 -10.214 -10.214 -10.214 -10.213 -10.213
-10.213 -10.213 -10.213 -10.213 -10.213 -10.213 -10.213 -10.213
-10.213 -10.212 -10.212 -10.212 -10.212 -10.212 -10.212 -10.212
-10.212 -10.211 -10.211 -10.211 -10.211 -10.211 -10.211 -10.211
-10.211 -10.211 -10.211 -10.210 -10.210 -10.210 -10.210 -10.210
-10.210 -10.209 -10.209 -10.209 -10.209 -10.209 -10.209 -10.209
-10.209 -10.209 -10.208 -10.208 -10.208 -10.208 -10.208 -10.208
-10.208 -10.208 -10.207 -10.207 -10.207 -10.206 -10.205 -10.205
-10.205 -10.204 -10.204 -10.204 -10.204 -10.203 -10.203 -10.202
-10.202 -10.201 -10.201 -10.200 -10.200 -10.199 -10.198 -10.197
-10.196 -10.194 -10.193 -10.193  -1.088  -1.081  -0.998  -0.994
 -0.982  -0.979  -0.966  -0.961  -0.960  -0.960  -0.959  -0.956
 -0.932  -0.929  -0.928  -0.924  -0.922  -0.922  -0.921  -0.919
 -0.918  -0.917  -0.895  -0.894  -0.890  -0.884  -0.882  -0.882
 -0.872  -0.872  -0.852  -0.851  -0.843  -0.839  -0.839  -0.837
 -0.835  -0.834  -0.822  -0.818  -0.810  -0.804  -0.798  -0.796
 -0.795  -0.793  -0.792  -0.790  -0.790  -0.786  -0.784  -0.781
 -0.770  -0.770  -0.768  -0.766  -0.766  -0.764  -0.761  -0.760
 -0.749  -0.748  -0.742  -0.742  -0.732  -0.732  -0.717  -0.715
 -0.713  -0.711  -0.711  -0.710  -0.709  -0.708  -0.708  -0.706
 -0.706  -0.704  -0.703  -0.703  -0.702  -0.701  -0.672  -0.669
 -0.659  -0.657  -0.654  -0.652  -0.648  -0.644  -0.630  -0.627
 -0.627  -0.626  -0.625  -0.623  -0.621  -0.618  -0.616  -0.615
 -0.614  -0.613  -0.612  -0.611  -0.609  -0.609  -0.608  -0.608
 -0.606  -0.605  -0.600  -0.600  -0.569  -0.562  -0.561  -0.560
 -0.560  -0.559  -0.557  -0.557  -0.555  -0.553  -0.551  -0.550
 -0.535  -0.534  -0.532  -0.529  -0.527  -0.526  -0.525  -0.523
 -0.520  -0.519  -0.518  -0.517  -0.517  -0.515  -0.512  -0.510
 -0.506  -0.504  -0.502  -0.499  -0.488  -0.488  -0.487  -0.484
 -0.482  -0.481  -0.481  -0.480  -0.479  -0.476  -0.475  -0.473
 -0.471  -0.469  -0.469  -0.467  -0.466  -0.465  -0.464  -0.464
 -0.463  -0.462  -0.462  -0.461  -0.460  -0.460  -0.458  -0.456
 -0.454  -0.451  -0.450  -0.449  -0.448  -0.448  -0.444  -0.443
 -0.442  -0.440  -0.438  -0.438  -0.437  -0.435  -0.434  -0.432
 -0.431  -0.429  -0.428  -0.427  -0.426  -0.425  -0.425  -0.423
 -0.422  -0.421  -0.420  -0.419  -0.418  -0.418  -0.417  -0.415
 -0.415  -0.414  -0.413  -0.413  -0.413  -0.412  -0.411  -0.410
 -0.410  -0.409  -0.406  -0.406  -0.402  -0.400  -0.398  -0.394
 -0.393  -0.392  -0.388  -0.386  -0.386  -0.385  -0.385  -0.382
 -0.382  -0.377  -0.373  -0.369  -0.368  -0.367  -0.364  -0.364
 -0.362  -0.362  -0.362  -0.360  -0.359  -0.358  -0.358  -0.357
 -0.357  -0.356  -0.355  -0.355  -0.353  -0.352  -0.352  -0.351
 -0.348  -0.347  -0.346  -0.345  -0.345  -0.345  -0.343  -0.342
 -0.340  -0.339  -0.339  -0.338  -0.335  -0.335  -0.333  -0.332
 -0.331  -0.329  -0.327  -0.327  -0.327  -0.325  -0.323  -0.321
 -0.307  -0.300  -0.299  -0.293  -0.288  -0.284  -0.270  -0.269
 -0.268  -0.267  -0.266  -0.265  -0.264  -0.263  -0.263  -0.262
 -0.262  -0.260  -0.259  -0.258  -0.256  -0.254  -0.254  -0.252
 -0.249  -0.247  -0.244  -0.240  -0.225  -0.218  -0.214  -0.209
 -0.208  -0.207  -0.204  -0.202  -0.199  -0.195

          Ground-State Mulliken Net Atomic Charges

     Atom                 Charge (a.u.)
  ----------------------------------------
      1 O                    -0.462946
      2 C                    -0.077078
      3 H                     0.122559
      4 H                     0.139099
      5 H                     0.121162
      6 O                    -0.483370
      7 C                     0.584160
      8 C                    -0.261254
      9 H                     0.130761
     10 H                     0.139145
     11 C                    -0.184715
     12 H                     0.116765
     13 H                     0.112756
     14 C                    -0.192952
     15 H                     0.105032
     16 H                     0.137428
     17 C                     0.004823
     18 C                     0.091396
     19 C                    -0.104626
     20 H                     0.092960
     21 C                    -0.083742
     22 H                     0.091802
     23 C                    -0.086205
     24 H                     0.089532
     25 C                    -0.094684
     26 H                     0.091977
     27 C                    -0.113341
     28 H                     0.090284
     29 C                     0.029632
     30 C                    -0.013792
     31 C                    -0.029618
     32 C                     0.002471
     33 C                    -0.042670
     34 C                     0.011564
     35 C                     0.026646
     36 C                     0.005756
     37 C                     0.004421
     38 C                    -0.005290
     39 C                    -0.072305
     40 C                    -0.008805
     41 C                    -0.030239
     42 C                    -0.000536
     43 C                     0.001030
     44 C                     0.010087
     45 C                    -0.099740
     46 C                     0.018241
     47 C                     0.012990
     48 C                    -0.009994
     49 C                     0.028510
     50 C                    -0.035154
     51 C                    -0.018374
     52 C                     0.013058
     53 C                     0.022094
     54 C                     0.001636
     55 C                    -0.008519
     56 C                    -0.004466
     57 C                     0.040560
     58 C                    -0.026355
     59 C                     0.015740
     60 C                    -0.004831
     61 C                     0.015898
     62 C                     0.009038
     63 C                    -0.001498
     64 C                    -0.002547
     65 C                    -0.039380
     66 C                     0.014334
     67 C                     0.011537
     68 C                     0.028627
     69 C                     0.000816
     70 C                     0.018508
     71 C                    -0.012111
     72 C                    -0.005221
     73 C                    -0.012433
     74 C                    -0.014417
     75 C                     0.014103
     76 C                    -0.017315
     77 C                    -0.022155
     78 C                     0.019590
     79 C                    -0.009639
     80 C                     0.003445
     81 C                    -0.003170
     82 C                     0.077087
     83 C                     0.003996
     84 C                     0.006517
     85 C                     0.003276
     86 C                    -0.011151
     87 C                    -0.001525
     88 C                    -0.015928
     89 O                    -0.463721
     90 C                    -0.089794
     91 H                     0.129603
     92 H                     0.134350
     93 H                     0.127159
     94 O                    -0.476938
     95 C                     0.582426
     96 C                    -0.249738
     97 H                     0.116083
     98 H                     0.134509
     99 C                    -0.196807
    100 H                     0.107579
    101 H                     0.127311
    102 C                    -0.159984
    103 H                     0.130641
    104 H                     0.110683
    105 C                     0.005405
    106 C                     0.091581
    107 C                    -0.111635
    108 H                     0.095316
    109 C                    -0.084273
    110 H                     0.095545
    111 C                    -0.082387
    112 H                     0.082293
    113 C                    -0.083770
    114 H                     0.097841
    115 C                    -0.117815
    116 H                     0.091849
    117 C                    -0.036168
    118 C                     0.002257
    119 C                     0.034357
    120 C                    -0.003160
    121 C                    -0.021702
    122 C                     0.012935
    123 C                     0.019732
    124 C                    -0.013715
    125 C                     0.022164
    126 C                    -0.037958
    127 C                    -0.081329
    128 C                    -0.003943
    129 C                     0.007740
    130 C                    -0.007553
    131 C                     0.002356
    132 C                     0.010224
    133 C                    -0.091935
    134 C                     0.031511
    135 C                     0.000244
    136 C                     0.025871
    137 C                    -0.016382
    138 C                     0.005497
    139 C                     0.008054
    140 C                     0.014892
    141 C                     0.034841
    142 C                    -0.003945
    143 C                     0.006064
    144 C                    -0.016068
    145 C                    -0.015779
    146 C                    -0.013272
    147 C                     0.002401
    148 C                     0.006851
    149 C                    -0.017141
    150 C                    -0.004475
    151 C                    -0.019896
    152 C                    -0.020166
    153 C                     0.003931
    154 C                     0.004661
    155 C                     0.027934
    156 C                    -0.018191
    157 C                    -0.014130
    158 C                    -0.015207
    159 C                    -0.012175
    160 C                     0.022472
    161 C                     0.032997
    162 C                    -0.013509
    163 C                    -0.029834
    164 C                     0.016930
    165 C                    -0.015742
    166 C                     0.016883
    167 C                    -0.010006
    168 C                     0.018967
    169 C                     0.009230
    170 C                     0.007286
    171 C                    -0.000192
    172 C                    -0.001933
    173 C                    -0.015662
    174 C                     0.013799
    175 C                     0.018005
    176 C                    -0.021988
  ----------------------------------------
  Sum of atomic charges =     0.000000

                    Cartesian Multipole Moments
 -----------------------------------------------------------------
    Charge (ESU x 10^10)
                 0.0000
    Dipole Moment (Debye)
         X      -1.6514      Y       5.0730      Z       2.4318
       Tot       5.8631
    Quadrupole Moments (Debye-Ang)
        XX    -748.1450     XY      -6.3706     YY    -793.4498
        XZ      14.4006     YZ       2.7528     ZZ    -804.6875

 Total job time:  840.24s(wall), 7102.06s(cpu)
        *  Thank you very much for using Q-Chem.  Have a nice day.  *
