 Q-Chem 4.4, Q-Chem, Inc., Pleasanton, CA (2016)
 Q-Chem 4.4.2 for Intel X86 Linux

User input:
--------------------------------------------------------------
$comment
SP
$end

$rem
MEM_STATIC 5000
MEM_TOTAL 20000
JOBTYPE SP
EXCHANGE B3LYP
BASIS 6-31g(d,p)
$end

$molecule
0 1
O           8.050000    -10.581000     -2.975000
C           8.481000    -10.038000     -4.209000
H           7.614000     -9.547000     -4.668000
H           8.919000    -10.852000     -4.800000
H           9.149000     -9.189000     -4.016000
O           7.207000     -8.707000     -2.081000
C           7.353000     -9.869000     -2.063000
C           6.831000    -10.837000     -0.978000
H           7.707000    -11.425000     -0.676000
H           6.220000    -11.611000     -1.458000
C           5.981000    -10.118000      0.082000
H           6.409000     -9.140000      0.335000
H           4.943000    -10.055000     -0.265000
C           6.176000    -10.913000      1.341000
H           5.957000    -11.973000      1.158000
H           7.195000    -10.806000      1.734000
C           5.351000    -10.418000      2.545000
C           5.641000     -9.036000      2.979000
C           5.021000     -7.910000      2.386000
H           4.235000     -8.082000      1.657000
C           5.296000     -6.615000      2.826000
H           4.775000     -5.806000      2.324000
C           6.408000     -6.395000      3.632000
H           6.729000     -5.380000      3.845000
C           7.162000     -7.464000      4.097000
H           8.108000     -7.310000      4.607000
C           6.716000     -8.758000      3.878000
H           7.320000     -9.619000      4.151000
C           3.276000    -11.506000      7.481000
C           1.530000    -10.161000      6.437000
C          -1.405000    -13.585000      5.919000
C           4.510000    -15.552000      4.635000
C          -0.543000    -14.085000      2.587000
C           2.867000    -10.480000      6.607000
C           2.201000    -16.254000      3.224000
C           0.113000    -13.019000      7.807000
C           1.533000    -10.688000      2.444000
C           4.317000    -15.136000      3.267000
C           3.913000    -10.941000      2.627000
C           1.878000    -11.790000      1.682000
C           2.767000    -14.436000      1.741000
C           0.824000    -15.981000      3.024000
C           2.583000     -9.738000      4.454000
C          -0.774000    -15.347000      4.582000
C           4.923000    -11.409000      3.637000
C           5.122000    -12.870000      3.775000
C          -1.222000    -14.312000      3.809000
C           2.219000    -15.795000      7.267000
C           0.040000    -15.343000      6.952000
C           0.545000    -14.386000      7.815000
C           1.000000    -11.956000      8.025000
C           5.321000    -13.278000      5.061000
C           2.690000    -10.170000      3.134000
C           0.604000    -10.931000      7.157000
C           3.125000    -15.520000      2.553000
C           1.339000     -9.780000      5.092000
C           0.979000    -12.814000      1.478000
C           4.332000    -14.745000      6.708000
C          -0.905000    -12.694000      6.886000
C           3.260000    -12.043000      1.811000
C           2.790000    -13.593000      8.295000
C           1.478000    -14.106000      1.585000
C           0.309000    -10.635000      3.115000
C           1.152000    -16.630000      5.212000
C           2.364000    -16.640000      4.572000
C          -0.600000    -11.737000      2.934000
C           4.995000    -14.625000      5.511000
C           4.622000    -13.793000      2.853000
C           3.434000    -15.827000      6.602000
C           4.668000    -11.068000      5.090000
C          -0.722000    -11.049000      5.108000
C           3.670000    -13.421000      1.935000
C          -0.236000    -12.773000      2.168000
C           4.039000    -13.690000      7.597000
C          -1.595000    -13.222000      4.604000
C           2.339000    -12.228000      8.294000
C          -0.849000    -14.896000      5.918000
C           0.199000    -10.266000      4.480000
C          -1.208000    -11.949000      4.192000
C           3.608000    -10.228000      5.403000
C           4.904000    -12.197000      5.859000
C           1.076000    -16.226000      6.558000
C          -0.488000    -11.447000      6.457000
C           0.468000    -14.896000      2.188000
C           3.539000    -16.302000      5.288000
C           0.220000    -16.213000      4.256000
C           4.254000    -12.370000      7.083000
C           1.908000    -14.641000      8.045000
O          -5.130000     -8.952000      7.174000
C          -6.468000     -9.047000      7.718000
H          -6.927000     -9.888000      7.184000
H          -7.031000     -8.148000      7.438000
H          -6.542000     -9.144000      8.808000
O          -4.785000     -6.779000      7.916000
C          -4.388000     -7.809000      7.397000
C          -3.009000     -7.895000      6.859000
H          -3.205000     -8.057000      5.792000
H          -2.603000     -8.821000      7.285000
C          -1.995000     -6.683000      7.025000
H          -2.497000     -5.885000      6.464000
H          -1.979000     -6.284000      8.047000
C          -0.657000     -7.073000      6.364000
H          -0.334000     -7.861000      7.055000
H          -0.871000     -7.476000      5.367000
C           0.519000     -6.005000      6.184000
C           0.623000     -5.487000      4.769000
C           0.152000     -4.188000      4.512000
H          -0.407000     -3.607000      5.240000
C           0.439000     -3.600000      3.280000
H           0.063000     -2.613000      3.028000
C           1.057000     -4.341000      2.215000
H           1.071000     -3.867000      1.238000
C           1.442000     -5.720000      2.435000
H           1.817000     -6.383000      1.661000
C           1.298000     -6.234000      3.776000
H           1.721000     -7.215000      3.973000
C           5.946000     -5.305000      6.728000
C           5.148000     -3.056000      6.846000
C           5.897000     -2.438000     11.366000
C           3.561000     -8.281000     10.133000
C           2.568000     -3.141000     12.200000
C           5.034000     -4.346000      6.260000
C           2.843000     -6.745000     12.370000
C           7.210000     -3.536000      9.634000
C           1.348000     -3.018000      8.389000
C           2.182000     -7.866000     10.254000
C           0.971000     -5.086000      7.334000
C           0.668000     -3.805000      9.324000
C           0.960000     -6.008000     10.992000
C           2.935000     -5.442000     12.878000
C           2.977000     -3.546000      6.664000
C           4.789000     -3.802000     12.758000
C           1.792000     -6.242000      6.909000
C           2.081000     -7.301000      7.889000
C           3.923000     -2.855000     12.320000
C           6.675000     -6.817000     10.851000
C           6.778000     -4.732000     11.759000
C           7.402000     -4.679000     10.480000
C           7.030000     -3.689000      8.238000
C           3.416000     -7.709000      7.773000
C           1.695000     -3.758000      7.255000
C           6.074000     -2.756000      7.823000
C           1.893000     -7.010000     11.348000
C           3.833000     -2.565000      7.092000
C           0.918000     -3.581000     10.700000
C           5.506000     -7.961000      9.019000
C           6.468000     -2.436000     10.065000
C           0.396000     -5.076000      8.721000
C           7.041000     -6.092000      8.503000
C           1.063000     -4.715000     11.537000
C           2.209000     -1.992000      8.803000
C           5.119000     -6.235000     12.627000
C           4.175000     -7.280000     12.227000
C           2.495000     -1.845000     10.167000
C           4.143000     -8.237000      8.858000
C           1.476000     -7.312000      9.181000
C           5.677000     -7.742000     10.397000
C           3.165000     -5.980000      6.282000
C           4.456000     -1.446000      9.095000
C           0.683000     -6.221000      9.591000
C           1.819000     -2.621000     11.118000
C           6.137000     -7.070000      8.087000
C           4.559000     -2.023000     11.462000
C           6.937000     -4.958000      7.668000
C           5.992000     -3.595000     12.158000
C           3.456000     -1.734000      8.177000
C           3.849000     -1.514000     10.330000
C           3.678000     -4.632000      6.125000
C           4.064000     -6.916000      6.869000
C           6.383000     -6.038000     12.020000
C           5.798000     -1.915000      8.918000
C           2.062000     -4.405000     12.480000
C           4.551000     -8.013000     11.101000
C           4.334000     -5.153000     13.023000
C           5.478000     -6.626000      6.969000
C           7.319000     -5.961000      9.890000
$end

--------------------------------------------------------------

             Standard Nuclear Orientation (Angstroms)
    I     Atom           X                Y                Z
 ----------------------------------------------------------------
    1      O      -6.2562670398     8.6782324285     1.5392416462
    2      C      -6.4816115683     9.8488045492     2.3023581206
    3      H      -6.4402272557     9.5598041725     3.3598159784
    4      H      -7.4353288818    10.2834121753     1.9779193787
    5      H      -5.6115239311    10.5114387955     2.2121508077
    6      O      -4.3119457165     8.0633021381     2.4683467693
    7      C      -5.2277101536     7.8349547226     1.7747208228
    8      C      -5.4422833022     6.5526446289     0.9402316453
    9      H      -5.6517888631     6.9069300922    -0.0770752063
   10      H      -6.4109315500     6.1135712846     1.2080602664
   11      C      -4.3390029865     5.5100464731     1.1827654172
   12      H      -3.3552710066     5.9881979978     1.2683195586
   13      H      -4.5980535606     4.9025666974     2.0577986292
   14      C      -4.2370359507     4.7454376404    -0.1056860009
   15      H      -5.2247019413     4.3696523452    -0.4029254715
   16      H      -3.8157338708     5.3615301250    -0.9101694425
   17      C      -3.2296409769     3.5793459683    -0.0801599538
   18      C      -1.8288677255     3.9657255155     0.1861577955
   19      C      -1.3239189105     4.1263412561     1.4988475068
   20      H      -1.9667920458     3.8588178786     2.3318939486
   21      C       0.0082195945     4.4726976701     1.7262111753
   22      H       0.3192309311     4.5703436116     2.7614228535
   23      C       0.7689531405     4.9679716898     0.6723762179
   24      H       1.7482641658     5.3945682596     0.8662841400
   25      C       0.2506524449     4.9991393359    -0.6152164843
   26      H       0.7697169186     5.5072341113    -1.4221512843
   27      C      -0.9714680825     4.3975966529    -0.8718890715
   28      H      -1.4477730717     4.4757433966    -1.8453841376
   29      C      -1.4870858341    -1.0679192607    -2.3648683523
   30      C      -1.1840409055    -1.4822143486     0.0192458126
   31      C      -4.5686193772    -4.4866317727     0.3719914876
   32      C      -6.2748532524     0.3010272277    -3.4584206650
   33      C      -6.8024114106    -2.1268581870     1.6117131402
   34      C      -1.2027107720    -0.6161964281    -1.0614458166
   35      C      -7.9018246066    -0.9415849845    -1.5547176676
   36      C      -2.8609150913    -4.1659779126    -1.4085003473
   37      C      -3.9117656908     0.5569901899     2.1693503092
   38      C      -6.7465433297     1.0182525511    -2.2987546327
   39      C      -3.7587883024     2.2544246907     0.4790213370
   40      C      -5.2072722873     0.9296291718     1.8581014574
   41      C      -7.2231329979     0.8371314890    -0.0713719873
   42      C      -7.9419629938    -1.8357882402    -0.4549688565
   43      C      -1.8722425302     0.5531442794     0.7962405225
   44      C      -6.6999577007    -3.7634365842    -0.1020967639
   45      C      -3.4488440982     2.3604721488    -0.9879185142
   46      C      -4.5321293305     2.0222781417    -1.9393826066
   47      C      -6.3542259693    -3.3951231050     1.1684435743
   48      C      -5.1981626846    -3.0111844378    -3.7826818312
   49      C      -5.2446176149    -4.4212737325    -2.0330932737
   50      C      -3.9182168016    -4.2228860119    -2.3750672419
   51      C      -1.7797676470    -3.2835805917    -1.5379498422
   52      C      -4.1005727149     1.3569938366    -3.0488945177
   53      C      -2.9716179032     1.2366429314     1.3107076079
   54      C      -1.4913659753    -2.8252165217    -0.2465971193
   55      C      -7.5956479190     0.3626725897    -1.3357632980
   56      C      -1.6706272120    -0.7860568387     1.1458626453
   57      C      -6.2500217463     0.0413142721     2.0063013386
   58      C      -4.4452093935    -0.7433373688    -4.1946053833
   59      C      -3.2363017939    -4.3680862238    -0.0637226504
   60      C      -5.1913104384     1.8724012723     0.8085777627
   61      C      -2.7607881721    -2.4943287788    -3.6287509578
   62      C      -7.1823884054     0.0043161293     0.9772058375
   63      C      -3.6120283016    -0.7573347007     2.5353196789
   64      C      -7.1722307187    -2.9630623797    -2.3131653583
   65      C      -7.4205323735    -1.6628232011    -2.6686486445
   66      C      -4.7057924479    -1.6884779522     2.6358096662
   67      C      -4.9673938807     0.4679723296    -3.8114211248
   68      C      -5.8644466891     1.8698984837    -1.5473062166
   69      C      -5.4783801382    -1.7011977164    -4.1360753349
   70      C      -2.3622730774     1.4616990040    -1.5393577681
   71      C      -2.9084365357    -2.7783038907     1.7434559534
   72      C      -6.1930148209     1.7314883595    -0.2205441353
   73      C      -5.9481047406    -1.2797903951     2.3491345050
   74      C      -3.1090871967    -1.1581810363    -4.0160634926
   75      C      -5.0523982504    -3.8112886472     1.4706104683
   76      C      -1.7030894680    -2.4567605021    -2.6558742565
   77      C      -5.5725700340    -4.4251076767    -0.6360540790
   78      C      -2.5380919476    -1.4859144758     1.9632023668
   79      C      -4.2171727255    -2.9163742604     2.1351167232
   80      C      -1.6136859975     0.6980954061    -0.6540917464
   81      C      -2.8089782372     0.9020273751    -2.7263371985
   82      C      -6.0772731552    -3.6444765034    -2.8765930165
   83      C      -2.4287584640    -3.4477377099     0.5795279877
   84      C      -7.5822556289    -1.3463201048     0.8232676459
   85      C      -6.6093553376    -1.0348890763    -3.6459999382
   86      C      -7.4841085115    -3.0520297120    -0.9525529755
   87      C      -2.3128040850    -0.3290595546    -3.1608958046
   88      C      -3.8476899567    -3.3509611507    -3.4752794944
   89      O      -0.4863174893    -6.7729461458     4.2479322616
   90      C      -0.3917931696    -8.1497055003     4.6847432423
   91      H      -1.4297240781    -8.4589572035     4.8584695020
   92      H       0.1156219192    -8.1809009652     5.6569195487
   93      H       0.1498688662    -8.8329389568     4.0193266188
   94      O       1.7387669322    -6.2852885478     4.6981626297
   95      C       0.6471534504    -5.9842922181     4.2446747953
   96      C       0.4137634494    -4.6305052764     3.6867581136
   97      H      -0.3531755882    -4.2463177247     4.3703906448
   98      H      -0.0480571304    -4.8104274748     2.7079130009
   99      C       1.5991640386    -3.5770877553     3.5875967832
  100      H       1.8692785268    -3.4353363998     4.6413869504
  101      H       2.5131252282    -4.0101037196     3.1620229137
  102      C       1.0441970967    -2.2752964515     2.9739062303
  103      H       0.8381056387    -2.6260762648     1.9554594553
  104      H       0.1203911081    -2.0127193421     3.5029145072
  105      C       1.9307124567    -0.9462777719     2.9122631784
  106      C       1.5461089493     0.0593402805     3.9715919634
  107      C       2.4006808507     0.2025414816     5.0781593050
  108      H       3.2316938106    -0.4690350558     5.2741909729
  109      C       2.1976748396     1.2717633047     5.9507933936
  110      H       2.8123786234     1.3974090174     6.8370221524
  111      C       1.0490679887     2.1284814762     5.8414029153
  112      H       0.8716589334     2.8107553600     6.6674957518
  113      C       0.0992210176     1.9150328992     4.7687909460
  114      H      -0.8442727912     2.4437094086     4.6708594339
  115      C       0.4401786391     0.9196773402     3.7807483298
  116      H      -0.1963699077     0.8628232032     2.9022993815
  117      C       3.3873006145     3.2210320542    -0.3664781581
  118      C       5.1931047619     3.1742087855     1.1973658120
  119      C       8.3780528478     1.4632682619    -1.6839729766
  120      C       2.6847700557    -1.3723269719    -2.4986905469
  121      C       7.9357322145    -1.8113211322    -0.5206059850
  122      C       3.7979684424     3.0358046200     0.9629923127
  123      C       5.1423670552    -2.7218525576    -2.6328049836
  124      C       6.6295344294     3.1292440521    -1.9947864373
  125      C       5.7098422434    -0.6465120958     2.5964252541
  126      C       2.9444674054    -2.4032743777    -1.5198076463
  127      C       3.3860813466    -0.9576975590     2.4091369688
  128      C       5.5387391402    -1.9188861373     2.0416441923
  129      C       4.7457115834    -3.2351394998    -0.2733679847
  130      C       6.5007556152    -2.5542684370    -2.3310880925
  131      C       4.4607890352     1.4274011361     2.3800922015
  132      C       7.9573102321    -0.5613121367    -2.5499255508
  133      C       2.2915221356    -0.4111512126     1.5759327772
  134      C       2.0287553254    -1.0247187493     0.2644868266
  135      C       8.3804225543    -0.7302713449    -1.2728046682
  136      C       4.6153032510     1.1011140209    -4.0832874157
  137      C       6.8390564654     1.2824076125    -3.6312340173
  138      C       6.2111871635     2.4887893147    -3.2088013855
  139      C       5.6819983123     3.7088615725    -1.1168093097
  140      C       1.7729428782    -0.0290800136    -0.6870427314
  141      C       4.4935283238     0.0353433257     2.6944998849
  142      C       6.0974696812     3.4525607458     0.1940466809
  143      C       4.2378863281    -2.9843698922    -1.5696924479
  144      C       5.5932118237     2.1468538931     2.1002934193
  145      C       6.5397128444    -2.4121770711     1.1694242097
  146      C       2.5085181559     0.8582802855    -2.8447361087
  147      C       7.6905541450     2.6254315172    -1.2419683366
  148      C       4.1324377936    -2.1666868011     1.9235537457
  149      C       3.8885971973     2.8832155289    -2.5120784777
  150      C       6.1184852803    -3.0820531125    -0.0058984815
  151      C       6.8711938495     0.0974452721     2.3450632009
  152      C       5.9452505206    -0.9278946033    -3.9147636410
  153      C       4.7677626726    -1.7501950621    -3.6310290406
  154      C       7.8066753403    -0.3830610835     1.4188402134
  155      C       2.0474559879    -0.2037224934    -2.0576924156
  156      C       2.7001668226    -2.2112492747    -0.1559438022
  157      C       3.4982099228     0.3003796021    -3.6725905850
  158      C       2.2882112648     1.0864807471     1.2534586674
  159      C       7.7203417368     1.8597593950     1.0779460801
  160      C       3.7363803990    -2.7462126629     0.6360824583
  161      C       7.6541306350    -1.6579046970     0.8575409404
  162      C       2.7604272504     2.1203281116    -2.2087777038
  163      C       8.6276943227     0.4782383972    -0.7149114205
  164      C       4.3153277809     3.5842144278    -1.3629490016
  165      C       7.9069501974     0.7721633878    -2.8132977066
  166      C       6.8518479695     1.4943684925     2.0967081056
  167      C       8.3125043923     0.6865451534     0.6641711017
  168      C       3.3445281626     1.9621882779     1.7248957597
  169      C       1.9633764903     1.2028817470    -0.1284961714
  170      C       5.8892258862     0.4544842134    -4.2161671039
  171      C       7.3806890080     2.8768315924     0.1279702019
  172      C       7.0191070664    -2.7248381059    -1.0279688496
  173      C       3.5648084493    -1.0479270552    -3.5518976110
  174      C       6.9669522334    -1.4514809221    -3.1237213054
  175      C       2.4060436197     2.3424011785    -0.9024711566
  176      C       4.8235180482     2.3792315558    -3.4555492813
 ----------------------------------------------------------------

    9   -5804.2709515811      7.63E-06 Convergence criterion met
 Total energy in the final basis set = -5804.2709515811

                    Orbital Energies (a.u.)
 --------------------------------------------------------------

 Alpha MOs
 -- Occupied --
-19.191 -19.186 -19.142 -19.132 -10.315 -10.313 -10.247 -10.245
-10.242 -10.241 -10.240 -10.238 -10.237 -10.233 -10.233 -10.231
-10.231 -10.228 -10.227 -10.226 -10.226 -10.225 -10.225 -10.224
-10.224 -10.223 -10.223 -10.222 -10.222 -10.222 -10.222 -10.221
-10.221 -10.220 -10.220 -10.220 -10.220 -10.220 -10.220 -10.219
-10.219 -10.219 -10.219 -10.218 -10.218 -10.218 -10.218 -10.218
-10.218 -10.218 -10.218 -10.217 -10.217 -10.217 -10.217 -10.217
-10.217 -10.216 -10.216 -10.216 -10.216 -10.216 -10.216 -10.216
-10.216 -10.215 -10.215 -10.215 -10.215 -10.215 -10.215 -10.215
-10.215 -10.214 -10.214 -10.214 -10.214 -10.214 -10.214 -10.214
-10.214 -10.214 -10.214 -10.214 -10.213 -10.213 -10.213 -10.213
-10.213 -10.213 -10.213 -10.213 -10.213 -10.213 -10.212 -10.212
-10.212 -10.212 -10.212 -10.212 -10.212 -10.212 -10.211 -10.211
-10.211 -10.211 -10.211 -10.211 -10.211 -10.211 -10.211 -10.210
-10.210 -10.209 -10.209 -10.209 -10.209 -10.208 -10.208 -10.208
-10.208 -10.208 -10.208 -10.208 -10.208 -10.208 -10.208 -10.207
-10.207 -10.207 -10.206 -10.205 -10.205 -10.204 -10.204 -10.203
-10.201 -10.201 -10.200 -10.199 -10.199 -10.198 -10.197 -10.197
-10.197 -10.196 -10.196 -10.195  -1.110  -1.084  -1.033  -1.008
 -0.989  -0.978  -0.969  -0.968  -0.966  -0.962  -0.957  -0.957
 -0.936  -0.933  -0.932  -0.929  -0.927  -0.926  -0.922  -0.920
 -0.917  -0.917  -0.899  -0.894  -0.892  -0.888  -0.887  -0.884
 -0.879  -0.869  -0.856  -0.848  -0.846  -0.844  -0.843  -0.836
 -0.833  -0.831  -0.825  -0.812  -0.811  -0.803  -0.801  -0.799
 -0.797  -0.795  -0.794  -0.792  -0.791  -0.788  -0.787  -0.782
 -0.777  -0.772  -0.769  -0.767  -0.765  -0.765  -0.762  -0.756
 -0.752  -0.750  -0.745  -0.741  -0.735  -0.728  -0.722  -0.721
 -0.717  -0.715  -0.712  -0.711  -0.709  -0.709  -0.709  -0.708
 -0.708  -0.706  -0.704  -0.704  -0.701  -0.697  -0.676  -0.672
 -0.665  -0.662  -0.653  -0.652  -0.649  -0.643  -0.631  -0.629
 -0.628  -0.627  -0.626  -0.624  -0.624  -0.623  -0.621  -0.618
 -0.618  -0.614  -0.613  -0.612  -0.610  -0.608  -0.608  -0.607
 -0.606  -0.604  -0.602  -0.598  -0.567  -0.566  -0.564  -0.563
 -0.561  -0.560  -0.558  -0.557  -0.554  -0.553  -0.553  -0.550
 -0.538  -0.536  -0.531  -0.530  -0.529  -0.528  -0.526  -0.526
 -0.522  -0.521  -0.521  -0.521  -0.519  -0.514  -0.513  -0.513
 -0.511  -0.508  -0.502  -0.496  -0.494  -0.492  -0.491  -0.489
 -0.487  -0.485  -0.483  -0.481  -0.480  -0.476  -0.475  -0.475
 -0.474  -0.472  -0.471  -0.471  -0.470  -0.469  -0.468  -0.466
 -0.465  -0.464  -0.463  -0.463  -0.462  -0.459  -0.459  -0.458
 -0.457  -0.456  -0.451  -0.450  -0.449  -0.448  -0.445  -0.445
 -0.443  -0.441  -0.440  -0.438  -0.438  -0.436  -0.436  -0.435
 -0.433  -0.430  -0.428  -0.428  -0.427  -0.427  -0.426  -0.425
 -0.424  -0.423  -0.422  -0.421  -0.421  -0.420  -0.420  -0.420
 -0.418  -0.417  -0.416  -0.415  -0.415  -0.413  -0.413  -0.412
 -0.411  -0.409  -0.407  -0.406  -0.404  -0.400  -0.399  -0.398
 -0.396  -0.394  -0.394  -0.390  -0.389  -0.386  -0.384  -0.382
 -0.379  -0.375  -0.374  -0.373  -0.370  -0.369  -0.369  -0.367
 -0.366  -0.363  -0.363  -0.362  -0.361  -0.359  -0.359  -0.357
 -0.356  -0.356  -0.355  -0.355  -0.354  -0.353  -0.351  -0.350
 -0.350  -0.349  -0.347  -0.347  -0.346  -0.345  -0.345  -0.344
 -0.344  -0.341  -0.340  -0.339  -0.339  -0.338  -0.336  -0.334
 -0.333  -0.332  -0.330  -0.328  -0.328  -0.325  -0.324  -0.321
 -0.310  -0.306  -0.299  -0.298  -0.287  -0.282  -0.278  -0.275
 -0.273  -0.272  -0.270  -0.268  -0.266  -0.264  -0.263  -0.263
 -0.262  -0.261  -0.261  -0.258  -0.258  -0.257  -0.255  -0.250
 -0.249  -0.246  -0.243  -0.242  -0.222  -0.220  -0.217  -0.214
 -0.210  -0.208  -0.206  -0.204  -0.202  -0.193

          Ground-State Mulliken Net Atomic Charges

     Atom                 Charge (a.u.)
  ----------------------------------------
      1 O                    -0.467857
      2 C                    -0.081873
      3 H                     0.121086
      4 H                     0.128240
      5 H                     0.125956
      6 O                    -0.440766
      7 C                     0.586916
      8 C                    -0.283101
      9 H                     0.136389
     10 H                     0.134001
     11 C                    -0.168876
     12 H                     0.139891
     13 H                     0.110238
     14 C                    -0.177090
     15 H                     0.102635
     16 H                     0.110772
     17 C                     0.001272
     18 C                     0.080440
     19 C                    -0.107901
     20 H                     0.085755
     21 C                    -0.086401
     22 H                     0.099704
     23 C                    -0.083990
     24 H                     0.095816
     25 C                    -0.082217
     26 H                     0.096059
     27 C                    -0.103854
     28 H                     0.085798
     29 C                     0.017534
     30 C                    -0.000970
     31 C                    -0.000241
     32 C                    -0.003031
     33 C                    -0.000806
     34 C                    -0.004236
     35 C                     0.011186
     36 C                    -0.000314
     37 C                     0.011474
     38 C                    -0.034277
     39 C                    -0.085536
     40 C                     0.015596
     41 C                     0.013443
     42 C                    -0.028565
     43 C                    -0.018980
     44 C                     0.027590
     45 C                    -0.091258
     46 C                     0.060285
     47 C                    -0.008883
     48 C                    -0.008599
     49 C                    -0.011726
     50 C                    -0.001097
     51 C                     0.021547
     52 C                    -0.016585
     53 C                     0.020787
     54 C                    -0.002420
     55 C                    -0.010524
     56 C                     0.006425
     57 C                    -0.018454
     58 C                     0.037907
     59 C                    -0.017693
     60 C                     0.027238
     61 C                    -0.008452
     62 C                     0.015397
     63 C                    -0.040117
     64 C                     0.029121
     65 C                     0.005859
     66 C                    -0.011576
     67 C                    -0.003903
     68 C                    -0.018297
     69 C                    -0.010058
     70 C                     0.021060
     71 C                     0.025323
     72 C                    -0.008693
     73 C                     0.018799
     74 C                    -0.029408
     75 C                    -0.004044
     76 C                    -0.036498
     77 C                    -0.012146
     78 C                     0.012918
     79 C                     0.002107
     80 C                    -0.000947
     81 C                     0.021576
     82 C                    -0.009303
     83 C                    -0.005954
     84 C                     0.001109
     85 C                    -0.015463
     86 C                    -0.004707
     87 C                     0.002722
     88 C                     0.022336
     89 O                    -0.480444
     90 C                    -0.084167
     91 H                     0.124901
     92 H                     0.131444
     93 H                     0.128987
     94 O                    -0.472863
     95 C                     0.590818
     96 C                    -0.258557
     97 H                     0.134584
     98 H                     0.128386
     99 C                    -0.185057
    100 H                     0.110101
    101 H                     0.125886
    102 C                    -0.186452
    103 H                     0.112785
    104 H                     0.115821
    105 C                     0.011863
    106 C                     0.065423
    107 C                    -0.099544
    108 H                     0.100540
    109 C                    -0.092514
    110 H                     0.090185
    111 C                    -0.094845
    112 H                     0.092554
    113 C                    -0.104022
    114 H                     0.094960
    115 C                    -0.104505
    116 H                     0.097460
    117 C                    -0.008241
    118 C                    -0.010793
    119 C                    -0.033772
    120 C                    -0.012627
    121 C                    -0.001408
    122 C                    -0.017564
    123 C                     0.007805
    124 C                     0.011657
    125 C                     0.001659
    126 C                    -0.015570
    127 C                    -0.083130
    128 C                     0.021005
    129 C                     0.008574
    130 C                    -0.005293
    131 C                     0.029028
    132 C                    -0.007385
    133 C                    -0.085263
    134 C                     0.040391
    135 C                     0.042964
    136 C                    -0.022766
    137 C                     0.009401
    138 C                    -0.007993
    139 C                    -0.017009
    140 C                     0.030255
    141 C                     0.037070
    142 C                     0.019671
    143 C                     0.001262
    144 C                    -0.005051
    145 C                     0.001126
    146 C                    -0.021806
    147 C                     0.008989
    148 C                     0.002426
    149 C                     0.008886
    150 C                    -0.012609
    151 C                    -0.009061
    152 C                     0.015244
    153 C                    -0.039681
    154 C                    -0.001365
    155 C                    -0.002611
    156 C                    -0.002123
    157 C                     0.027706
    158 C                     0.015392
    159 C                    -0.006531
    160 C                    -0.006367
    161 C                    -0.011365
    162 C                     0.005962
    163 C                    -0.009847
    164 C                    -0.004964
    165 C                     0.007877
    166 C                    -0.016697
    167 C                     0.011430
    168 C                     0.005006
    169 C                     0.002324
    170 C                    -0.014592
    171 C                    -0.008679
    172 C                     0.000156
    173 C                     0.021905
    174 C                    -0.007621
    175 C                     0.011624
    176 C                    -0.013357
  ----------------------------------------
  Sum of atomic charges =     0.000000

                    Cartesian Multipole Moments
 -----------------------------------------------------------------
    Charge (ESU x 10^10)
                 0.0000
    Dipole Moment (Debye)
         X      -5.1256      Y       2.7937      Z       1.5307
       Tot       6.0349
    Quadrupole Moments (Debye-Ang)
        XX    -810.5570     XY     -12.1645     YY    -777.8140
        XZ      -8.4631     YZ       0.2854     ZZ    -805.2381

 Total job time:  887.35s(wall), 7596.86s(cpu)
        *  Thank you very much for using Q-Chem.  Have a nice day.  *
